
     Program PWSCF v.6.3 starts on 25Mar2020 at  3:24: 7 

     This program is part of the open-source Quantum ESPRESSO suite
     for quantum simulation of materials; please cite
         "P. Giannozzi et al., J. Phys.:Condens. Matter 21 395502 (2009);
         "P. Giannozzi et al., J. Phys.:Condens. Matter 29 465901 (2017);
          URL http://www.quantum-espresso.org", 
     in publications or presentations arising from this work. More details at
     http://www.quantum-espresso.org/quote

     Parallel version (MPI & OpenMP), running on      20 processor cores
     Number of MPI processes:                20
     Threads/MPI process:                     1

     MPI processes distributed on     1 nodes
     R & G space division:  proc/nbgrp/npool/nimage =      20
     Reading input from /rds/homes/b/bxp912/jobs/20200324_al_eos_e/wd/pwscf_eos/eos_8.in
Warning: card &IONS ignored
Warning: card ION_DYNAMICS = 'BFGS', ignored
Warning: card / ignored
Warning: card &CELL ignored
Warning: card CELL_DYNAMICS = 'BFGS', ignored
Warning: card CELL_FACTOR = 2.0, ignored
Warning: card PRESS = 0.0, ignored
Warning: card / ignored

     Current dimensions of program PWSCF are:
     Max number of different atomic species (ntypx) = 10
     Max number of k-points (npk) =  40000
     Max angular momentum in pseudopotentials (lmaxx) =  3
     Message from routine read_upf::
     Pseudo file /rds/homes/b/bxp912/pp/Al.pbe-nl-kjpaw_psl.1.0.0.UPF has been successfully fixed on the fly.
To avoid this message in the future you can permanently fix 
 your pseudo files following instructions given in: 
https://gitlab.com/QEF/q-e/blob/master/upftools/how_to_fix_upf.md
               file Al.pbe-nl-kjpaw_psl.1.0.0.UPF: wavefunction(s)  3S 3P renormalized

     Subspace diagonalization in iterative solution of the eigenvalue problem:
     a serial algorithm will be used

     Found symmetry operation: I + (  0.2500  0.2500  0.0000)
     This is a supercell, fractional translations are disabled
 
     Parallelization info
     --------------------
     sticks:   dense  smooth     PW     G-vecs:    dense   smooth      PW
     Min         186     186     51                 8544     8544    1241
     Max         187     187     52                 8547     8547    1244
     Sum        3721    3721   1033               170901   170901   24837
 


     bravais-lattice index     =            0
     lattice parameter (alat)  =      15.2652  a.u.
     unit-cell volume          =    3578.5512 (a.u.)^3
     number of atoms/cell      =           32
     number of atomic types    =            1
     number of electrons       =        96.00
     number of Kohn-Sham states=           58
     kinetic-energy cutoff     =      50.0000  Ry
     charge density cutoff     =     200.0000  Ry
     convergence threshold     =      1.0E-06
     mixing beta               =       0.1000
     number of iterations used =           10  plain     mixing
     Exchange-correlation      = SLA PW PBX PBC ( 1  4  3  4 0 0)

     celldm(1)=  15.265160  celldm(2)=   0.000000  celldm(3)=   0.000000
     celldm(4)=   0.000000  celldm(5)=   0.000000  celldm(6)=   0.000000

     crystal axes: (cart. coord. in units of alat)
               a(1) = (   1.002000   0.000000   0.000000 )  
               a(2) = (   0.000000   1.002000   0.000000 )  
               a(3) = (   0.000000   0.000000   1.002000 )  

     reciprocal axes: (cart. coord. in units 2 pi/alat)
               b(1) = (  0.998004  0.000000  0.000000 )  
               b(2) = (  0.000000  0.998004  0.000000 )  
               b(3) = (  0.000000  0.000000  0.998004 )  


     PseudoPot. # 1 for Al read from file:
     /rds/homes/b/bxp912/pp/Al.pbe-nl-kjpaw_psl.1.0.0.UPF
     MD5 check sum: 339dbea23cf3ab9a065ad45c0f9085d7
     Pseudo is Projector augmented-wave + core cor, Zval =  3.0
     Generated using "atomic" code by A. Dal Corso v.5.1
     Shape of augmentation charge: PSQ
     Using radial grid of 1135 points,  4 beta functions with: 
                l(1) =   0
                l(2) =   0
                l(3) =   1
                l(4) =   1
     Q(r) pseudized with 0 coefficients 


     atomic species   valence    mass     pseudopotential
        Al             3.00    26.98200     Al( 1.00)

     48 Sym. Ops., with inversion, found



   Cartesian axes

     site n.     atom                  positions (alat units)
         1           Al  tau(   1) = (   0.0000000   0.0000000   0.0000000  )
         2           Al  tau(   2) = (   0.2505000   0.2505000   0.0000000  )
         3           Al  tau(   3) = (   0.2505000   0.0000000   0.2505000  )
         4           Al  tau(   4) = (   0.0000000   0.2505000   0.2505000  )
         5           Al  tau(   5) = (   0.0000000   0.0000000   0.5010000  )
         6           Al  tau(   6) = (   0.2505000   0.2505000   0.5010000  )
         7           Al  tau(   7) = (   0.2505000   0.0000000   0.7515000  )
         8           Al  tau(   8) = (   0.0000000   0.2505000   0.7515000  )
         9           Al  tau(   9) = (   0.0000000   0.5010000   0.0000000  )
        10           Al  tau(  10) = (   0.2505000   0.7515000   0.0000000  )
        11           Al  tau(  11) = (   0.2505000   0.5010000   0.2505000  )
        12           Al  tau(  12) = (   0.0000000   0.7515000   0.2505000  )
        13           Al  tau(  13) = (   0.0000000   0.5010000   0.5010000  )
        14           Al  tau(  14) = (   0.2505000   0.7515000   0.5010000  )
        15           Al  tau(  15) = (   0.2505000   0.5010000   0.7515000  )
        16           Al  tau(  16) = (   0.0000000   0.7515000   0.7515000  )
        17           Al  tau(  17) = (   0.5010000   0.0000000   0.0000000  )
        18           Al  tau(  18) = (   0.7515000   0.2505000   0.0000000  )
        19           Al  tau(  19) = (   0.7515000   0.0000000   0.2505000  )
        20           Al  tau(  20) = (   0.5010000   0.2505000   0.2505000  )
        21           Al  tau(  21) = (   0.5010000   0.0000000   0.5010000  )
        22           Al  tau(  22) = (   0.7515000   0.2505000   0.5010000  )
        23           Al  tau(  23) = (   0.7515000   0.0000000   0.7515000  )
        24           Al  tau(  24) = (   0.5010000   0.2505000   0.7515000  )
        25           Al  tau(  25) = (   0.5010000   0.5010000   0.0000000  )
        26           Al  tau(  26) = (   0.7515000   0.7515000   0.0000000  )
        27           Al  tau(  27) = (   0.7515000   0.5010000   0.2505000  )
        28           Al  tau(  28) = (   0.5010000   0.7515000   0.2505000  )
        29           Al  tau(  29) = (   0.5010000   0.5010000   0.5010000  )
        30           Al  tau(  30) = (   0.7515000   0.7515000   0.5010000  )
        31           Al  tau(  31) = (   0.7515000   0.5010000   0.7515000  )
        32           Al  tau(  32) = (   0.5010000   0.7515000   0.7515000  )

     number of k points=    56  Marzari-Vanderbilt smearing, width (Ry)=  0.0400
                       cart. coord. in units 2pi/alat
        k(    1) = (   0.0453638   0.0453638   0.0453638), wk =   0.0120210
        k(    2) = (   0.0453638   0.0453638   0.1360915), wk =   0.0360631
        k(    3) = (   0.0453638   0.0453638   0.2268191), wk =   0.0360631
        k(    4) = (   0.0453638   0.0453638   0.3175467), wk =   0.0360631
        k(    5) = (   0.0453638   0.0453638   0.4082744), wk =   0.0360631
        k(    6) = (   0.0453638   0.0453638  -0.4990020), wk =   0.0180316
        k(    7) = (   0.0453638   0.1360915   0.1360915), wk =   0.0360631
        k(    8) = (   0.0453638   0.1360915   0.2268191), wk =   0.0721262
        k(    9) = (   0.0453638   0.1360915   0.3175467), wk =   0.0721262
        k(   10) = (   0.0453638   0.1360915   0.4082744), wk =   0.0721262
        k(   11) = (   0.0453638   0.1360915  -0.4990020), wk =   0.0360631
        k(   12) = (   0.0453638   0.2268191   0.2268191), wk =   0.0360631
        k(   13) = (   0.0453638   0.2268191   0.3175467), wk =   0.0721262
        k(   14) = (   0.0453638   0.2268191   0.4082744), wk =   0.0721262
        k(   15) = (   0.0453638   0.2268191  -0.4990020), wk =   0.0360631
        k(   16) = (   0.0453638   0.3175467   0.3175467), wk =   0.0360631
        k(   17) = (   0.0453638   0.3175467   0.4082744), wk =   0.0721262
        k(   18) = (   0.0453638   0.3175467  -0.4990020), wk =   0.0360631
        k(   19) = (   0.0453638   0.4082744   0.4082744), wk =   0.0360631
        k(   20) = (   0.0453638   0.4082744  -0.4990020), wk =   0.0360631
        k(   21) = (   0.0453638  -0.4990020  -0.4990020), wk =   0.0090158
        k(   22) = (   0.1360915   0.1360915   0.1360915), wk =   0.0120210
        k(   23) = (   0.1360915   0.1360915   0.2268191), wk =   0.0360631
        k(   24) = (   0.1360915   0.1360915   0.3175467), wk =   0.0360631
        k(   25) = (   0.1360915   0.1360915   0.4082744), wk =   0.0360631
        k(   26) = (   0.1360915   0.1360915  -0.4990020), wk =   0.0180316
        k(   27) = (   0.1360915   0.2268191   0.2268191), wk =   0.0360631
        k(   28) = (   0.1360915   0.2268191   0.3175467), wk =   0.0721262
        k(   29) = (   0.1360915   0.2268191   0.4082744), wk =   0.0721262
        k(   30) = (   0.1360915   0.2268191  -0.4990020), wk =   0.0360631
        k(   31) = (   0.1360915   0.3175467   0.3175467), wk =   0.0360631
        k(   32) = (   0.1360915   0.3175467   0.4082744), wk =   0.0721262
        k(   33) = (   0.1360915   0.3175467  -0.4990020), wk =   0.0360631
        k(   34) = (   0.1360915   0.4082744   0.4082744), wk =   0.0360631
        k(   35) = (   0.1360915   0.4082744  -0.4990020), wk =   0.0360631
        k(   36) = (   0.1360915  -0.4990020  -0.4990020), wk =   0.0090158
        k(   37) = (   0.2268191   0.2268191   0.2268191), wk =   0.0120210
        k(   38) = (   0.2268191   0.2268191   0.3175467), wk =   0.0360631
        k(   39) = (   0.2268191   0.2268191   0.4082744), wk =   0.0360631
        k(   40) = (   0.2268191   0.2268191  -0.4990020), wk =   0.0180316
        k(   41) = (   0.2268191   0.3175467   0.3175467), wk =   0.0360631
        k(   42) = (   0.2268191   0.3175467   0.4082744), wk =   0.0721262
        k(   43) = (   0.2268191   0.3175467  -0.4990020), wk =   0.0360631
        k(   44) = (   0.2268191   0.4082744   0.4082744), wk =   0.0360631
        k(   45) = (   0.2268191   0.4082744  -0.4990020), wk =   0.0360631
        k(   46) = (   0.2268191  -0.4990020  -0.4990020), wk =   0.0090158
        k(   47) = (   0.3175467   0.3175467   0.3175467), wk =   0.0120210
        k(   48) = (   0.3175467   0.3175467   0.4082744), wk =   0.0360631
        k(   49) = (   0.3175467   0.3175467  -0.4990020), wk =   0.0180316
        k(   50) = (   0.3175467   0.4082744   0.4082744), wk =   0.0360631
        k(   51) = (   0.3175467   0.4082744  -0.4990020), wk =   0.0360631
        k(   52) = (   0.3175467  -0.4990020  -0.4990020), wk =   0.0090158
        k(   53) = (   0.4082744   0.4082744   0.4082744), wk =   0.0120210
        k(   54) = (   0.4082744   0.4082744  -0.4990020), wk =   0.0180316
        k(   55) = (   0.4082744  -0.4990020  -0.4990020), wk =   0.0090158
        k(   56) = (  -0.4990020  -0.4990020  -0.4990020), wk =   0.0015026

     Dense  grid:   170901 G-vectors     FFT dimensions: (  72,  72,  72)

     Estimated max dynamical RAM per process >      82.29 MB

     Estimated total dynamical RAM >       1.61 GB

     Initial potential from superposition of free atoms

     starting charge   95.92671, renormalised to   96.00000
     Starting wfcs are  128 randomized atomic wfcs
     Checking if some PAW data can be deallocated... 

     total cpu time spent up to now is        7.2 secs

     Self-consistent Calculation

     iteration #  1     ecut=    50.00 Ry     beta= 0.10
     Davidson diagonalization with overlap
     ethr =  1.00E-02,  avg # of iterations =  3.1

     Threshold (ethr) on eigenvalues was too large:
     Diagonalizing with lowered threshold

     Davidson diagonalization with overlap
     ethr =  1.91E-04,  avg # of iterations =  4.6

     total cpu time spent up to now is       32.1 secs

     total energy              =   -1264.12418032 Ry
     Harris-Foulkes estimate   =   -1264.13355000 Ry
     estimated scf accuracy    <       0.17947935 Ry

     iteration #  2     ecut=    50.00 Ry     beta= 0.10
     Davidson diagonalization with overlap
     ethr =  1.87E-04,  avg # of iterations =  1.0

     total cpu time spent up to now is       39.6 secs

     total energy              =   -1264.08365916 Ry
     Harris-Foulkes estimate   =   -1264.12494943 Ry
     estimated scf accuracy    <       0.14416433 Ry

     iteration #  3     ecut=    50.00 Ry     beta= 0.10
     Davidson diagonalization with overlap
     ethr =  1.50E-04,  avg # of iterations =  1.0

     total cpu time spent up to now is       47.0 secs

     total energy              =   -1264.08638591 Ry
     Harris-Foulkes estimate   =   -1264.08639343 Ry
     estimated scf accuracy    <       0.00024150 Ry

     iteration #  4     ecut=    50.00 Ry     beta= 0.10
     Davidson diagonalization with overlap
     c_bands:  1 eigenvalues not converged
     c_bands:  1 eigenvalues not converged
     c_bands:  1 eigenvalues not converged
     c_bands:  1 eigenvalues not converged
     c_bands:  1 eigenvalues not converged
     c_bands:  1 eigenvalues not converged
     ethr =  2.52E-07,  avg # of iterations =  7.9

     total cpu time spent up to now is       64.8 secs

     total energy              =   -1264.08733994 Ry
     Harris-Foulkes estimate   =   -1264.08724895 Ry
     estimated scf accuracy    <       0.00021126 Ry

     iteration #  5     ecut=    50.00 Ry     beta= 0.10
     Davidson diagonalization with overlap
     ethr =  2.20E-07,  avg # of iterations =  1.4

     total cpu time spent up to now is       72.5 secs

     total energy              =   -1264.08715573 Ry
     Harris-Foulkes estimate   =   -1264.08734197 Ry
     estimated scf accuracy    <       0.00040460 Ry

     iteration #  6     ecut=    50.00 Ry     beta= 0.10
     Davidson diagonalization with overlap
     ethr =  2.20E-07,  avg # of iterations =  1.4

     total cpu time spent up to now is       80.2 secs

     total energy              =   -1264.08716989 Ry
     Harris-Foulkes estimate   =   -1264.08717031 Ry
     estimated scf accuracy    <       0.00000256 Ry

     iteration #  7     ecut=    50.00 Ry     beta= 0.10
     Davidson diagonalization with overlap
     c_bands:  1 eigenvalues not converged
     c_bands:  1 eigenvalues not converged
     ethr =  2.66E-09,  avg # of iterations =  5.7

     total cpu time spent up to now is       96.5 secs

     total energy              =   -1264.08717333 Ry
     Harris-Foulkes estimate   =   -1264.08717341 Ry
     estimated scf accuracy    <       0.00000110 Ry

     iteration #  8     ecut=    50.00 Ry     beta= 0.10
     Davidson diagonalization with overlap
     ethr =  1.15E-09,  avg # of iterations =  1.6

     total cpu time spent up to now is      104.3 secs

     total energy              =   -1264.08717330 Ry
     Harris-Foulkes estimate   =   -1264.08717337 Ry
     estimated scf accuracy    <       0.00000129 Ry

     iteration #  9     ecut=    50.00 Ry     beta= 0.10
     Davidson diagonalization with overlap
     ethr =  1.15E-09,  avg # of iterations =  1.5

     total cpu time spent up to now is      112.0 secs

     End of self-consistent calculation

          k = 0.0454 0.0454 0.0454 ( 21382 PWs)   bands (ev):

    -3.2355  -1.1955  -1.1955  -1.1955  -0.7911  -0.7911  -0.7911   0.8162
     0.8162   0.8162   1.2150   1.2150   1.2150   1.2150   1.2150   1.2151
     1.6128   1.6128   1.6128   2.7967   3.1747   3.1747   3.1747   3.6186
     3.6186   3.6186   3.9947   4.8489   4.8489   4.8489   6.3822   6.3822
     6.3822   6.7394   6.7394   6.7395   6.7395   6.7395   6.7395   7.1188
     7.1188   7.1188   7.1188   7.1188   7.1188   8.1402   8.1402   8.1402
     8.1403   8.1403   8.1403   8.6418   8.6418   8.6419   9.0210   9.0210
     9.0228   9.0694

          k = 0.0454 0.0454 0.1361 ( 21386 PWs)   bands (ev):

    -3.1981  -1.5642  -1.1587  -1.1587  -0.7543  -0.7543  -0.3513   0.4525
     0.4525   0.8524   0.8524   0.8525   1.2513   1.2513   1.6487   1.6487
     1.6489   2.0452   2.0452   2.4407   2.8323   2.8323   3.2099   3.6545
     4.0303   4.0303   4.3004   4.4182   4.8833   4.8833   6.2127   6.2127
     6.3973   6.3973   6.4181   6.4181   6.5799   6.5799   6.7895   6.7895
     6.9953   7.1578   7.1578   7.5164   7.5164   7.9320   7.9320   8.1419
     8.2972   8.2972   8.3207   8.3208   8.5229   8.5229   8.5252   8.5252
     8.6763   8.6763

          k = 0.0454 0.0454 0.2268 ( 21371 PWs)   bands (ev):

    -3.1235  -1.8969  -1.0850  -1.0850  -0.6809  -0.6809   0.1234   0.1244
     0.1244   0.5252   0.5252   0.9252   1.3237   1.3237   1.7211   2.1167
     2.1167   2.1179   2.5119   2.5119   2.5123   2.5123   2.9035   3.6464
     4.1012   4.4888   4.4888   4.8777   4.9522   4.9522   5.5780   5.5780
     5.9577   5.9577   6.0881   6.0881   6.4898   6.4898   6.8509   6.8509
     7.2278   7.2278   7.5196   7.6097   7.6097   7.7787   7.9024   7.9024
     7.9870   7.9870   8.0125   8.0125   8.2847   8.3661   8.3661   8.4522
     8.4522   8.7792

          k = 0.0454 0.0454 0.3175 ( 21364 PWs)   bands (ev):

    -3.0115  -2.1933  -0.9747  -0.9747  -0.5709  -0.5709  -0.1678  -0.1678
     0.2337   0.2337   0.6325   1.0340   1.4323   1.4323   1.8294   1.8299
     2.2256   2.2256   2.6185   2.6185   2.6195   2.9912   3.0121   3.0121
     4.5942   4.9378   4.9378   4.9827   4.9827   5.0555   5.0555   5.3222
     5.3222   5.3712   5.8129   5.8129   6.5970   6.5970   6.8872   6.9534
     6.9534   7.2716   7.2716   7.3316   7.3316   7.3607   7.3607   7.6555
     7.7113   7.7113   8.0903   8.0903   8.4785   8.4785   8.5820   8.5820
     8.6277   8.9439

          k = 0.0454 0.0454 0.4083 ( 21371 PWs)   bands (ev):

    -2.8624  -2.4531  -0.8277  -0.8276  -0.4243  -0.4242  -0.4241  -0.4241
    -0.0218  -0.0218   1.1752   1.1791   1.5769   1.5769   1.5772   1.9736
     1.9738   1.9738   2.3569   2.3691   3.1532   3.1532   3.5451   3.5451
     4.3156   4.3156   4.7031   4.7032   5.1220   5.1932   5.1932   5.5100
     5.5100   5.5720   5.5720   5.8975   6.2717   6.6575   6.6575   6.7391
     6.7391   7.0427   7.0910   7.0910   7.1237   7.1237   7.4696   7.4696
     7.4700   7.4700   7.8489   7.8489   8.7346   8.7346   8.9917   8.9917
     9.1083   9.1083

          k = 0.0454 0.0454-0.4990 ( 21370 PWs)   bands (ev):

    -2.6763  -2.6762  -0.6441  -0.6441  -0.6440  -0.6440  -0.2413  -0.2412
    -0.2411  -0.2411   1.3602   1.3603   1.7505   1.7505   1.7575   1.7575
     1.7576   1.7576   2.1535   2.1536   3.7195   3.7195   3.7195   3.7195
     4.1094   4.1095   4.1095   4.1095   5.3653   5.3654   5.3655   5.3655
     5.6819   5.6820   6.0689   6.0690   6.0690   6.0690   6.4554   6.4554
     6.9152   6.9152   6.9153   6.9153   7.2632   7.2632   7.2633   7.2633
     7.6420   7.6420   7.6421   7.6421   8.9174   8.9174   8.9175   8.9175
     9.2958   9.2958

          k = 0.0454 0.1361 0.1361 ( 21378 PWs)   bands (ev):

    -3.1608  -1.5273  -1.5273  -1.1218  -0.7176  -0.3147  -0.3147   0.0880
     0.4890   0.4890   0.8887   0.8887   1.2872   1.2872   1.6848   1.6848
     2.0812   2.0812   2.0820   2.4763   2.4765   3.2450   3.2450   3.6905
     3.6905   4.3354   4.3354   4.4536   4.8426   4.9177   5.8683   5.8683
     6.2330   6.2330   6.4294   6.4294   6.4539   6.6567   6.6568   6.9974
     6.9974   7.0306   7.0306   7.5668   7.5668   7.7951   7.7951   7.9526
     8.0366   8.0366   8.1763   8.1763   8.4562   8.4562   8.8254   8.8254
     8.9379   8.9379

          k = 0.0454 0.1361 0.2268 ( 21367 PWs)   bands (ev):

    -3.0861  -1.8599  -1.4535  -1.0482  -0.6442  -0.2415  -0.2409   0.1599
     0.1609   0.5616   0.5618   0.9610   0.9614   1.7564   1.7570   1.7579
     2.1527   2.1532   2.1538   2.5477   2.9390   2.9414   3.3154   3.6818
     3.7621   4.1368   4.4054   4.9129   4.9866   5.2298   5.3016   5.5565
     5.6092   5.9707   6.1219   6.3519   6.3595   6.5234   6.5254   6.7191
     7.1009   7.1710   7.3682   7.4826   7.5542   7.6395   7.6424   7.8134
     7.8164   7.8641   7.9887   8.1291   8.2468   8.3191   8.7010   8.7796
     9.0027   9.0092

          k = 0.0454 0.1361 0.3175 ( 21371 PWs)   bands (ev):

    -2.9742  -2.1562  -1.3428  -0.9379  -0.5342  -0.5340  -0.1318  -0.1313
     0.2702   0.6688   0.6704   0.6710   1.0702   1.4689   1.8653   1.8658
     2.2595   2.2611   2.6543   2.6552   3.0269   3.0458   3.0478   3.4400
     4.2427   4.5104   4.5865   4.6296   4.9716   5.0899   5.2784   5.3531
     5.4062   5.7374   5.7941   5.8471   6.4449   6.5372   6.6107   6.6321
     6.8220   6.9220   7.2048   7.2061   7.3607   7.3667   7.5863   7.6900
     7.7442   7.9467   8.0328   8.0733   8.2440   8.5037   8.5187   8.6618
     9.0323   9.1514

          k = 0.0454 0.1361 0.4083 ( 21373 PWs)   bands (ev):

    -2.8251  -2.4160  -1.1954  -0.7909  -0.7908  -0.3876  -0.3874   0.0144
     0.0147   0.4156   0.8164   1.2114   1.2152   1.2155   1.6132   2.0094
     2.3928   2.4047   2.4048   2.7957   2.7981   3.1888   3.5805   3.9619
     3.9709   4.3504   4.6503   4.7370   4.7694   5.0345   5.1234   5.1572
     5.2277   5.6063   5.9205   5.9325   6.3066   6.3194   6.5807   6.7471
     6.7732   6.9607   6.9616   7.0774   7.1255   7.1497   7.3430   7.3454
     7.4620   7.7210   7.8827   8.2623   8.3902   8.5160   8.7841   9.0274
     9.3070   9.5037

          k = 0.0454 0.1361-0.4990 ( 21362 PWs)   bands (ev):

    -2.6391  -2.6390  -1.0114  -1.0113  -0.6074  -0.6073  -0.2046  -0.2045
     0.1969   0.1970   0.9979   0.9980   1.3962   1.3964   1.7866   1.7866
     2.1893   2.1894   2.5838   2.5840   3.3638   3.3638   3.7548   3.7549
     4.1444   4.1444   4.5329   4.5329   4.8250   4.8251   5.3298   5.3298
     5.3997   5.3999   5.7170   5.7171   6.4902   6.4902   6.7534   6.7535
     6.8760   6.8761   6.9189   6.9190   6.9471   6.9473   7.1344   7.1345
     7.5178   7.5179   8.0553   8.0554   8.5700   8.5701   9.0557   9.0558
     9.4899   9.4899

          k = 0.0454 0.2268 0.2268 ( 21366 PWs)   bands (ev):

    -3.0115  -1.7859  -1.7859  -0.9747  -0.5709  -0.5706   0.2328   0.2328
     0.2339   0.2339   0.6344   0.6344   1.4313   1.4313   1.4328   1.8298
     2.2247   2.2247   2.6194   2.6194   3.3855   3.3855   3.4049   3.7525
     3.7525   3.8341   3.8341   4.9149   4.9149   5.0555   5.3716   5.6571
     5.6572   5.7596   6.1120   6.1120   6.1882   6.1882   6.5962   6.8082
     6.8082   6.8569   6.8569   7.2403   7.2403   7.3323   7.8422   7.8422
     7.8825   7.8825   8.0838   8.0838   8.7694   8.7694   8.9343   8.9343
     8.9985   9.1507

          k = 0.0454 0.2268 0.3175 ( 21357 PWs)   bands (ev):

    -2.8997  -2.0821  -1.6750  -0.8644  -0.8643  -0.4609  -0.0581   0.3422
     0.3431   0.3433   0.7415   0.7435   1.1417   1.1431   1.5410   1.9356
     2.3325   2.7259   2.7268   3.0982   3.1165   3.1191   3.4911   3.8586
     3.9014   3.9411   4.2692   4.3138   4.6342   5.0373   5.1588   5.3984
     5.8388   5.8639   5.9153   6.1622   6.1978   6.2219   6.2511   6.3217
     6.5776   6.6069   6.7017   6.9611   7.0567   7.1838   7.6706   7.9397
     7.9858   8.1420   8.1908   8.5246   8.5355   8.7163   8.7296   8.7523
     8.9516   9.2528

          k = 0.0454 0.2268 0.4083 ( 21357 PWs)   bands (ev):

    -2.7507  -2.3417  -1.5273  -1.1218  -0.7175  -0.3144  -0.3142   0.0878
     0.4879   0.4891   0.8878   0.8888   0.8891   1.2838   1.2878   2.4645
     2.4731   2.4760   2.8691   2.8697   3.2587   3.2599   3.6425   3.6511
     4.0000   4.3879   4.4196   4.4300   4.4542   4.8028   4.8401   5.2965
     5.5740   5.6043   5.6749   5.9547   5.9905   6.3334   6.3339   6.3889
     6.4389   6.7167   6.7751   6.8157   6.8401   7.1821   7.5309   7.9148
     7.9431   8.0791   8.1222   8.3300   8.4686   8.4824   8.7101   9.0230
     9.1018   9.6201

          k = 0.0454 0.2268-0.4990 ( 21370 PWs)   bands (ev):

    -2.5647  -2.5646  -1.3429  -1.3427  -0.5341  -0.5340  -0.1315  -0.1314
     0.6697   0.6698   0.6710   0.6711   1.0703   1.0704   1.8586   1.8587
     2.6550   2.6551   3.0427   3.0427   3.0474   3.0476   3.8253   3.8253
     4.1764   4.1765   4.2137   4.2137   4.9887   4.9887   5.0133   5.0133
     5.4002   5.4002   5.4685   5.4686   6.1250   6.1251   6.5074   6.5075
     6.6094   6.6095   6.9453   6.9453   7.0071   7.0073   7.3303   7.3303
     8.2559   8.2560   8.2898   8.2899   8.4547   8.4547   8.5029   8.5030
     9.6462   9.6462

          k = 0.0454 0.3175 0.3175 ( 21370 PWs)   bands (ev):

    -2.7879  -1.9709  -1.9709  -1.1586  -0.7542  -0.3510   0.0515   0.0515
     0.4524   0.4524   0.8505   0.8505   0.8528   1.2516   1.6471   1.6471
     2.8332   2.8332   3.2050   3.2050   3.2257   3.2257   3.5958   3.5958
     3.9863   3.9863   4.0487   4.0488   4.3955   5.1188   5.1189   5.2620
     5.5847   5.5847   5.9417   5.9417   6.0159   6.0159   6.3267   6.3267
     6.3550   6.6557   6.6557   6.7413   6.7813   6.8043   7.6828   7.6829
     8.4345   8.6269   8.6269   8.6697   8.6697   8.8306   8.8306   9.0057
     9.0088   9.0088

          k = 0.0454 0.3175 0.4083 ( 21354 PWs)   bands (ev):

    -2.6390  -2.2304  -1.8229  -1.4166  -0.6074  -0.2046  -0.2044   0.1973
     0.1975   0.5981   0.5983   0.9956   0.9978   1.3923   1.3941   2.1857
     2.5720   2.9759   3.3474   3.3579   3.3644   3.3664   3.3672   3.7365
     3.7382   3.7564   4.1905   4.5210   4.5607   4.8840   4.9209   5.3239
     5.3407   5.3997   5.6974   5.7017   5.7096   5.7775   6.0314   6.0817
     6.1864   6.5406   6.8786   6.9356   7.0525   7.2639   7.5556   7.8059
     8.0175   8.1876   8.4006   8.4113   8.8111   8.9629   9.1442   9.1544
     9.1921   9.3571

          k = 0.0454 0.3175-0.4990 ( 21338 PWs)   bands (ev):

    -2.4532  -2.4531  -1.6381  -1.6380  -0.4241  -0.4240  -0.0218  -0.0217
     0.3798   0.3799   0.7799   0.7800   1.1768   1.1769   1.9667   1.9667
     2.7566   2.7566   3.1535   3.1536   3.5251   3.5252   3.5418   3.5419
     3.9303   3.9304   4.3154   4.3154   4.7345   4.7345   5.1192   5.1192
     5.4743   5.4744   5.4914   5.4915   5.5715   5.5716   5.8726   5.8727
     6.3356   6.3357   7.0748   7.0749   7.4334   7.4335   7.8176   7.8177
     7.8702   7.8702   7.9772   7.9773   8.9846   8.9847   9.1208   9.1209
     9.7536   9.7542

          k = 0.0454 0.4083 0.4083 ( 21342 PWs)   bands (ev):

    -2.4903  -2.0821  -2.0821  -1.6750  -0.4607  -0.0583  -0.0581  -0.0581
     0.3432   0.3432   0.3434   0.7436   1.5369   1.5369   1.9337   1.9337
     2.7152   2.7152   3.1083   3.1083   3.5077   3.5077   3.8754   3.8754
     3.8945   3.8945   4.3336   4.3336   4.6389   4.6389   5.0816   5.0816
     5.1057   5.1058   5.4409   5.4647   5.4647   5.5371   5.9125   5.9125
     6.3013   6.5605   6.5605   7.0391   7.4007   7.5831   7.5831   7.7850
     7.8439   7.9429   8.5364   8.5364   8.9186   8.9186   9.3245   9.3245
     9.7078   9.7081

          k = 0.0454 0.4083-0.4990 ( 21364 PWs)   bands (ev):

    -2.3047  -2.3045  -1.8970  -1.8968  -0.2776  -0.2775   0.1242   0.1244
     0.1245   0.1246   0.5252   0.5254   1.7174   1.7175   2.1106   2.1107
     2.5057   2.5058   2.8940   2.8941   3.6819   3.6820   4.0510   4.0511
     4.0680   4.0681   4.4340   4.4340   4.5089   4.5090   4.8762   4.8762
     4.8939   4.8940   5.2579   5.2580   5.7085   5.7086   5.9652   5.9652
     6.1184   6.1185   6.9855   6.9856   7.4946   7.4946   7.7376   7.7378
     7.9540   7.9540   8.3372   8.3372   9.0864   9.0864   9.4677   9.4677
     9.5001   9.5002

          k = 0.0454-0.4990-0.4990 ( 21332 PWs)   bands (ev):

    -2.1193  -2.1191  -2.1191  -2.1190  -0.0948  -0.0947  -0.0947  -0.0946
     0.3066   0.3067   0.3067   0.3068   2.2903   2.2903   2.2903   2.2903
     2.2904   2.2904   2.2904   2.2904   4.2235   4.2235   4.2235   4.2235
     4.2236   4.2236   4.2236   4.2236   4.6868   4.6868   4.6868   4.6869
     4.6869   4.6870   4.6870   4.6870   5.8780   5.8781   5.8781   5.8782
     6.5283   6.5283   6.5283   6.5283   7.5493   7.5493   7.5493   7.5495
     8.5056   8.5056   8.5056   8.5056   8.8879   8.8879   8.8879   8.8879
    10.0477  10.0478

          k = 0.1361 0.1361 0.1361 ( 21380 PWs)   bands (ev):

    -3.1235  -1.4904  -1.4904  -1.4904  -0.2781  -0.2781  -0.2781   0.1245
     0.1245   0.1245   1.3234   1.3234   1.3234   1.3234   1.3234   1.3234
     1.7219   2.5122   2.5122   2.5122   2.9034   2.9034   2.9034   4.1014
     4.1014   4.1014   4.3704   4.3704   4.3704   5.2666   5.9003   5.9003
     5.9004   5.9004   5.9004   5.9004   7.0532   7.0532   7.0532   7.0532
     7.0532   7.0532   7.0657   7.0657   7.0657   7.4481   7.4481   7.4481
     8.5886   8.5886   8.5886   8.5887   8.5916   8.5916   8.5916   8.5916
     8.5916   8.5916

          k = 0.1361 0.1361 0.2268 ( 21354 PWs)   bands (ev):

    -3.0488  -1.8229  -1.4166  -1.4166  -0.2049  -0.2049  -0.2043  -0.2043
     0.1964   0.1975   0.9973   0.9973   1.3958   1.3958   1.3967   1.7925
     1.7925   2.5836   2.5836   2.5839   2.9771   2.9771   3.3503   3.7172
     3.7984   4.4404   4.4404   4.5595   4.5596   5.2635   5.2636   5.5903
     5.5903   5.7248   5.9550   5.9550   6.4432   6.4432   6.8221   7.1289
     7.1289   7.1356   7.1356   7.1357   7.1357   7.4826   7.4827   7.8478
     7.9713   7.9713   8.2796   8.2796   8.3248   8.3248   8.6979   8.6979
     9.0407   9.0407

          k = 0.1361 0.1361 0.3175 ( 21347 PWs)   bands (ev):

    -2.9369  -2.1191  -1.3060  -1.3060  -0.4973  -0.4973  -0.0952  -0.0952
     0.3069   0.7052   0.7068   0.7068   1.1069   1.5043   1.5043   2.2955
     2.2955   2.2972   2.2972   2.6913   3.0625   3.4561   3.4754   3.4754
     3.9051   4.5454   4.5454   4.6212   4.6212   5.0532   5.0532   5.3128
     5.3128   5.7471   5.7471   6.1223   6.1223   6.1869   6.2164   6.8577
     6.8577   7.2354   7.2354   7.2402   7.2402   7.3409   7.3409   7.8328
     7.8329   8.0019   8.0019   8.1904   8.1904   8.4904   8.6955   8.8186
     8.8186   9.5233

          k = 0.1361 0.1361 0.4083 ( 21361 PWs)   bands (ev):

    -2.7879  -2.3788  -1.1586  -1.1586  -0.7541  -0.7541   0.0509   0.0509
     0.4521   0.4521   0.4527   0.8529   1.2476   1.6489   1.6489   2.0455
     2.0455   2.4286   2.8315   2.8315   2.8342   3.2234   3.9971   3.9971
     4.0059   4.0059   4.4186   4.6853   4.6853   5.0692   5.0692   5.1543
     5.1543   5.5691   5.5801   5.5802   6.2376   6.2376   6.6148   6.6149
     6.7270   6.7271   6.7405   7.3755   7.3755   7.3781   7.3781   7.7362
     7.7362   7.7587   7.7587   7.8805   8.5639   8.5639   8.9665   8.9665
     9.3586   9.3586

          k = 0.1361 0.1361-0.4990 ( 21356 PWs)   bands (ev):

    -2.6019  -2.6018  -0.9747  -0.9746  -0.9746  -0.9745   0.2333   0.2334
     0.2334   0.2335   0.6347   0.6348   1.8226   1.8226   1.8293   1.8293
     1.8294   1.8294   3.0121   3.0122   3.3993   3.3993   3.3993   3.3993
     4.5668   4.5669   4.5669   4.5669   4.8598   4.8598   4.8599   4.8599
     4.9779   4.9779   6.1388   6.1388   6.1388   6.1388   6.4074   6.4075
     6.4076   6.4076   7.2959   7.2959   7.5469   7.5469   7.5470   7.5470
     7.5498   7.5498   7.5499   7.5499   9.0941   9.0941   9.0941   9.0941
     9.1459   9.1460

          k = 0.1361 0.2268 0.2268 ( 21363 PWs)   bands (ev):

    -2.9742  -1.7489  -1.7489  -1.3428  -0.5339  -0.1318  -0.1312  -0.1312
     0.2693   0.2693   1.0698   1.0699   1.0707   1.4675   1.4675   1.8647
     1.8647   2.2613   3.0453   3.0453   3.0484   3.0485   3.4403   3.7879
     3.7879   4.2434   4.2435   4.5104   4.9495   4.9495   5.0184   5.3293
     5.3293   5.6568   5.6568   6.1819   6.5069   6.5069   6.5079   6.5079
     6.8231   6.8723   6.8724   7.2050   7.5719   7.5719   7.6578   7.6578
     7.9165   7.9165   8.4052   8.4052   8.4221   8.4221   8.7289   8.7290
     9.0520   9.0520

          k = 0.1361 0.2268 0.3175 ( 21344 PWs)   bands (ev):

    -2.8624  -2.0450  -1.6381  -1.2323  -0.8275  -0.4240  -0.0221  -0.0215
     0.3786   0.7778   0.7795   0.7803   1.1779   1.1786   1.9717   1.9728
     1.9736   2.3673   2.7619   3.1338   3.1552   3.5254   3.5461   3.8940
     3.9364   3.9777   4.3042   4.6153   4.6691   4.6901   4.7358   5.3813
     5.4129   5.5114   5.7464   5.8716   5.8940   6.2288   6.2603   6.5455
     6.6105   6.6724   7.0262   7.3077   7.3285   7.3788   7.6824   7.7934
     8.0185   8.0367   8.1574   8.4514   8.5146   8.7623   8.8192   8.9061
     8.9409   9.2117

          k = 0.1361 0.2268 0.4083 ( 21352 PWs)   bands (ev):

    -2.7134  -2.3046  -1.4904  -1.0850  -1.0849  -0.6807   0.1240   0.1246
     0.5243   0.5249   0.5256   0.9241   1.3200   1.3235   1.7212   2.1168
     2.5003   2.5090   2.5118   2.9030   3.2968   3.6668   3.6779   4.0352
     4.0673   4.0754   4.1188   4.4230   4.4640   4.7550   5.1384   5.1986
     5.2534   5.2629   5.5823   5.6311   5.9508   5.9855   6.0372   6.3034
     6.4113   6.7500   7.1344   7.1812   7.1952   7.4413   7.6698   7.8241
     8.0903   8.1519   8.2081   8.3324   8.3990   8.6574   8.7410   9.0460
     9.0623   9.4225

          k = 0.1361 0.2268-0.4990 ( 21350 PWs)   bands (ev):

    -2.5275  -2.5274  -1.3060  -1.3059  -0.9011  -0.9010   0.3063   0.3064
     0.3070   0.3071   0.7061   0.7062   1.5044   1.5045   1.8947   1.8947
     2.2965   2.2966   3.0784   3.0784   3.4703   3.4703   3.4716   3.4717
     4.2116   4.2117   4.6328   4.6328   4.6636   4.6636   4.9294   4.9295
     5.0196   5.0196   5.7802   5.7803   5.8222   5.8222   6.0989   6.0990
     6.5945   6.5945   6.9247   6.9248   7.5948   7.5949   7.7493   7.7493
     7.9990   7.9991   8.3083   8.3084   8.5048   8.5048   8.8344   8.8345
     9.1768   9.1768

          k = 0.1361 0.3175 0.3175 ( 21350 PWs)   bands (ev):

    -2.7507  -1.9339  -1.9339  -1.1218  -1.1217  -0.3141  -0.3141   0.0874
     0.4893   0.8868   0.8868   0.8885   0.8885   1.6832   1.6832   1.6851
     2.4750   2.4750   3.2406   3.2406   3.2577   3.2577   3.6516   3.6516
     4.0216   4.0216   4.4296   4.4559   4.4559   4.7201   4.7911   4.7911
     5.4826   5.4826   5.5921   5.5921   5.9804   5.9804   6.0032   6.2687
     6.7235   6.7235   6.7461   6.7461   7.1615   7.4060   8.1602   8.1602
     8.2468   8.2468   8.2790   8.2790   8.8605   8.8605   8.9343   8.9343
     9.0123   9.0452

          k = 0.1361 0.3175 0.4083 ( 21375 PWs)   bands (ev):

    -2.6018  -2.1933  -1.7859  -1.3797  -0.9746  -0.5706  -0.1677   0.2334
     0.2341   0.6341   1.0319   1.0336   1.4285   1.4302   1.4321   2.2217
     2.6078   2.6184   3.0100   3.0108   3.3830   3.3934   3.7700   3.7736
     3.7899   4.1720   4.1774   4.2278   4.8596   4.9090   4.9518   4.9756
     4.9815   5.2418   5.3508   5.3859   5.6072   6.0295   6.1169   6.1304
     6.1325   6.5009   6.5276   7.2102   7.5240   7.6685   7.6830   8.0323
     8.3052   8.3829   8.4621   8.6590   8.6909   8.7672   8.7970   8.8173
     8.9827   9.4500

          k = 0.1361 0.3175-0.4990 ( 21368 PWs)   bands (ev):

    -2.4160  -2.4159  -1.6012  -1.6011  -0.7909  -0.7908   0.0150   0.0151
     0.4156   0.4157   1.2130   1.2131   1.2149   1.2150   2.0027   2.0027
     2.7924   2.7924   2.7971   2.7972   3.5606   3.5607   3.5765   3.5765
     3.9471   3.9472   4.4019   4.4019   4.7141   4.7142   5.0336   5.0337
     5.1650   5.1651   5.4821   5.4821   5.5408   5.5408   5.8473   5.8474
     6.2909   6.2911   7.0834   7.0834   7.5683   7.5684   8.0137   8.0138
     8.2356   8.2356   8.4814   8.4815   8.5570   8.5571   9.0480   9.0480
     9.3461   9.3461

          k = 0.1361 0.4083 0.4083 ( 21356 PWs)   bands (ev):

    -2.4531  -2.0450  -2.0450  -1.6381  -0.8276  -0.4240  -0.4240  -0.0215
     0.3792   0.7795   0.7795   1.1787   1.5730   1.5730   1.9698   1.9698
     2.7510   2.7510   3.1440   3.1440   3.1525   3.1525   3.5400   3.5400
     4.2965   4.2965   4.3092   4.3092   4.7380   4.7380   4.7521   4.7521
     4.9987   5.3780   5.3780   5.4485   5.5039   5.5039   5.8128   5.8849
     5.8849   6.6298   6.6298   7.0506   7.5342   7.9864   8.1475   8.1475
     8.1882   8.1882   8.2031   8.5232   8.8166   8.8166   9.2063   9.2063
     9.3190   9.3343

          k = 0.1361 0.4083-0.4990 ( 21388 PWs)   bands (ev):

    -2.2675  -2.2674  -1.8600  -1.8598  -0.6440  -0.6439  -0.2409  -0.2408
     0.5613   0.5614   0.9610   0.9612   1.7534   1.7535   2.1466   2.1466
     2.5416   2.5416   2.9297   2.9298   3.3297   3.3298   3.7174   3.7174
     4.0831   4.0832   4.4636   4.4637   4.5475   4.5476   4.9348   4.9348
     5.1720   5.1721   5.2954   5.2954   5.5376   5.5377   5.6752   5.6754
     6.0675   6.0675   7.1485   7.1485   7.6047   7.6048   7.9674   7.9676
     8.3155   8.3156   8.7389   8.7390   8.7542   8.7542   8.9958   8.9959
     9.3487   9.3487

          k = 0.1361-0.4990-0.4990 ( 21376 PWs)   bands (ev):

    -2.0822  -2.0821  -2.0821  -2.0820  -0.4607  -0.4606  -0.4606  -0.4605
     0.7431   0.7432   0.7432   0.7433   2.3262   2.3262   2.3262   2.3262
     2.3263   2.3263   2.3264   2.3264   3.8910   3.8910   3.8910   3.8910
     3.8911   3.8911   3.8911   3.8911   5.0881   5.0881   5.0881   5.0881
     5.0882   5.0882   5.0882   5.0882   5.3430   5.3431   5.3431   5.3432
     6.5981   6.5981   6.5981   6.5981   8.1138   8.1139   8.1139   8.1140
     8.1572   8.1572   8.1572   8.1573   9.3038   9.3038   9.3039   9.3040
     9.5399   9.5400

          k = 0.2268 0.2268 0.2268 ( 21353 PWs)   bands (ev):

    -2.8997  -1.6750  -1.6750  -1.6750  -0.4606  -0.4606  -0.4606   0.3422
     0.3422   0.3422   0.7440   1.5398   1.5398   1.5398   1.5398   1.5398
     1.5398   2.7261   2.7262   2.7262   3.5110   3.5110   3.5110   3.8586
     3.8586   3.8586   4.7009   4.7009   4.7009   5.0181   5.0181   5.0181
     5.0181   5.0181   5.0181   6.1939   6.1939   6.1939   6.6381   6.9512
     6.9512   6.9512   6.9512   6.9512   6.9512   7.9837   7.9837   7.9837
     8.1090   8.1090   8.1090   8.1090   8.1090   8.1090   9.1543   9.1543
     9.1543   9.1543

          k = 0.2268 0.2268 0.3175 ( 21368 PWs)   bands (ev):

    -2.7879  -1.9709  -1.5642  -1.5642  -0.7541  -0.7541  -0.3507   0.4515
     0.4515   0.4529   0.8505   1.2504   1.2504   1.6482   1.6482   2.0437
     2.0437   2.4401   2.4401   3.2050   3.2222   3.6165   3.9646   3.9646
     4.0059   4.0060   4.3742   4.3742   4.4209   4.7387   4.7387   5.1190
     5.1190   5.1939   5.1939   5.5570   5.9156   5.9156   6.3247   6.3248
     7.0593   7.0593   7.1273   7.4269   7.4270   7.4791   7.4792   7.8302
     7.8302   8.0822   8.0822   8.5933   8.5933   8.8260   8.8957   8.8957
     9.2718   9.2718

          k = 0.2268 0.2268 0.4083 ( 21359 PWs)   bands (ev):

    -2.6390  -2.2304  -1.4166  -1.4166  -1.0114  -1.0113  -0.2043   0.1977
     0.5971   0.5971   0.9967   0.9967   1.3923   1.7926   1.7926   2.1888
     2.1888   2.5720   2.5807   2.5807   3.7348   3.7487   3.7487   3.7550
     4.1058   4.1058   4.1925   4.4931   4.4931   4.5301   4.5301   4.9402
     5.2384   5.2384   5.6753   5.6753   5.7203   5.7203   5.7311   5.7311
     6.8659   6.8660   7.2005   7.2006   7.5858   7.5858   7.6490   7.9176
     7.9176   8.2031   8.2031   8.6841   8.6841   8.7835   9.1101   9.1101
     9.1476   9.1476

          k = 0.2268 0.2268-0.4990 ( 21356 PWs)   bands (ev):

    -2.4532  -2.4531  -1.2323  -1.2323  -1.2322  -1.2322  -0.0215  -0.0214
     0.7788   0.7788   0.7789   0.7789   1.9667   1.9667   1.9728   1.9728
     1.9729   1.9729   3.1497   3.1497   3.1497   3.1497   3.9124   3.9125
     4.2819   4.2820   4.2821   4.2821   4.3661   4.3661   5.0637   5.0637
     5.0637   5.0637   5.4916   5.4917   5.4917   5.4918   6.2783   6.2783
     6.2783   6.2784   7.3759   7.3759   7.3760   7.3760   8.2017   8.2017
     8.2677   8.2677   8.2677   8.2678   8.6767   8.6768   8.6768   8.6768
     9.5952   9.5953

          k = 0.2268 0.3175 0.3175 ( 21375 PWs)   bands (ev):

    -2.6762  -1.8599  -1.8599  -1.4535  -1.0481  -0.6439  -0.6439   0.1612
     0.5607   0.9593   0.9593   1.3590   1.3590   1.7554   1.7554   2.1517
     2.1517   2.1528   2.9394   2.9394   3.3118   3.3118   4.0705   4.0920
     4.0920   4.1081   4.1081   4.4785   4.4785   4.4957   4.8425   4.8425
     4.9123   4.9123   5.2804   5.2804   5.6403   5.6862   6.4288   6.4288
     6.8038   6.8038   7.1994   7.1994   7.5406   7.5406   7.6154   7.9653
     7.9653   8.1680   8.3148   8.3148   8.9130   8.9130   9.0030   9.0030
     9.1311   9.7182

          k = 0.2268 0.3175 0.4083 ( 21367 PWs)   bands (ev):

    -2.5275  -2.1191  -1.7120  -1.3060  -1.3059  -0.9010  -0.4972  -0.0945
     0.7062   1.1044   1.1055   1.5008   1.5026   1.5037   1.9008   2.2936
     2.2955   2.6794   2.6882   2.6898   3.4540   3.4645   3.4690   3.8444
     3.8546   4.2115   4.2276   4.5980   4.6116   4.6151   4.6686   4.6810
     4.9787   4.9959   5.0593   5.4217   5.4386   5.8181   6.1974   6.2113
     6.5688   6.5854   6.9543   7.3128   7.3538   7.6840   8.0505   8.0705
     8.1357   8.2000   8.4837   8.6326   8.7711   8.8318   8.9506   9.1442
     9.2674   9.3483

          k = 0.2268 0.3175-0.4990 ( 21378 PWs)   bands (ev):

    -2.3418  -2.3417  -1.5273  -1.5272  -1.1218  -1.1217  -0.3141  -0.3140
     0.8877   0.8879   1.2855   1.2856   1.6843   1.6844   2.0747   2.0747
     2.4749   2.4750   2.8639   2.8639   3.2565   3.2565   3.6316   3.6317
     4.0129   4.0129   4.3873   4.3875   4.4775   4.4776   4.7689   4.7690
     5.1335   5.1336   5.2508   5.2509   5.6315   5.6315   5.9971   5.9971
     6.7440   6.7441   6.7678   6.7679   7.8331   7.8331   7.8602   7.8604
     8.5742   8.5742   8.5933   8.5934   8.6870   8.6870   9.0334   9.0334
     9.3799   9.3800

          k = 0.2268 0.4083 0.4083 ( 21392 PWs)   bands (ev):

    -2.3789  -1.9709  -1.9709  -1.5642  -1.1586  -0.7541  -0.7541  -0.3506
     0.8515   1.2504   1.2504   1.6452   1.6452   1.6483   2.0418   2.0418
     2.8225   2.8225   2.8312   2.8313   3.2152   3.2152   3.2228   3.2228
     3.9950   3.9950   4.3522   4.3585   4.3585   4.7371   4.7371   4.8312
     4.8312   5.0986   5.1929   5.1929   5.5980   5.9549   5.9549   6.3397
     6.3397   6.7107   6.7107   6.7349   7.8036   7.8740   7.8740   8.1987
     8.1987   8.5621   8.5874   8.5874   8.6546   8.9056   8.9057   9.0062
     9.2965   9.2965

          k = 0.2268 0.4083-0.4990 ( 21390 PWs)   bands (ev):

    -2.1934  -2.1932  -1.7860  -1.7859  -0.9746  -0.9745  -0.5706  -0.5705
     1.0329   1.0330   1.4314   1.4315   1.8256   1.8257   2.2185   2.2185
     2.6133   2.6133   3.0011   3.0012   3.0096   3.0097   3.3985   3.3986
     3.7848   3.7848   4.1678   4.1679   4.5275   4.5276   4.9084   4.9085
     4.9853   4.9854   5.3696   5.3696   5.7512   5.7512   6.1293   6.1294
     6.1325   6.1325   7.2527   7.2527   7.2898   7.2898   8.3766   8.3767
     8.4255   8.4255   8.7061   8.7062   8.7409   8.7410   9.0782   9.0783
     9.1354   9.1354

          k = 0.2268-0.4990-0.4990 ( 21392 PWs)   bands (ev):

    -2.0081  -2.0080  -2.0080  -2.0079  -0.7909  -0.7908  -0.7908  -0.7907
     1.2141   1.2142   1.2142   1.2143   2.3980   2.3980   2.3980   2.3980
     2.3981   2.3981   2.3982   2.3982   3.5752   3.5752   3.5752   3.5752
     3.5753   3.5753   3.5753   3.5753   4.7018   4.7019   4.7019   4.7020
     5.5412   5.5412   5.5412   5.5413   5.5413   5.5413   5.5413   5.5413
     6.6791   6.6792   6.6792   6.6792   7.8430   7.8430   7.8430   7.8431
     8.8725   8.8726   8.8727   8.9230   8.9232   8.9232   8.9232   8.9233
     8.9233   8.9233

          k = 0.3175 0.3175 0.3175 ( 21386 PWs)   bands (ev):

    -2.5646  -1.7489  -1.7489  -1.7489  -0.9378  -0.9378  -0.9378  -0.1311
     1.0681   1.0681   1.0682   1.8636   1.8636   1.8636   1.8636   1.8636
     1.8636   2.6540   2.6540   2.6540   3.4185   3.4185   3.4185   4.1975
     4.1975   4.1975   4.1975   4.1975   4.1975   4.5774   4.5774   4.5774
     5.0240   5.0240   5.0240   5.4044   5.4044   5.4044   6.9126   6.9126
     6.9126   6.9126   6.9126   6.9126   7.6858   7.6858   7.6858   7.6858
     7.6858   7.6858   8.1022   8.9171   8.9171   8.9171   9.3311   9.3311
     9.3311   9.8332

          k = 0.3175 0.3175 0.4083 ( 21366 PWs)   bands (ev):

    -2.4160  -2.0080  -1.6011  -1.6011  -1.1954  -1.1954  -0.7908  -0.3873
     1.2131   1.2131   1.6091   1.6110   1.6110   2.0077   2.0077   2.4013
     2.4013   2.4032   2.4032   2.7867   3.1872   3.5606   3.5606   3.5710
     3.5710   3.9504   3.9504   4.3234   4.3372   4.3373   4.6989   4.6990
     4.7966   5.1586   5.1827   5.1827   5.9298   5.9298   6.3017   6.3017
     7.0544   7.0544   7.0736   7.0736   7.4280   7.4280   7.4409   7.4409
     8.2046   8.2046   8.5220   8.5220   8.6212   9.2587   9.2587   9.2739
     9.3339   9.3339

          k = 0.3175 0.3175-0.4990 ( 21390 PWs)   bands (ev):

    -2.2304  -2.2303  -1.4166  -1.4166  -1.4165  -1.4165  -0.6073  -0.6072
     1.3940   1.3940   1.3941   1.3942   2.1825   2.1826   2.1876   2.1876
     2.1877   2.1877   2.9711   2.9711   2.9711   2.9711   3.7379   3.7379
     3.7380   3.7380   3.7493   3.7493   4.5093   4.5093   4.5094   4.5094
     4.9509   4.9510   5.7188   5.7189   5.7189   5.7189   6.4869   6.4870
     6.4870   6.4870   7.2304   7.2304   7.2305   7.2305   7.9701   7.9702
     7.9702   7.9702   8.7546   8.7546   8.7547   8.7547   9.1712   9.1712
     9.4024   9.4025

          k = 0.3175 0.4083 0.4083 ( 21390 PWs)   bands (ev):

    -2.2675  -1.8599  -1.8599  -1.4535  -1.4534  -1.0481  -1.0481  -0.6439
     1.3579   1.7535   1.7535   1.7554   1.7554   2.1498   2.1498   2.1517
     2.5448   2.5448   2.9297   2.9297   2.9382   2.9382   3.3220   3.3220
     3.7025   3.7125   3.7125   4.0913   4.0913   4.0971   4.0971   4.4741
     5.3018   5.3018   5.6837   5.6837   5.6855   6.4419   6.4420   6.4539
     6.8199   6.8199   6.8281   6.8281   7.5722   7.5722   7.5943   7.5943
     7.9419   7.9598   7.9598   8.6925   8.6925   8.7273   9.0887   9.0887
     9.1388   9.3709

          k = 0.3175 0.4083-0.4990 ( 21370 PWs)   bands (ev):

    -2.0821  -2.0820  -1.6751  -1.6750  -1.2691  -1.2690  -0.8643  -0.8642
     1.5387   1.5388   1.9337   1.9338   1.9356   1.9357   2.3263   2.3263
     2.7207   2.7207   2.7238   2.7239   3.1082   3.1083   3.1137   3.1138
     3.5041   3.5042   3.8794   3.8795   3.8885   3.8887   4.2665   4.2666
     5.4736   5.4737   5.8558   5.8558   6.2369   6.2369   6.2411   6.2411
     6.6174   6.6176   7.0094   7.0094   7.3684   7.3685   7.7490   7.7491
     8.1197   8.1197   8.1462   8.1462   8.5098   8.5098   8.8759   8.8760
     9.5359   9.5360

          k = 0.3175-0.4990-0.4990 ( 21360 PWs)   bands (ev):

    -1.8970  -1.8969  -1.8969  -1.8968  -1.0850  -1.0849  -1.0849  -1.0848
     1.7192   1.7193   1.7193   1.7194   2.5056   2.5056   2.5057   2.5057
     2.5058   2.5058   2.5058   2.5058   3.2916   3.2916   3.2916   3.2916
     3.2917   3.2917   3.2917   3.2917   4.0558   4.0559   4.0559   4.0560
     6.0304   6.0304   6.0304   6.0305   6.0305   6.0305   6.0306   6.0306
     6.7884   6.7884   6.7884   6.7884   7.5631   7.5632   7.5632   7.5632
     8.2984   8.2984   8.2984   8.2984   8.2985   8.2985   8.2985   8.2985
     9.7069   9.7070

          k = 0.4083 0.4083 0.4083 ( 21371 PWs)   bands (ev):

    -2.1191  -1.7120  -1.7120  -1.7120  -1.3059  -1.3059  -1.3059  -0.9010
     1.8977   1.8977   1.8977   2.2935   2.2935   2.2935   2.2935   2.2936
     2.2936   2.6880   2.6880   2.6880   3.0725   3.0725   3.0725   3.4642
     3.4642   3.4642   3.4642   3.4642   3.4642   3.8531   3.8531   3.8531
     5.8225   5.8225   5.8225   6.2079   6.2079   6.2079   6.9620   6.9620
     6.9620   6.9620   6.9620   6.9620   7.3490   7.3490   7.3490   7.3490
     7.3490   7.3490   8.0918   8.0918   8.0918   8.4822   8.4822   8.4822
     9.6551  10.2471

          k = 0.4083 0.4083-0.4990 ( 21370 PWs)   bands (ev):

    -1.9340  -1.9339  -1.5273  -1.5273  -1.5272  -1.5272  -1.1218  -1.1217
     2.0777   2.0778   2.0778   2.0779   2.4698   2.4698   2.4730   2.4730
     2.4731   2.4731   2.8638   2.8638   2.8638   2.8638   3.2507   3.2507
     3.2508   3.2508   3.2560   3.2560   3.6414   3.6414   3.6415   3.6415
     5.9972   5.9973   6.3773   6.3773   6.3773   6.3773   6.7637   6.7637
     6.7638   6.7638   7.1382   7.1382   7.1383   7.1383   7.5129   7.5130
     7.5130   7.5130   7.9011   7.9011   7.9011   7.9011   8.2707   8.2708
    10.2022  10.4152

          k = 0.4083-0.4990-0.4990 ( 21404 PWs)   bands (ev):

    -1.7491  -1.7489  -1.7489  -1.7488  -1.3429  -1.3428  -1.3428  -1.3427
     2.2575   2.2576   2.2576   2.2577   2.6490   2.6490   2.6490   2.6490
     2.6491   2.6491   2.6491   2.6491   3.0423   3.0423   3.0423   3.0423
     3.0424   3.0424   3.0424   3.0424   3.4285   3.4286   3.4286   3.4287
     6.5529   6.5529   6.5529   6.5529   6.5530   6.5530   6.5530   6.5530
     6.9306   6.9306   6.9306   6.9306   7.3178   7.3178   7.3178   7.3178
     7.6901   7.6901   7.6901   7.6901   7.6902   7.6902   7.6902   7.6902
    10.5881  10.5883

          k =-0.4990-0.4990-0.4990 ( 21368 PWs)   bands (ev):

    -1.5643  -1.5643  -1.5643  -1.5643  -1.5641  -1.5641  -1.5641  -1.5640
     2.8279   2.8279   2.8279   2.8279   2.8279   2.8280   2.8280   2.8280
     2.8280   2.8280   2.8280   2.8280   2.8280   2.8280   2.8280   2.8280
     2.8280   2.8280   2.8281   2.8281   2.8281   2.8281   2.8281   2.8281
     7.1069   7.1069   7.1069   7.1069   7.1069   7.1069   7.1069   7.1069
     7.1069   7.1069   7.1069   7.1069   7.1070   7.1070   7.1070   7.1070
     7.1070   7.1070   7.1070   7.1070   7.1070   7.1070   7.1070   7.1070
    11.2920  11.2921

     the Fermi energy is     7.8663 ev

!    total energy              =   -1264.08717304 Ry
     Harris-Foulkes estimate   =   -1264.08717338 Ry
     estimated scf accuracy    <       0.00000080 Ry

     total all-electron energy =    -15540.656195 Ry

     The total energy is the sum of the following terms:

     one-electron contribution =     100.87369889 Ry
     hartree contribution      =       0.19586481 Ry
     xc contribution           =     -82.83248831 Ry
     ewald contribution        =    -172.65520771 Ry
     one-center paw contrib.   =   -1109.66620753 Ry
     smearing contrib. (-TS)   =      -0.00283318 Ry

     convergence has been achieved in   9 iterations

     Forces acting on atoms (cartesian axes, Ry/au):

     atom    1 type  1   force =     0.00000000    0.00000000    0.00000000
     atom    2 type  1   force =     0.00001303    0.00001303   -0.00000000
     atom    3 type  1   force =     0.00001303   -0.00000000    0.00001303
     atom    4 type  1   force =    -0.00000000    0.00001303    0.00001303
     atom    5 type  1   force =     0.00000000   -0.00000000    0.00000000
     atom    6 type  1   force =     0.00000824    0.00000824    0.00000000
     atom    7 type  1   force =     0.00001303    0.00000000   -0.00001303
     atom    8 type  1   force =     0.00000000    0.00001303   -0.00001303
     atom    9 type  1   force =     0.00000000    0.00000000    0.00000000
     atom   10 type  1   force =     0.00001303   -0.00001303   -0.00000000
     atom   11 type  1   force =     0.00000824    0.00000000    0.00000824
     atom   12 type  1   force =    -0.00000000   -0.00001303    0.00001303
     atom   13 type  1   force =     0.00000000    0.00000000    0.00000000
     atom   14 type  1   force =     0.00000824   -0.00000824   -0.00000000
     atom   15 type  1   force =     0.00000824   -0.00000000   -0.00000824
     atom   16 type  1   force =     0.00000000   -0.00001303   -0.00001303
     atom   17 type  1   force =     0.00000000    0.00000000    0.00000000
     atom   18 type  1   force =    -0.00001303    0.00001303   -0.00000000
     atom   19 type  1   force =    -0.00001303    0.00000000    0.00001303
     atom   20 type  1   force =     0.00000000    0.00000824    0.00000824
     atom   21 type  1   force =     0.00000000   -0.00000000    0.00000000
     atom   22 type  1   force =    -0.00000824    0.00000824   -0.00000000
     atom   23 type  1   force =    -0.00001303   -0.00000000   -0.00001303
     atom   24 type  1   force =     0.00000000    0.00000824   -0.00000824
     atom   25 type  1   force =     0.00000000    0.00000000    0.00000000
     atom   26 type  1   force =    -0.00001303   -0.00001303   -0.00000000
     atom   27 type  1   force =    -0.00000824   -0.00000000    0.00000824
     atom   28 type  1   force =     0.00000000   -0.00000824    0.00000824
     atom   29 type  1   force =     0.00000000    0.00000000    0.00000000
     atom   30 type  1   force =    -0.00000824   -0.00000824    0.00000000
     atom   31 type  1   force =    -0.00000824   -0.00000000   -0.00000824
     atom   32 type  1   force =     0.00000000   -0.00000824   -0.00000824

     Total force =     0.000076     Total SCF correction =     0.000549
     SCF correction compared to forces is large: reduce conv_thr to get better values


     Computing stress (Cartesian axis) and pressure

          total   stress  (Ry/bohr**3)                   (kbar)     P=   -4.52
  -0.00003071   0.00000000   0.00000000         -4.52      0.00      0.00
   0.00000000  -0.00003071   0.00000000          0.00     -4.52      0.00
   0.00000000   0.00000000  -0.00003071          0.00      0.00     -4.52


     Writing output data file BwcqkleagHSzUcpp.save/
 
     init_run     :      6.57s CPU      6.76s WALL (       1 calls)
     electrons    :    102.46s CPU    104.74s WALL (       1 calls)
     forces       :      1.17s CPU      1.23s WALL (       1 calls)
     stress       :      6.12s CPU      6.15s WALL (       1 calls)

     Called by init_run:
     wfcinit      :      6.17s CPU      6.33s WALL (       1 calls)
     potinit      :      0.08s CPU      0.09s WALL (       1 calls)
     hinit0       :      0.21s CPU      0.23s WALL (       1 calls)

     Called by electrons:
     c_bands      :     89.41s CPU     91.30s WALL (      10 calls)
     sum_band     :     12.30s CPU     12.61s WALL (      10 calls)
     v_of_rho     :      0.11s CPU      0.12s WALL (      10 calls)
     newd         :      0.08s CPU      0.12s WALL (      10 calls)
     PAW_pot      :      0.58s CPU      0.58s WALL (      10 calls)
     mix_rho      :      0.02s CPU      0.03s WALL (      10 calls)

     Called by c_bands:
     init_us_2    :      1.92s CPU      1.95s WALL (    1288 calls)
     cegterg      :     84.22s CPU     85.75s WALL (     560 calls)

     Called by sum_band:
     sum_band:bec :      0.05s CPU      0.06s WALL (     560 calls)
     addusdens    :      0.06s CPU      0.10s WALL (      10 calls)

     Called by *egterg:
     h_psi        :     61.71s CPU     62.98s WALL (    2252 calls)
     s_psi        :      5.03s CPU      5.05s WALL (    2252 calls)
     g_psi        :      0.23s CPU      0.23s WALL (    1636 calls)
     cdiaghg      :     11.97s CPU     12.02s WALL (    2140 calls)

     Called by h_psi:
     h_psi:pot    :     61.32s CPU     62.59s WALL (    2252 calls)
     h_psi:calbec :      5.07s CPU      5.40s WALL (    2252 calls)
     vloc_psi     :     51.11s CPU     52.03s WALL (    2252 calls)
     add_vuspsi   :      5.13s CPU      5.15s WALL (    2252 calls)

     General routines
     calbec       :      8.62s CPU      9.12s WALL (    3092 calls)
     fft          :      0.28s CPU      0.31s WALL (     137 calls)
     ffts         :      0.01s CPU      0.01s WALL (      10 calls)
     fftw         :     56.21s CPU     57.19s WALL (  219012 calls)
 
     Parallel routines
     fft_scatt_xy :      5.18s CPU      5.27s WALL (  219159 calls)
     fft_scatt_yz :     33.45s CPU     34.07s WALL (  219159 calls)
 
     PWSCF        :  1m57.81s CPU     2m 4.00s WALL

 
   This run was terminated on:   3:26:11  25Mar2020            

=------------------------------------------------------------------------------=
   JOB DONE.
=------------------------------------------------------------------------------=
