
     Program PWSCF v.6.3 starts on 25Mar2020 at  3:28: 2 

     This program is part of the open-source Quantum ESPRESSO suite
     for quantum simulation of materials; please cite
         "P. Giannozzi et al., J. Phys.:Condens. Matter 21 395502 (2009);
         "P. Giannozzi et al., J. Phys.:Condens. Matter 29 465901 (2017);
          URL http://www.quantum-espresso.org", 
     in publications or presentations arising from this work. More details at
     http://www.quantum-espresso.org/quote

     Parallel version (MPI & OpenMP), running on      20 processor cores
     Number of MPI processes:                20
     Threads/MPI process:                     1

     MPI processes distributed on     1 nodes
     R & G space division:  proc/nbgrp/npool/nimage =      20
     Reading input from /rds/homes/b/bxp912/jobs/20200324_al_eos_e/wd/pwscf_eos/eos_10.in
Warning: card &IONS ignored
Warning: card ION_DYNAMICS = 'BFGS', ignored
Warning: card / ignored
Warning: card &CELL ignored
Warning: card CELL_DYNAMICS = 'BFGS', ignored
Warning: card CELL_FACTOR = 2.0, ignored
Warning: card PRESS = 0.0, ignored
Warning: card / ignored

     Current dimensions of program PWSCF are:
     Max number of different atomic species (ntypx) = 10
     Max number of k-points (npk) =  40000
     Max angular momentum in pseudopotentials (lmaxx) =  3
     Message from routine read_upf::
     Pseudo file /rds/homes/b/bxp912/pp/Al.pbe-nl-kjpaw_psl.1.0.0.UPF has been successfully fixed on the fly.
To avoid this message in the future you can permanently fix 
 your pseudo files following instructions given in: 
https://gitlab.com/QEF/q-e/blob/master/upftools/how_to_fix_upf.md
               file Al.pbe-nl-kjpaw_psl.1.0.0.UPF: wavefunction(s)  3S 3P renormalized

     Subspace diagonalization in iterative solution of the eigenvalue problem:
     a serial algorithm will be used

     Found symmetry operation: I + (  0.2500  0.2500  0.0000)
     This is a supercell, fractional translations are disabled
 
     Parallelization info
     --------------------
     sticks:   dense  smooth     PW     G-vecs:    dense   smooth      PW
     Min         186     186     52                 8591     8591    1244
     Max         188     188     53                 8593     8593    1246
     Sum        3745    3745   1041               171837   171837   24885
 


     bravais-lattice index     =            0
     lattice parameter (alat)  =      15.2652  a.u.
     unit-cell volume          =    3600.0224 (a.u.)^3
     number of atoms/cell      =           32
     number of atomic types    =            1
     number of electrons       =        96.00
     number of Kohn-Sham states=           58
     kinetic-energy cutoff     =      50.0000  Ry
     charge density cutoff     =     200.0000  Ry
     convergence threshold     =      1.0E-06
     mixing beta               =       0.1000
     number of iterations used =           10  plain     mixing
     Exchange-correlation      = SLA PW PBX PBC ( 1  4  3  4 0 0)

     celldm(1)=  15.265160  celldm(2)=   0.000000  celldm(3)=   0.000000
     celldm(4)=   0.000000  celldm(5)=   0.000000  celldm(6)=   0.000000

     crystal axes: (cart. coord. in units of alat)
               a(1) = (   1.004000   0.000000   0.000000 )  
               a(2) = (   0.000000   1.004000   0.000000 )  
               a(3) = (   0.000000   0.000000   1.004000 )  

     reciprocal axes: (cart. coord. in units 2 pi/alat)
               b(1) = (  0.996016  0.000000  0.000000 )  
               b(2) = (  0.000000  0.996016  0.000000 )  
               b(3) = (  0.000000  0.000000  0.996016 )  


     PseudoPot. # 1 for Al read from file:
     /rds/homes/b/bxp912/pp/Al.pbe-nl-kjpaw_psl.1.0.0.UPF
     MD5 check sum: 339dbea23cf3ab9a065ad45c0f9085d7
     Pseudo is Projector augmented-wave + core cor, Zval =  3.0
     Generated using "atomic" code by A. Dal Corso v.5.1
     Shape of augmentation charge: PSQ
     Using radial grid of 1135 points,  4 beta functions with: 
                l(1) =   0
                l(2) =   0
                l(3) =   1
                l(4) =   1
     Q(r) pseudized with 0 coefficients 


     atomic species   valence    mass     pseudopotential
        Al             3.00    26.98200     Al( 1.00)

     48 Sym. Ops., with inversion, found



   Cartesian axes

     site n.     atom                  positions (alat units)
         1           Al  tau(   1) = (   0.0000000   0.0000000   0.0000000  )
         2           Al  tau(   2) = (   0.2510000   0.2510000   0.0000000  )
         3           Al  tau(   3) = (   0.2510000   0.0000000   0.2510000  )
         4           Al  tau(   4) = (   0.0000000   0.2510000   0.2510000  )
         5           Al  tau(   5) = (   0.0000000   0.0000000   0.5020000  )
         6           Al  tau(   6) = (   0.2510000   0.2510000   0.5020000  )
         7           Al  tau(   7) = (   0.2510000   0.0000000   0.7530000  )
         8           Al  tau(   8) = (   0.0000000   0.2510000   0.7530000  )
         9           Al  tau(   9) = (   0.0000000   0.5020000   0.0000000  )
        10           Al  tau(  10) = (   0.2510000   0.7530000   0.0000000  )
        11           Al  tau(  11) = (   0.2510000   0.5020000   0.2510000  )
        12           Al  tau(  12) = (   0.0000000   0.7530000   0.2510000  )
        13           Al  tau(  13) = (   0.0000000   0.5020000   0.5020000  )
        14           Al  tau(  14) = (   0.2510000   0.7530000   0.5020000  )
        15           Al  tau(  15) = (   0.2510000   0.5020000   0.7530000  )
        16           Al  tau(  16) = (   0.0000000   0.7530000   0.7530000  )
        17           Al  tau(  17) = (   0.5020000   0.0000000   0.0000000  )
        18           Al  tau(  18) = (   0.7530000   0.2510000   0.0000000  )
        19           Al  tau(  19) = (   0.7530000   0.0000000   0.2510000  )
        20           Al  tau(  20) = (   0.5020000   0.2510000   0.2510000  )
        21           Al  tau(  21) = (   0.5020000   0.0000000   0.5020000  )
        22           Al  tau(  22) = (   0.7530000   0.2510000   0.5020000  )
        23           Al  tau(  23) = (   0.7530000   0.0000000   0.7530000  )
        24           Al  tau(  24) = (   0.5020000   0.2510000   0.7530000  )
        25           Al  tau(  25) = (   0.5020000   0.5020000   0.0000000  )
        26           Al  tau(  26) = (   0.7530000   0.7530000   0.0000000  )
        27           Al  tau(  27) = (   0.7530000   0.5020000   0.2510000  )
        28           Al  tau(  28) = (   0.5020000   0.7530000   0.2510000  )
        29           Al  tau(  29) = (   0.5020000   0.5020000   0.5020000  )
        30           Al  tau(  30) = (   0.7530000   0.7530000   0.5020000  )
        31           Al  tau(  31) = (   0.7530000   0.5020000   0.7530000  )
        32           Al  tau(  32) = (   0.5020000   0.7530000   0.7530000  )

     number of k points=    56  Marzari-Vanderbilt smearing, width (Ry)=  0.0400
                       cart. coord. in units 2pi/alat
        k(    1) = (   0.0452735   0.0452735   0.0452735), wk =   0.0120210
        k(    2) = (   0.0452735   0.0452735   0.1358204), wk =   0.0360631
        k(    3) = (   0.0452735   0.0452735   0.2263673), wk =   0.0360631
        k(    4) = (   0.0452735   0.0452735   0.3169142), wk =   0.0360631
        k(    5) = (   0.0452735   0.0452735   0.4074611), wk =   0.0360631
        k(    6) = (   0.0452735   0.0452735  -0.4980080), wk =   0.0180316
        k(    7) = (   0.0452735   0.1358204   0.1358204), wk =   0.0360631
        k(    8) = (   0.0452735   0.1358204   0.2263673), wk =   0.0721262
        k(    9) = (   0.0452735   0.1358204   0.3169142), wk =   0.0721262
        k(   10) = (   0.0452735   0.1358204   0.4074611), wk =   0.0721262
        k(   11) = (   0.0452735   0.1358204  -0.4980080), wk =   0.0360631
        k(   12) = (   0.0452735   0.2263673   0.2263673), wk =   0.0360631
        k(   13) = (   0.0452735   0.2263673   0.3169142), wk =   0.0721262
        k(   14) = (   0.0452735   0.2263673   0.4074611), wk =   0.0721262
        k(   15) = (   0.0452735   0.2263673  -0.4980080), wk =   0.0360631
        k(   16) = (   0.0452735   0.3169142   0.3169142), wk =   0.0360631
        k(   17) = (   0.0452735   0.3169142   0.4074611), wk =   0.0721262
        k(   18) = (   0.0452735   0.3169142  -0.4980080), wk =   0.0360631
        k(   19) = (   0.0452735   0.4074611   0.4074611), wk =   0.0360631
        k(   20) = (   0.0452735   0.4074611  -0.4980080), wk =   0.0360631
        k(   21) = (   0.0452735  -0.4980080  -0.4980080), wk =   0.0090158
        k(   22) = (   0.1358204   0.1358204   0.1358204), wk =   0.0120210
        k(   23) = (   0.1358204   0.1358204   0.2263673), wk =   0.0360631
        k(   24) = (   0.1358204   0.1358204   0.3169142), wk =   0.0360631
        k(   25) = (   0.1358204   0.1358204   0.4074611), wk =   0.0360631
        k(   26) = (   0.1358204   0.1358204  -0.4980080), wk =   0.0180316
        k(   27) = (   0.1358204   0.2263673   0.2263673), wk =   0.0360631
        k(   28) = (   0.1358204   0.2263673   0.3169142), wk =   0.0721262
        k(   29) = (   0.1358204   0.2263673   0.4074611), wk =   0.0721262
        k(   30) = (   0.1358204   0.2263673  -0.4980080), wk =   0.0360631
        k(   31) = (   0.1358204   0.3169142   0.3169142), wk =   0.0360631
        k(   32) = (   0.1358204   0.3169142   0.4074611), wk =   0.0721262
        k(   33) = (   0.1358204   0.3169142  -0.4980080), wk =   0.0360631
        k(   34) = (   0.1358204   0.4074611   0.4074611), wk =   0.0360631
        k(   35) = (   0.1358204   0.4074611  -0.4980080), wk =   0.0360631
        k(   36) = (   0.1358204  -0.4980080  -0.4980080), wk =   0.0090158
        k(   37) = (   0.2263673   0.2263673   0.2263673), wk =   0.0120210
        k(   38) = (   0.2263673   0.2263673   0.3169142), wk =   0.0360631
        k(   39) = (   0.2263673   0.2263673   0.4074611), wk =   0.0360631
        k(   40) = (   0.2263673   0.2263673  -0.4980080), wk =   0.0180316
        k(   41) = (   0.2263673   0.3169142   0.3169142), wk =   0.0360631
        k(   42) = (   0.2263673   0.3169142   0.4074611), wk =   0.0721262
        k(   43) = (   0.2263673   0.3169142  -0.4980080), wk =   0.0360631
        k(   44) = (   0.2263673   0.4074611   0.4074611), wk =   0.0360631
        k(   45) = (   0.2263673   0.4074611  -0.4980080), wk =   0.0360631
        k(   46) = (   0.2263673  -0.4980080  -0.4980080), wk =   0.0090158
        k(   47) = (   0.3169142   0.3169142   0.3169142), wk =   0.0120210
        k(   48) = (   0.3169142   0.3169142   0.4074611), wk =   0.0360631
        k(   49) = (   0.3169142   0.3169142  -0.4980080), wk =   0.0180316
        k(   50) = (   0.3169142   0.4074611   0.4074611), wk =   0.0360631
        k(   51) = (   0.3169142   0.4074611  -0.4980080), wk =   0.0360631
        k(   52) = (   0.3169142  -0.4980080  -0.4980080), wk =   0.0090158
        k(   53) = (   0.4074611   0.4074611   0.4074611), wk =   0.0120210
        k(   54) = (   0.4074611   0.4074611  -0.4980080), wk =   0.0180316
        k(   55) = (   0.4074611  -0.4980080  -0.4980080), wk =   0.0090158
        k(   56) = (  -0.4980080  -0.4980080  -0.4980080), wk =   0.0015026

     Dense  grid:   171837 G-vectors     FFT dimensions: (  72,  72,  72)

     Estimated max dynamical RAM per process >      82.73 MB

     Estimated total dynamical RAM >       1.62 GB

     Initial potential from superposition of free atoms

     starting charge   95.92671, renormalised to   96.00000
     Starting wfcs are  128 randomized atomic wfcs
     Checking if some PAW data can be deallocated... 

     total cpu time spent up to now is        7.3 secs

     Self-consistent Calculation

     iteration #  1     ecut=    50.00 Ry     beta= 0.10
     Davidson diagonalization with overlap
     ethr =  1.00E-02,  avg # of iterations =  3.1

     Threshold (ethr) on eigenvalues was too large:
     Diagonalizing with lowered threshold

     Davidson diagonalization with overlap
     ethr =  1.91E-04,  avg # of iterations =  4.5

     total cpu time spent up to now is       32.0 secs

     total energy              =   -1264.12316744 Ry
     Harris-Foulkes estimate   =   -1264.13254008 Ry
     estimated scf accuracy    <       0.17955946 Ry

     iteration #  2     ecut=    50.00 Ry     beta= 0.10
     Davidson diagonalization with overlap
     ethr =  1.87E-04,  avg # of iterations =  1.0

     total cpu time spent up to now is       39.4 secs

     total energy              =   -1264.08264155 Ry
     Harris-Foulkes estimate   =   -1264.12394581 Ry
     estimated scf accuracy    <       0.14420783 Ry

     iteration #  3     ecut=    50.00 Ry     beta= 0.10
     Davidson diagonalization with overlap
     ethr =  1.50E-04,  avg # of iterations =  1.0

     total cpu time spent up to now is       47.0 secs

     total energy              =   -1264.08538410 Ry
     Harris-Foulkes estimate   =   -1264.08539030 Ry
     estimated scf accuracy    <       0.00024161 Ry

     iteration #  4     ecut=    50.00 Ry     beta= 0.10
     Davidson diagonalization with overlap
     c_bands:  1 eigenvalues not converged
     c_bands:  2 eigenvalues not converged
     c_bands:  1 eigenvalues not converged
     c_bands:  1 eigenvalues not converged
     ethr =  2.52E-07,  avg # of iterations =  7.2

     total cpu time spent up to now is       64.7 secs

     total energy              =   -1264.08636364 Ry
     Harris-Foulkes estimate   =   -1264.08626135 Ry
     estimated scf accuracy    <       0.00021421 Ry

     iteration #  5     ecut=    50.00 Ry     beta= 0.10
     Davidson diagonalization with overlap
     ethr =  2.23E-07,  avg # of iterations =  1.4

     total cpu time spent up to now is       72.5 secs

     total energy              =   -1264.08616481 Ry
     Harris-Foulkes estimate   =   -1264.08636595 Ry
     estimated scf accuracy    <       0.00043203 Ry

     iteration #  6     ecut=    50.00 Ry     beta= 0.10
     Davidson diagonalization with overlap
     ethr =  2.23E-07,  avg # of iterations =  1.7

     total cpu time spent up to now is       80.4 secs

     total energy              =   -1264.08618010 Ry
     Harris-Foulkes estimate   =   -1264.08618148 Ry
     estimated scf accuracy    <       0.00000509 Ry

     iteration #  7     ecut=    50.00 Ry     beta= 0.10
     Davidson diagonalization with overlap
     ethr =  5.30E-09,  avg # of iterations =  5.4

     total cpu time spent up to now is       96.5 secs

     total energy              =   -1264.08618387 Ry
     Harris-Foulkes estimate   =   -1264.08618390 Ry
     estimated scf accuracy    <       0.00000121 Ry

     iteration #  8     ecut=    50.00 Ry     beta= 0.10
     Davidson diagonalization with overlap
     ethr =  1.26E-09,  avg # of iterations =  1.5

     total cpu time spent up to now is      104.3 secs

     total energy              =   -1264.08618374 Ry
     Harris-Foulkes estimate   =   -1264.08618393 Ry
     estimated scf accuracy    <       0.00000182 Ry

     iteration #  9     ecut=    50.00 Ry     beta= 0.10
     Davidson diagonalization with overlap
     ethr =  1.26E-09,  avg # of iterations =  1.4

     total cpu time spent up to now is      112.1 secs

     End of self-consistent calculation

          k = 0.0453 0.0453 0.0453 ( 21536 PWs)   bands (ev):

    -3.2558  -1.2237  -1.2237  -1.2237  -0.8208  -0.8208  -0.8208   0.7804
     0.7804   0.7804   1.1778   1.1778   1.1778   1.1778   1.1778   1.1779
     1.5741   1.5741   1.5741   2.7546   3.1333   3.1333   3.1333   3.5688
     3.5688   3.5688   3.9457   4.8016   4.8016   4.8016   6.3218   6.3218
     6.3218   6.6863   6.6863   6.6863   6.6863   6.6863   6.6863   7.0643
     7.0643   7.0643   7.0644   7.0644   7.0644   8.0863   8.0863   8.0863
     8.0863   8.0863   8.0864   8.5817   8.5817   8.5817   8.9594   8.9594
     8.9602   8.9648

          k = 0.0453 0.0453 0.1358 ( 21549 PWs)   bands (ev):

    -3.2185  -1.5910  -1.1870  -1.1870  -0.7842  -0.7842  -0.3827   0.4181
     0.4181   0.8165   0.8165   0.8166   1.2139   1.2139   1.6099   1.6099
     1.6101   2.0050   2.0050   2.3994   2.7901   2.7901   3.1684   3.6046
     3.9811   3.9811   4.2535   4.3681   4.8359   4.8359   6.1601   6.1601
     6.3451   6.3451   6.3576   6.3576   6.5273   6.5273   6.7350   6.7350
     6.9344   7.1029   7.1029   7.4616   7.4616   7.8719   7.8719   8.0812
     8.2382   8.2382   8.2592   8.2592   8.4609   8.4609   8.4702   8.4702
     8.6160   8.6160

          k = 0.0453 0.0453 0.2264 ( 21487 PWs)   bands (ev):

    -3.1442  -1.9224  -1.1137  -1.1137  -0.7111  -0.7111   0.0902   0.0912
     0.0913   0.4905   0.4905   0.8890   1.2861   1.2861   1.6821   2.0763
     2.0763   2.0776   2.4701   2.4701   2.4707   2.4707   2.8610   3.6011
     4.0517   4.4384   4.4385   4.8262   4.9046   4.9046   5.5268   5.5268
     5.9057   5.9057   6.0368   6.0368   6.4291   6.4291   6.7967   6.7967
     7.1726   7.1726   7.4600   7.5507   7.5507   7.7157   7.8415   7.8415
     7.9291   7.9291   7.9526   7.9526   8.2225   8.3068   8.3068   8.3855
     8.3855   8.7158

          k = 0.0453 0.0453 0.3169 ( 21503 PWs)   bands (ev):

    -3.0327  -2.2176  -1.0037  -1.0037  -0.6015  -0.6014  -0.2000  -0.1999
     0.2001   0.2001   0.5974   0.9975   1.3943   1.3943   1.7900   1.7905
     2.1849   2.1849   2.5763   2.5763   2.5776   2.9479   2.9686   2.9686
     4.5435   4.8882   4.8883   4.9308   4.9309   5.0076   5.0076   5.2716
     5.2716   5.3180   5.7625   5.7625   6.5361   6.5361   6.8294   6.8990
     6.8990   7.2124   7.2124   7.2759   7.2759   7.2996   7.2997   7.5950
     7.6543   7.6543   8.0320   8.0320   8.4183   8.4183   8.5128   8.5128
     8.5622   8.8755

          k = 0.0453 0.0453 0.4075 ( 21505 PWs)   bands (ev):

    -2.8841  -2.4765  -0.8573  -0.8573  -0.4554  -0.4554  -0.4552  -0.4552
    -0.0545  -0.0544   1.1381   1.1420   1.5384   1.5384   1.5387   1.9337
     1.9339   1.9340   2.3157   2.3279   3.1092   3.1092   3.4998   3.4998
     4.2679   4.2679   4.6542   4.6542   5.0697   5.1449   5.1449   5.4564
     5.4564   5.5224   5.5224   5.8426   6.2157   6.6002   6.6002   6.6779
     6.6780   6.9841   7.0361   7.0361   7.0623   7.0623   7.4135   7.4135
     7.4138   7.4138   7.7915   7.7915   8.6638   8.6638   8.9300   8.9300
     9.0372   9.0372

          k = 0.0453 0.0453-0.4980 ( 21500 PWs)   bands (ev):

    -2.6988  -2.6986  -0.6745  -0.6744  -0.6743  -0.6743  -0.2731  -0.2731
    -0.2729  -0.2729   1.3224   1.3226   1.7114   1.7115   1.7183   1.7183
     1.7185   1.7185   2.1130   2.1132   3.6736   3.6737   3.6737   3.6737
     4.0623   4.0623   4.0624   4.0624   5.3164   5.3164   5.3166   5.3166
     5.6278   5.6278   6.0135   6.0135   6.0135   6.0135   6.3986   6.3987
     6.8538   6.8538   6.8540   6.8540   7.2077   7.2077   7.2079   7.2079
     7.5852   7.5852   7.5854   7.5854   8.8453   8.8453   8.8455   8.8455
     9.2229   9.2230

          k = 0.0453 0.1358 0.1358 ( 21515 PWs)   bands (ev):

    -3.1814  -1.5542  -1.5542  -1.1503  -0.7477  -0.3462  -0.3462   0.0549
     0.4544   0.4544   0.8527   0.8527   1.2497   1.2497   1.6459   1.6459
     2.0409   2.0409   2.0418   2.4346   2.4350   3.2034   3.2035   3.6404
     3.6404   4.2884   4.2884   4.4034   4.7912   4.8703   5.8166   5.8166
     6.1815   6.1816   6.3772   6.3773   6.3933   6.6006   6.6007   6.9433
     6.9433   6.9696   6.9696   7.5108   7.5108   7.7356   7.7356   7.8947
     7.9708   7.9709   8.1156   8.1156   8.3990   8.3991   8.7673   8.7674
     8.8745   8.8746

          k = 0.0453 0.1358 0.2264 ( 21474 PWs)   bands (ev):

    -3.1070  -1.8855  -1.4807  -1.0770  -0.6745  -0.2733  -0.2728   0.1266
     0.1276   0.5268   0.5270   0.9247   0.9251   1.7173   1.7179   1.7188
     2.1122   2.1127   2.1133   2.5058   2.8964   2.8982   3.2737   3.6363
     3.7118   4.0872   4.3582   4.8613   4.9389   5.1795   5.2486   5.5057
     5.5582   5.9204   6.0706   6.3004   6.3031   6.4646   6.4691   6.6632
     7.0398   7.1126   7.3161   7.4243   7.4945   7.5830   7.5856   7.7464
     7.7504   7.8044   7.9326   8.0610   8.1844   8.2568   8.6373   8.7189
     8.9443   8.9459

          k = 0.0453 0.1358 0.3169 ( 21506 PWs)   bands (ev):

    -2.9955  -2.1807  -1.3705  -0.9671  -0.5649  -0.5647  -0.1640  -0.1635
     0.2365   0.6336   0.6352   0.6357   1.0335   1.4308   1.8257   1.8263
     2.2186   2.2202   2.6120   2.6131   2.9834   3.0028   3.0042   3.3950
     4.1927   4.4628   4.5380   4.5788   4.9221   5.0419   5.2283   5.3028
     5.3530   5.6859   5.7396   5.7966   6.3896   6.4805   6.5573   6.5711
     6.7659   6.8640   7.1447   7.1474   7.3026   7.3109   7.5276   7.6294
     7.6873   7.8861   7.9673   8.0113   8.1746   8.4441   8.4579   8.5962
     8.9591   9.0830

          k = 0.0453 0.1358 0.4075 ( 21506 PWs)   bands (ev):

    -2.8470  -2.4395  -1.2236  -0.8207  -0.8206  -0.4189  -0.4187  -0.0184
    -0.0180   0.3814   0.7806   1.1742   1.1780   1.1783   1.5746   1.9694
     2.3514   2.3634   2.3634   2.7529   2.7556   3.1447   3.5351   3.9153
     3.9243   4.3026   4.6023   4.6881   4.7181   4.9852   5.0733   5.1048
     5.1792   5.5566   5.8656   5.8775   6.2505   6.2630   6.5252   6.6933
     6.7121   6.9042   6.9050   7.0186   7.0705   7.0891   7.2838   7.2852
     7.4018   7.6594   7.8252   8.2035   8.3199   8.4515   8.7119   8.9655
     9.2367   9.4331

          k = 0.0453 0.1358-0.4980 ( 21466 PWs)   bands (ev):

    -2.6617  -2.6615  -1.0404  -1.0402  -0.6379  -0.6377  -0.2367  -0.2365
     0.1634   0.1636   0.9614   0.9616   1.3583   1.3585   1.7473   1.7474
     2.1486   2.1488   2.5419   2.5421   3.3191   3.3191   3.7089   3.7089
     4.0972   4.0972   4.4845   4.4845   4.7763   4.7765   5.2768   5.2768
     5.3507   5.3509   5.6628   5.6628   6.4333   6.4334   6.6974   6.6976
     6.8178   6.8178   6.8645   6.8647   6.8860   6.8862   7.0773   7.0775
     7.4560   7.4562   7.9971   7.9973   8.4987   8.4989   8.9904   8.9904
     9.4181   9.4185

          k = 0.0453 0.2264 0.2264 ( 21478 PWs)   bands (ev):

    -3.0327  -1.8119  -1.8118  -1.0037  -0.6014  -0.6012   0.1992   0.1993
     0.2003   0.2003   0.5993   0.5993   1.3933   1.3933   1.3948   1.7905
     2.1839   2.1839   2.5773   2.5773   3.3435   3.3435   3.3600   3.7069
     3.7069   3.7834   3.7834   4.8655   4.8656   5.0076   5.3184   5.6078
     5.6079   5.7051   6.0552   6.0553   6.1369   6.1369   6.5354   6.7549
     6.7549   6.7996   6.7996   7.1817   7.1818   7.2766   7.7725   7.7725
     7.8194   7.8194   8.0260   8.0260   8.7055   8.7055   8.8748   8.8748
     8.9254   9.1651

          k = 0.0453 0.2264 0.3169 ( 21499 PWs)   bands (ev):

    -2.9213  -2.1069  -1.7014  -0.8939  -0.8938  -0.4919  -0.0907   0.3082
     0.3091   0.3093   0.7060   0.7080   1.1048   1.1062   1.5027   1.8958
     2.2913   2.6834   2.6843   3.0545   3.0733   3.0752   3.4488   3.8126
     3.8549   3.8900   4.2216   4.2636   4.5856   4.9880   5.1105   5.3501
     5.7823   5.8091   5.8646   6.1116   6.1422   6.1663   6.1949   6.2677
     6.5212   6.5500   6.6407   6.9035   7.0019   7.1330   7.5974   7.8700
     7.9225   8.0798   8.1324   8.4610   8.4776   8.6442   8.6641   8.6881
     8.8904   9.1873

          k = 0.0453 0.2264 0.4075 ( 21500 PWs)   bands (ev):

    -2.7729  -2.3655  -1.5542  -1.1502  -0.7475  -0.3459  -0.3458   0.0547
     0.4534   0.4545   0.8518   0.8528   0.8531   1.2463   1.2503   2.4229
     2.4315   2.4344   2.8263   2.8268   3.2151   3.2156   3.5969   3.6055
     3.9535   4.3401   4.3717   4.3819   4.4035   4.7542   4.7886   5.2478
     5.5230   5.5504   5.6250   5.8998   5.9355   6.2778   6.2782   6.3323
     6.3860   6.6599   6.7171   6.7617   6.7793   7.1247   7.4706   7.8531
     7.8755   8.0091   8.0589   8.2710   8.3973   8.4200   8.6498   8.9562
     9.0392   9.5514

          k = 0.0453 0.2264-0.4980 ( 21504 PWs)   bands (ev):

    -2.5876  -2.5874  -1.3706  -1.3704  -0.5649  -0.5647  -0.1638  -0.1636
     0.6345   0.6347   0.6357   0.6359   1.0335   1.0337   1.8192   1.8192
     2.6128   2.6130   2.9991   2.9991   3.0040   3.0042   3.7792   3.7792
     4.1293   4.1295   4.1665   4.1665   4.9390   4.9391   4.9612   4.9612
     5.3469   5.3470   5.4192   5.4194   6.0699   6.0701   6.4512   6.4514
     6.5560   6.5562   6.8868   6.8868   6.9469   6.9471   7.2705   7.2705
     8.1853   8.1855   8.2265   8.2267   8.3886   8.3886   8.4433   8.4434
     9.5822   9.5822

          k = 0.0453 0.3169 0.3169 ( 21491 PWs)   bands (ev):

    -2.8099  -1.9962  -1.9962  -1.1869  -0.7841  -0.3824   0.0185   0.0185
     0.4180   0.4180   0.8146   0.8146   0.8169   1.2143   1.6083   1.6083
     2.7903   2.7903   3.1610   3.1610   3.1816   3.1816   3.5532   3.5533
     3.9396   3.9396   3.9972   3.9973   4.3476   5.0714   5.0715   5.2134
     5.5285   5.5286   5.8869   5.8870   5.9652   5.9652   6.2707   6.2707
     6.2985   6.6030   6.6030   6.6834   6.7274   6.7436   7.6120   7.6120
     8.3632   8.5630   8.5631   8.6099   8.6100   8.7650   8.7650   8.9386
     8.9435   8.9435

          k = 0.0453 0.3169 0.4075 ( 21462 PWs)   bands (ev):

    -2.6616  -2.2546  -1.8487  -1.4439  -0.6378  -0.2365  -0.2364   0.1638
     0.1640   0.5631   0.5634   0.9592   0.9614   1.3545   1.3562   2.1451
     2.5300   2.9326   3.3029   3.3132   3.3204   3.3218   3.3228   3.6924
     3.6935   3.7107   4.1384   4.4733   4.5097   4.8374   4.8714   5.2708
     5.2850   5.3506   5.6433   5.6472   5.6554   5.7273   5.9814   6.0265
     6.1326   6.4875   6.8203   6.8756   7.0023   7.2042   7.4813   7.7359
     7.9555   8.1171   8.3372   8.3447   8.7506   8.8975   9.0785   9.0944
     9.1301   9.2907

          k = 0.0453 0.3169-0.4980 ( 21488 PWs)   bands (ev):

    -2.4766  -2.4764  -1.6647  -1.6645  -0.4553  -0.4551  -0.0545  -0.0543
     0.3456   0.3458   0.7442   0.7444   1.1397   1.1399   1.9268   1.9269
     2.7139   2.7140   3.1097   3.1099   3.4800   3.4802   3.4972   3.4974
     3.8841   3.8841   4.2684   4.2684   4.6829   4.6829   5.0667   5.0667
     5.4236   5.4237   5.4374   5.4376   5.5219   5.5221   5.8179   5.8180
     6.2830   6.2832   7.0177   7.0178   7.3733   7.3733   7.7561   7.7562
     7.8019   7.8019   7.9071   7.9073   8.9234   8.9236   9.0561   9.0563
     9.6251   9.6887

          k = 0.0453 0.4075 0.4075 ( 21487 PWs)   bands (ev):

    -2.5135  -2.1069  -2.1069  -1.7014  -0.4917  -0.0908  -0.0906  -0.0906
     0.3091   0.3092   0.3094   0.7081   1.4985   1.4986   1.8940   1.8940
     2.6728   2.6728   3.0645   3.0645   3.4628   3.4628   3.8320   3.8321
     3.8488   3.8488   4.2810   4.2810   4.5931   4.5931   5.0289   5.0289
     5.0507   5.0507   5.3903   5.4111   5.4112   5.4877   5.8621   5.8622
     6.2488   6.5081   6.5081   6.9821   7.3406   7.5119   7.5119   7.7236
     7.7754   7.8728   8.4726   8.4726   8.8534   8.8534   9.2624   9.2624
     9.6441   9.6444

          k = 0.0453 0.4075-0.4980 ( 21462 PWs)   bands (ev):

    -2.3286  -2.3284  -1.9225  -1.9223  -0.3094  -0.3092   0.0910   0.0912
     0.0912   0.0914   0.4905   0.4907   1.6783   1.6785   2.0703   2.0703
     2.4640   2.4640   2.8509   2.8511   3.6368   3.6370   4.0070   4.0072
     4.0218   4.0218   4.3889   4.3889   4.4557   4.4557   4.8240   4.8241
     4.8394   4.8396   5.2045   5.2047   5.6585   5.6587   5.9154   5.9154
     6.0648   6.0649   6.9357   6.9358   7.4200   7.4201   7.6675   7.6677
     7.8920   7.8921   8.2739   8.2740   9.0207   9.0208   9.4006   9.4006
     9.4372   9.4373

          k = 0.0453-0.4980-0.4980 ( 21484 PWs)   bands (ev):

    -2.1440  -2.1438  -2.1438  -2.1436  -0.1272  -0.1271  -0.1271  -0.1269
     0.2727   0.2728   0.2728   0.2730   2.2493   2.2493   2.2493   2.2493
     2.2494   2.2494   2.2495   2.2495   4.1790   4.1790   4.1790   4.1790
     4.1792   4.1792   4.1792   4.1792   4.6330   4.6330   4.6330   4.6331
     4.6331   4.6332   4.6332   4.6332   5.8276   5.8278   5.8278   5.8280
     6.4760   6.4761   6.4761   6.4761   7.4779   7.4781   7.4781   7.4783
     8.4418   8.4419   8.4419   8.4419   8.8227   8.8227   8.8227   8.8228
     9.9832   9.9833

          k = 0.1358 0.1358 0.1358 ( 21470 PWs)   bands (ev):

    -3.1442  -1.5175  -1.5175  -1.5174  -0.3098  -0.3098  -0.3097   0.0913
     0.0913   0.0913   1.2858   1.2858   1.2858   1.2858   1.2858   1.2858
     1.6829   2.4704   2.4704   2.4704   2.8609   2.8609   2.8609   4.0520
     4.0520   4.0520   4.3233   4.3233   4.3233   5.2138   5.8488   5.8488
     5.8488   5.8488   5.8488   5.8488   6.9973   6.9973   6.9973   6.9973
     6.9973   6.9973   7.0046   7.0046   7.0046   7.3898   7.3898   7.3898
     8.5253   8.5253   8.5253   8.5253   8.5294   8.5294   8.5294   8.5295
     8.5295   8.5295

          k = 0.1358 0.1358 0.2264 ( 21465 PWs)   bands (ev):

    -3.0698  -1.8487  -1.4440  -1.4439  -0.2369  -0.2368  -0.2363  -0.2363
     0.1629   0.1640   0.9609   0.9609   1.3579   1.3579   1.3588   1.7532
     1.7533   2.5418   2.5418   2.5418   2.9337   2.9337   3.3084   3.6716
     3.7478   4.3931   4.3931   4.5090   4.5090   5.2132   5.2133   5.5395
     5.5395   5.6704   5.9045   5.9045   6.3869   6.3869   6.7649   7.0723
     7.0723   7.0745   7.0745   7.0783   7.0784   7.4269   7.4269   7.7848
     7.9102   7.9102   8.2185   8.2185   8.2584   8.2584   8.6310   8.6310
     8.9770   8.9770

          k = 0.1358 0.1358 0.3169 ( 21499 PWs)   bands (ev):

    -2.9584  -2.1438  -1.3338  -1.3337  -0.5282  -0.5281  -0.1276  -0.1276
     0.2731   0.6698   0.6714   0.6714   1.0701   1.4661   1.4661   2.2544
     2.2544   2.2562   2.2562   2.6489   3.0190   3.4140   3.4303   3.4304
     3.8542   4.4977   4.4977   4.5726   4.5726   5.0011   5.0011   5.2627
     5.2627   5.6977   5.6977   6.0660   6.0660   6.1314   6.1603   6.8014
     6.8014   7.1782   7.1782   7.1789   7.1789   7.2815   7.2815   7.7789
     7.7789   7.9418   7.9418   8.1204   8.1204   8.4269   8.6299   8.7499
     8.7499   9.4579

          k = 0.1358 0.1358 0.4075 ( 21519 PWs)   bands (ev):

    -2.8099  -2.4025  -1.1870  -1.1869  -0.7840  -0.7840   0.0180   0.0180
     0.4177   0.4177   0.4183   0.8170   1.2103   1.6101   1.6101   2.0054
     2.0054   2.3872   2.7886   2.7886   2.7914   3.1799   3.9504   3.9504
     3.9592   3.9592   4.3681   4.6371   4.6371   5.0198   5.0198   5.1045
     5.1045   5.5154   5.5263   5.5263   6.1828   6.1828   6.5593   6.5593
     6.6695   6.6695   6.6826   7.3167   7.3167   7.3177   7.3177   7.6763
     7.6763   7.6995   7.6995   7.8189   8.4982   8.4982   8.8966   8.8966
     9.2867   9.2867

          k = 0.1358 0.1358-0.4980 ( 21506 PWs)   bands (ev):

    -2.6247  -2.6245  -1.0038  -1.0037  -1.0036  -1.0036   0.1997   0.1997
     0.1999   0.1999   0.5996   0.5997   1.7833   1.7833   1.7899   1.7899
     1.7901   1.7901   2.9688   2.9690   3.3545   3.3545   3.3545   3.3546
     4.5185   4.5185   4.5185   4.5185   4.8111   4.8111   4.8113   4.8113
     4.9259   4.9260   6.0831   6.0832   6.0832   6.0832   6.3524   6.3525
     6.3526   6.3526   7.2362   7.2362   7.4856   7.4856   7.4858   7.4858
     7.4913   7.4913   7.4915   7.4915   9.0283   9.0283   9.0283   9.0283
     9.0750   9.0751

          k = 0.1358 0.2264 0.2264 ( 21500 PWs)   bands (ev):

    -2.9955  -1.7750  -1.7750  -1.3705  -0.5647  -0.1640  -0.1634  -0.1634
     0.2356   0.2356   1.0332   1.0332   1.0340   1.4294   1.4294   1.8251
     1.8251   2.2204   3.0024   3.0024   3.0048   3.0049   3.3954   3.7421
     3.7421   4.1935   4.1935   4.4628   4.9000   4.9001   4.9664   5.2792
     5.2792   5.6060   5.6060   6.1260   6.4508   6.4508   6.4518   6.4518
     6.7669   6.8166   6.8166   7.1437   7.5144   7.5144   7.5978   7.5978
     7.8534   7.8534   8.3374   8.3374   8.3595   8.3595   8.6663   8.6664
     8.9870   8.9870

          k = 0.1358 0.2264 0.3169 ( 21487 PWs)   bands (ev):

    -2.8841  -2.0700  -1.6646  -1.2603  -0.8572  -0.4551  -0.0548  -0.0542
     0.3445   0.7422   0.7439   0.7446   1.1409   1.1416   1.9318   1.9329
     1.9337   2.3260   2.7195   3.0900   3.1113   3.4831   3.5009   3.8478
     3.8899   3.9264   4.2566   4.5674   4.6205   4.6415   4.6846   5.3311
     5.3644   5.4578   5.6965   5.8171   5.8375   6.1735   6.2043   6.4901
     6.5542   6.6147   6.9679   7.2465   7.2734   7.3198   7.6240   7.7324
     7.9554   7.9790   8.0878   8.3898   8.4459   8.6969   8.7515   8.8418
     8.8758   9.1475

          k = 0.1358 0.2264 0.4075 ( 21478 PWs)   bands (ev):

    -2.7358  -2.3285  -1.5174  -1.1136  -1.1136  -0.7109   0.0908   0.0914
     0.4896   0.4902   0.4909   0.8880   1.2824   1.2859   1.6822   2.0764
     2.4586   2.4672   2.4701   2.8598   3.2526   3.6241   3.6322   3.9886
     4.0205   4.0286   4.0670   4.3751   4.4159   4.7067   5.0889   5.1510
     5.2006   5.2101   5.5335   5.5750   5.8948   5.9308   5.9818   6.2487
     6.3548   6.6932   7.0762   7.1221   7.1358   7.3804   7.6165   7.7649
     8.0178   8.0890   8.1474   8.2692   8.3426   8.5880   8.6701   8.9750
     8.9949   9.3564

          k = 0.1358 0.2264-0.4980 ( 21496 PWs)   bands (ev):

    -2.5506  -2.5504  -1.3338  -1.3336  -0.9305  -0.9303   0.2724   0.2726
     0.2730   0.2732   0.6707   0.6709   1.4661   1.4663   1.8551   1.8551
     2.2555   2.2557   3.0346   3.0347   3.4253   3.4253   3.4273   3.4275
     4.1644   4.1646   4.5848   4.5848   4.6122   4.6122   4.8805   4.8807
     4.9703   4.9703   5.7257   5.7259   5.7676   5.7676   6.0444   6.0446
     6.5373   6.5373   6.8672   6.8674   7.5353   7.5355   7.6880   7.6880
     7.9391   7.9393   8.2464   8.2466   8.4373   8.4373   8.7642   8.7644
     9.1097   9.1097

          k = 0.1358 0.3169 0.3169 ( 21483 PWs)   bands (ev):

    -2.7729  -1.9593  -1.9593  -1.1503  -1.1502  -0.3457  -0.3457   0.0544
     0.4547   0.8508   0.8508   0.8524   0.8524   1.6443   1.6443   1.6462
     2.4334   2.4334   3.1965   3.1965   3.2141   3.2141   3.6062   3.6062
     3.9748   3.9748   4.3816   4.4052   4.4052   4.6718   4.7426   4.7427
     5.4323   5.4324   5.5384   5.5384   5.9252   5.9252   5.9479   6.2141
     6.6680   6.6680   6.6888   6.6888   7.1022   7.3451   8.1007   8.1007
     8.1779   8.1780   8.2164   8.2164   8.7952   8.7953   8.8711   8.8711
     8.9413   8.9775

          k = 0.1358 0.3169 0.4075 ( 21491 PWs)   bands (ev):

    -2.6246  -2.2177  -1.8119  -1.4072  -1.0037  -0.6012  -0.1998   0.1998
     0.2005   0.5990   0.9954   0.9971   1.3905   1.3923   1.3942   2.1809
     2.5657   2.5763   2.9666   2.9676   3.3383   3.3487   3.7269   3.7277
     3.7446   4.1250   4.1308   4.1756   4.8109   4.8623   4.9027   4.9232
     4.9294   5.1921   5.2973   5.3302   5.5579   5.9753   6.0615   6.0749
     6.0768   6.4444   6.4706   7.1557   7.4648   7.6077   7.6219   7.9618
     8.2447   8.3139   8.3941   8.5991   8.6286   8.6970   8.7326   8.7524
     8.9184   9.3851

          k = 0.1358 0.3169-0.4980 ( 21498 PWs)   bands (ev):

    -2.4396  -2.4394  -1.6279  -1.6277  -0.8207  -0.8205  -0.0178  -0.0176
     0.3813   0.3815   1.1758   1.1760   1.1776   1.1778   1.9627   1.9627
     2.7496   2.7496   2.7544   2.7546   3.5153   3.5155   3.5312   3.5313
     3.9035   3.9037   4.3490   4.3490   4.6682   4.6682   4.9844   4.9846
     5.1098   5.1100   5.4336   5.4336   5.4871   5.4871   5.7915   5.7917
     6.2351   6.2353   7.0245   7.0246   7.5153   7.5154   7.9406   7.9406
     8.1726   8.1727   8.4199   8.4201   8.4875   8.4877   8.9889   8.9890
     9.2799   9.2799

          k = 0.1358 0.4075 0.4075 ( 21496 PWs)   bands (ev):

    -2.4765  -2.0700  -2.0700  -1.6646  -0.8572  -0.4551  -0.4551  -0.0541
     0.3451   0.7439   0.7439   1.1416   1.5345   1.5345   1.9299   1.9299
     2.7084   2.7084   3.1000   3.1001   3.1086   3.1086   3.4955   3.4955
     4.2519   4.2519   4.2622   4.2622   4.6863   4.6863   4.6981   4.6981
     4.9497   5.3281   5.3281   5.4002   5.4498   5.4499   5.7571   5.8301
     5.8301   6.5746   6.5746   6.9918   7.4814   7.9131   8.0783   8.0783
     8.1256   8.1256   8.1402   8.4537   8.7547   8.7547   9.1424   9.1424
     9.2527   9.2677

          k = 0.1358 0.4075-0.4980 ( 21494 PWs)   bands (ev):

    -2.2917  -2.2915  -1.8856  -1.8855  -0.6744  -0.6742  -0.2728  -0.2726
     0.5264   0.5266   0.9247   0.9249   1.7143   1.7145   2.1061   2.1061
     2.4997   2.4997   2.8865   2.8867   3.2853   3.2855   3.6718   3.6719
     4.0391   4.0391   4.4183   4.4185   4.4941   4.4943   4.8802   4.8802
     5.1224   5.1226   5.2423   5.2424   5.4884   5.4886   5.6210   5.6212
     6.0119   6.0119   7.0942   7.0942   7.5441   7.5441   7.8966   7.8968
     8.2464   8.2466   8.6746   8.6746   8.6894   8.6894   8.9328   8.9330
     9.2862   9.2863

          k = 0.1358-0.4980-0.4980 ( 21516 PWs)   bands (ev):

    -2.1071  -2.1069  -2.1069  -2.1067  -0.4918  -0.4916  -0.4916  -0.4914
     0.7075   0.7077   0.7077   0.7079   2.2850   2.2850   2.2851   2.2851
     2.2852   2.2852   2.2853   2.2853   3.8453   3.8453   3.8453   3.8453
     3.8455   3.8455   3.8455   3.8455   5.0352   5.0352   5.0352   5.0353
     5.0354   5.0354   5.0354   5.0354   5.2932   5.2933   5.2933   5.2935
     6.5429   6.5429   6.5429   6.5430   8.0445   8.0447   8.0447   8.0449
     8.0947   8.0948   8.0948   8.0948   9.2371   9.2371   9.2372   9.2373
     9.4756   9.4756

          k = 0.2264 0.2264 0.2264 ( 21488 PWs)   bands (ev):

    -2.9213  -1.7014  -1.7014  -1.7014  -0.4916  -0.4916  -0.4916   0.3082
     0.3082   0.3082   0.7085   1.5014   1.5014   1.5014   1.5014   1.5014
     1.5015   2.6839   2.6839   2.6839   3.4659   3.4659   3.4660   3.8126
     3.8126   3.8126   4.6498   4.6498   4.6498   4.9686   4.9686   4.9686
     4.9686   4.9686   4.9687   6.1387   6.1387   6.1387   6.5805   6.8944
     6.8944   6.8944   6.8944   6.8944   6.8944   7.9207   7.9207   7.9207
     8.0475   8.0475   8.0475   8.0475   8.0475   8.0475   9.0863   9.0863
     9.0863   9.0864

          k = 0.2264 0.2264 0.3169 ( 21501 PWs)   bands (ev):

    -2.8099  -1.9962  -1.5910  -1.5910  -0.7840  -0.7840  -0.3821   0.4171
     0.4171   0.4184   0.8146   1.2131   1.2131   1.6095   1.6095   2.0035
     2.0036   2.3986   2.3986   3.1610   3.1787   3.5713   3.9182   3.9182
     3.9594   3.9594   4.3264   4.3264   4.3703   4.6899   4.6899   5.0696
     5.0696   5.1413   5.1413   5.5033   5.8611   5.8611   6.2689   6.2689
     7.0018   7.0018   7.0681   7.3694   7.3694   7.4193   7.4193   7.7697
     7.7697   8.0194   8.0194   8.5302   8.5302   8.7608   8.8269   8.8269
     9.2023   9.2023

          k = 0.2264 0.2264 0.4075 ( 21466 PWs)   bands (ev):

    -2.6616  -2.2546  -1.4439  -1.4439  -1.0403  -1.0403  -0.2362   0.1642
     0.5621   0.5621   0.9603   0.9603   1.3545   1.7533   1.7533   2.1482
     2.1482   2.5300   2.5387   2.5387   3.6918   3.7028   3.7028   3.7098
     4.0589   4.0589   4.1404   4.4451   4.4451   4.4823   4.4823   4.8879
     5.1904   5.1905   5.6212   5.6212   5.6660   5.6660   5.6750   5.6750
     6.8079   6.8080   7.1424   7.1424   7.5262   7.5262   7.5879   7.8604
     7.8604   8.1416   8.1416   8.6136   8.6136   8.7187   9.0452   9.0452
     9.0787   9.0787

          k = 0.2264 0.2264-0.4980 ( 21506 PWs)   bands (ev):

    -2.4766  -2.4764  -1.2604  -1.2604  -1.2602  -1.2602  -0.0542  -0.0540
     0.7431   0.7432   0.7433   0.7433   1.9268   1.9269   1.9329   1.9329
     1.9331   1.9331   3.1057   3.1057   3.1057   3.1058   3.8689   3.8691
     4.2345   4.2345   4.2347   4.2347   4.3134   4.3134   5.0166   5.0166
     5.0166   5.0166   5.4358   5.4358   5.4359   5.4360   6.2222   6.2222
     6.2222   6.2222   7.3171   7.3171   7.3173   7.3173   8.1388   8.1388
     8.2116   8.2116   8.2117   8.2117   8.6037   8.6037   8.6038   8.6038
     9.5236   9.5238

          k = 0.2264 0.3169 0.3169 ( 21490 PWs)   bands (ev):

    -2.6987  -1.8856  -1.8855  -1.4807  -1.0769  -0.6743  -0.6743   0.1279
     0.5259   0.9231   0.9231   1.3213   1.3213   1.7162   1.7162   2.1111
     2.1112   2.1123   2.8965   2.8965   3.2674   3.2674   4.0237   4.0451
     4.0451   4.0617   4.0617   4.4305   4.4306   4.4481   4.7936   4.7936
     4.8605   4.8605   5.2271   5.2271   5.5863   5.6320   6.3726   6.3727
     6.7471   6.7471   7.1405   7.1405   7.4819   7.4820   7.5545   7.9038
     7.9038   8.1066   8.2527   8.2527   8.8489   8.8489   8.9336   8.9336
     9.0618   9.6482

          k = 0.2264 0.3169 0.4075 ( 21501 PWs)   bands (ev):

    -2.5505  -2.1438  -1.7382  -1.3338  -1.3337  -0.9304  -0.5281  -0.1269
     0.6708   1.0676   1.0687   1.4625   1.4643   1.4655   1.8612   2.2525
     2.2545   2.6371   2.6458   2.6475   3.4092   3.4195   3.4247   3.7982
     3.8084   4.1643   4.1832   4.5497   4.5660   4.5672   4.6171   4.6272
     4.9297   4.9490   5.0044   5.3661   5.3852   5.7632   6.1418   6.1553
     6.5122   6.5283   6.8963   7.2555   7.2942   7.6245   7.9909   8.0093
     8.0730   8.1442   8.4205   8.5589   8.7014   8.7680   8.8918   9.0740
     9.2009   9.2738

          k = 0.2264 0.3169-0.4980 ( 21506 PWs)   bands (ev):

    -2.3656  -2.3654  -1.5543  -1.5541  -1.1503  -1.1502  -0.3457  -0.3455
     0.8517   0.8519   1.2480   1.2482   1.6454   1.6456   2.0344   2.0344
     2.4332   2.4334   2.8209   2.8209   3.2122   3.2122   3.5861   3.5863
     3.9691   3.9691   4.3396   4.3398   4.4244   4.4245   4.7226   4.7228
     5.0859   5.0861   5.1955   5.1955   5.5756   5.5756   5.9419   5.9419
     6.6867   6.6869   6.7101   6.7101   7.7762   7.7763   7.7999   7.8001
     8.5146   8.5146   8.5218   8.5220   8.6224   8.6224   8.9684   8.9684
     9.3136   9.3144

          k = 0.2264 0.4075 0.4075 ( 21515 PWs)   bands (ev):

    -2.4025  -1.9962  -1.9962  -1.5910  -1.1869  -0.7840  -0.7840  -0.3821
     0.8156   1.2131   1.2131   1.6065   1.6065   1.6095   2.0016   2.0017
     2.7797   2.7797   2.7884   2.7884   3.1711   3.1711   3.1789   3.1789
     3.9485   3.9485   4.3046   4.3135   4.3136   4.6885   4.6885   4.7770
     4.7770   5.0512   5.1401   5.1402   5.5422   5.8999   5.8999   6.2835
     6.2836   6.6543   6.6543   6.6772   7.7469   7.8127   7.8127   8.1378
     8.1378   8.4905   8.5246   8.5246   8.5901   8.8358   8.8359   8.9411
     9.2342   9.2343

          k = 0.2264 0.4075-0.4980 ( 21502 PWs)   bands (ev):

    -2.2178  -2.2176  -1.8120  -1.8118  -1.0037  -1.0035  -0.6012  -0.6011
     0.9963   0.9965   1.3933   1.3935   1.7862   1.7863   2.1777   2.1778
     2.5711   2.5712   2.9576   2.9578   2.9662   2.9664   3.3539   3.3539
     3.7395   3.7395   4.1213   4.1214   4.4794   4.4796   4.8597   4.8598
     4.9327   4.9329   5.3158   5.3159   5.6968   5.6968   6.0738   6.0740
     6.0771   6.0771   7.1955   7.1955   7.2303   7.2303   8.3147   8.3149
     8.3623   8.3623   8.6361   8.6363   8.6788   8.6789   9.0079   9.0081
     9.0708   9.0708

          k = 0.2264-0.4980-0.4980 ( 21500 PWs)   bands (ev):

    -2.0333  -2.0331  -2.0331  -2.0329  -0.8207  -0.8206  -0.8206  -0.8203
     1.1768   1.1770   1.1770   1.1772   2.3566   2.3566   2.3566   2.3566
     2.3568   2.3568   2.3568   2.3568   3.5301   3.5301   3.5301   3.5301
     3.5303   3.5303   3.5303   3.5303   4.6533   4.6534   4.6534   4.6536
     5.4873   5.4873   5.4873   5.4874   5.4875   5.4875   5.4876   5.4876
     6.6227   6.6228   6.6228   6.6228   7.7817   7.7817   7.7817   7.7817
     8.8025   8.8027   8.8029   8.8596   8.8597   8.8597   8.8597   8.8598
     8.8599   8.8599

          k = 0.3169 0.3169 0.3169 ( 21521 PWs)   bands (ev):

    -2.5876  -1.7750  -1.7750  -1.7750  -0.9670  -0.9670  -0.9670  -0.1633
     1.0315   1.0315   1.0315   1.8240   1.8240   1.8241   1.8241   1.8241
     1.8241   2.6118   2.6118   2.6118   3.3737   3.3737   3.3737   4.1503
     4.1503   4.1503   4.1503   4.1503   4.1503   4.5319   4.5319   4.5319
     4.9692   4.9692   4.9692   5.3511   5.3511   5.3511   6.8552   6.8552
     6.8552   6.8553   6.8553   6.8553   7.6253   7.6254   7.6254   7.6254
     7.6254   7.6254   8.0396   8.8585   8.8585   8.8585   9.2562   9.2562
     9.2562   9.7619

          k = 0.3169 0.3169 0.4075 ( 21505 PWs)   bands (ev):

    -2.4395  -2.0331  -1.6278  -1.6278  -1.2236  -1.2236  -0.8205  -0.4185
     1.1759   1.1759   1.5705   1.5723   1.5724   1.9677   1.9677   2.3599
     2.3599   2.3618   2.3618   2.7440   3.1434   3.5154   3.5154   3.5257
     3.5257   3.9039   3.9039   4.2786   4.2898   4.2898   4.6529   4.6529
     4.7425   5.1060   5.1276   5.1276   5.8748   5.8749   6.2458   6.2458
     6.9964   6.9964   7.0150   7.0150   7.3694   7.3694   7.3813   7.3813
     8.1425   8.1425   8.4627   8.4627   8.5568   9.1857   9.1857   9.2119
     9.2681   9.2681

          k = 0.3169 0.3169-0.4980 ( 21484 PWs)   bands (ev):

    -2.2547  -2.2545  -1.4441  -1.4440  -1.4438  -1.4438  -0.6378  -0.6376
     1.3561   1.3562   1.3563   1.3564   2.1419   2.1419   2.1469   2.1469
     2.1471   2.1471   2.9277   2.9277   2.9277   2.9278   3.6920   3.6921
     3.6922   3.6923   3.7041   3.7041   4.4617   4.4617   4.4619   4.4619
     4.8984   4.8986   5.6641   5.6642   5.6642   5.6642   6.4302   6.4302
     6.4302   6.4302   7.1716   7.1716   7.1718   7.1718   7.9105   7.9106
     7.9106   7.9106   8.6907   8.6907   8.6907   8.6907   9.1049   9.1049
     9.3310   9.3311

          k = 0.3169 0.4075 0.4075 ( 21489 PWs)   bands (ev):

    -2.2916  -1.8856  -1.8856  -1.4807  -1.4807  -1.0769  -1.0769  -0.6742
     1.3202   1.7144   1.7144   1.7162   1.7163   2.1092   2.1092   2.1112
     2.5029   2.5029   2.8865   2.8865   2.8951   2.8951   3.2776   3.2776
     3.6568   3.6669   3.6669   4.0445   4.0445   4.0508   4.0509   4.4266
     5.2482   5.2483   5.6295   5.6295   5.6309   6.3856   6.3856   6.3972
     6.7627   6.7627   6.7704   6.7704   7.5126   7.5127   7.5339   7.5339
     7.8823   7.8986   7.8986   8.6304   8.6304   8.6633   9.0240   9.0240
     9.0726   9.2994

          k = 0.3169 0.4075-0.4980 ( 21520 PWs)   bands (ev):

    -2.1070  -2.1068  -1.7015  -1.7013  -1.2971  -1.2969  -0.8938  -0.8936
     1.5003   1.5005   1.8939   1.8941   1.8958   1.8960   2.2851   2.2852
     2.6782   2.6782   2.6813   2.6815   3.0643   3.0645   3.0700   3.0700
     3.4593   3.4593   3.8332   3.8333   3.8424   3.8426   4.2192   4.2194
     5.4199   5.4201   5.8010   5.8010   6.1812   6.1812   6.1851   6.1851
     6.5604   6.5606   6.9509   6.9509   7.3099   7.3099   7.6886   7.6888
     8.0588   8.0588   8.0840   8.0840   8.4468   8.4468   8.8123   8.8125
     9.4644   9.4646

          k = 0.3169-0.4980-0.4980 ( 21484 PWs)   bands (ev):

    -1.9226  -1.9224  -1.9224  -1.9222  -1.1138  -1.1136  -1.1136  -1.1134
     1.6801   1.6803   1.6803   1.6805   2.4639   2.4639   2.4639   2.4639
     2.4640   2.4640   2.4641   2.4641   3.2472   3.2472   3.2472   3.2473
     3.2474   3.2474   3.2475   3.2475   4.0090   4.0092   4.0092   4.0094
     5.9751   5.9751   5.9751   5.9752   5.9753   5.9753   5.9753   5.9753
     6.7312   6.7313   6.7313   6.7313   7.5028   7.5029   7.5029   7.5029
     8.2364   8.2364   8.2364   8.2364   8.2366   8.2366   8.2366   8.2366
     9.6350   9.6351

          k = 0.4075 0.4075 0.4075 ( 21515 PWs)   bands (ev):

    -2.1438  -1.7382  -1.7382  -1.7382  -1.3337  -1.3337  -1.3337  -0.9303
     1.8581   1.8581   1.8581   2.2525   2.2525   2.2525   2.2525   2.2525
     2.2526   2.6457   2.6457   2.6457   3.0289   3.0289   3.0289   3.4193
     3.4193   3.4193   3.4193   3.4193   3.4193   3.8072   3.8072   3.8072
     5.7678   5.7678   5.7678   6.1521   6.1521   6.1521   6.9041   6.9041
     6.9041   6.9041   6.9041   6.9041   7.2896   7.2896   7.2896   7.2896
     7.2896   7.2896   8.0309   8.0309   8.0309   8.4193   8.4193   8.4193
     9.5871  10.1736

          k = 0.4075 0.4075-0.4980 ( 21520 PWs)   bands (ev):

    -1.9594  -1.9592  -1.5543  -1.5543  -1.5541  -1.5541  -1.1503  -1.1501
     2.0374   2.0375   2.0376   2.0376   2.4282   2.4282   2.4313   2.4313
     2.4315   2.4315   2.8208   2.8208   2.8208   2.8208   3.2064   3.2064
     3.2066   3.2066   3.2118   3.2118   3.5959   3.5960   3.5961   3.5961
     5.9420   5.9422   6.3210   6.3210   6.3211   6.3211   6.7061   6.7061
     6.7061   6.7062   7.0795   7.0796   7.0797   7.0797   7.4535   7.4535
     7.4535   7.4535   7.8399   7.8399   7.8399   7.8399   8.2087   8.2089
    10.1323  10.3423

          k = 0.4075-0.4980-0.4980 ( 21540 PWs)   bands (ev):

    -1.7752  -1.7750  -1.7750  -1.7748  -1.3706  -1.3705  -1.3705  -1.3702
     2.2165   2.2167   2.2167   2.2169   2.6067   2.6067   2.6067   2.6068
     2.6069   2.6069   2.6069   2.6069   2.9987   2.9987   2.9987   2.9987
     2.9989   2.9989   2.9989   2.9989   3.3836   3.3838   3.3838   3.3840
     6.4960   6.4960   6.4960   6.4961   6.4962   6.4962   6.4962   6.4962
     6.8727   6.8728   6.8728   6.8728   7.2584   7.2584   7.2584   7.2584
     7.6297   7.6297   7.6297   7.6298   7.6299   7.6299   7.6299   7.6299
    10.5137  10.5139

          k =-0.4980-0.4980-0.4980 ( 21584 PWs)   bands (ev):

    -1.5912  -1.5911  -1.5911  -1.5911  -1.5909  -1.5909  -1.5909  -1.5907
     2.7849   2.7849   2.7850   2.7850   2.7850   2.7851   2.7851   2.7851
     2.7851   2.7852   2.7852   2.7852   2.7852   2.7852   2.7852   2.7852
     2.7852   2.7852   2.7853   2.7854   2.7854   2.7854   2.7854   2.7854
     7.0483   7.0483   7.0483   7.0483   7.0483   7.0483   7.0483   7.0483
     7.0483   7.0483   7.0483   7.0483   7.0484   7.0484   7.0485   7.0485
     7.0485   7.0485   7.0485   7.0485   7.0485   7.0485   7.0485   7.0485
    11.2183  11.2184

     the Fermi energy is     7.8046 ev

!    total energy              =   -1264.08618330 Ry
     Harris-Foulkes estimate   =   -1264.08618383 Ry
     estimated scf accuracy    <       0.00000097 Ry

     total all-electron energy =    -15540.655205 Ry

     The total energy is the sum of the following terms:

     one-electron contribution =     100.41422589 Ry
     hartree contribution      =       0.19497937 Ry
     xc contribution           =     -82.73097883 Ry
     ewald contribution        =    -172.31127304 Ry
     one-center paw contrib.   =   -1109.65021897 Ry
     smearing contrib. (-TS)   =      -0.00291772 Ry

     convergence has been achieved in   9 iterations

     Forces acting on atoms (cartesian axes, Ry/au):

     atom    1 type  1   force =     0.00000000    0.00000000   -0.00000000
     atom    2 type  1   force =     0.00001881    0.00001881    0.00000000
     atom    3 type  1   force =     0.00001881    0.00000000    0.00001881
     atom    4 type  1   force =     0.00000000    0.00001881    0.00001881
     atom    5 type  1   force =     0.00000000    0.00000000    0.00000000
     atom    6 type  1   force =     0.00001166    0.00001166    0.00000000
     atom    7 type  1   force =     0.00001881    0.00000000   -0.00001881
     atom    8 type  1   force =     0.00000000    0.00001881   -0.00001881
     atom    9 type  1   force =     0.00000000    0.00000000    0.00000000
     atom   10 type  1   force =     0.00001881   -0.00001881    0.00000000
     atom   11 type  1   force =     0.00001166   -0.00000000    0.00001166
     atom   12 type  1   force =    -0.00000000   -0.00001881    0.00001881
     atom   13 type  1   force =     0.00000000    0.00000000   -0.00000000
     atom   14 type  1   force =     0.00001166   -0.00001166    0.00000000
     atom   15 type  1   force =     0.00001166    0.00000000   -0.00001166
     atom   16 type  1   force =     0.00000000   -0.00001881   -0.00001881
     atom   17 type  1   force =     0.00000000    0.00000000    0.00000000
     atom   18 type  1   force =    -0.00001881    0.00001881    0.00000000
     atom   19 type  1   force =    -0.00001881   -0.00000000    0.00001881
     atom   20 type  1   force =    -0.00000000    0.00001166    0.00001166
     atom   21 type  1   force =     0.00000000    0.00000000   -0.00000000
     atom   22 type  1   force =    -0.00001166    0.00001166   -0.00000000
     atom   23 type  1   force =    -0.00001881    0.00000000   -0.00001881
     atom   24 type  1   force =     0.00000000    0.00001166   -0.00001166
     atom   25 type  1   force =     0.00000000    0.00000000    0.00000000
     atom   26 type  1   force =    -0.00001881   -0.00001881   -0.00000000
     atom   27 type  1   force =    -0.00001166    0.00000000    0.00001166
     atom   28 type  1   force =     0.00000000   -0.00001166    0.00001166
     atom   29 type  1   force =     0.00000000    0.00000000    0.00000000
     atom   30 type  1   force =    -0.00001166   -0.00001166   -0.00000000
     atom   31 type  1   force =    -0.00001166   -0.00000000   -0.00001166
     atom   32 type  1   force =     0.00000000   -0.00001166   -0.00001166

     Total force =     0.000108     Total SCF correction =     0.000859
     SCF correction compared to forces is large: reduce conv_thr to get better values


     Computing stress (Cartesian axis) and pressure

          total   stress  (Ry/bohr**3)                   (kbar)     P=   -9.01
  -0.00006122   0.00000000   0.00000000         -9.01      0.00      0.00
   0.00000000  -0.00006122   0.00000000          0.00     -9.01      0.00
   0.00000000   0.00000000  -0.00006122          0.00      0.00     -9.01


     Writing output data file vNpxcydTjHBHimTC.save/
 
     init_run     :      6.64s CPU      6.82s WALL (       1 calls)
     electrons    :    102.87s CPU    104.88s WALL (       1 calls)
     forces       :      1.21s CPU      1.26s WALL (       1 calls)
     stress       :      6.12s CPU      6.15s WALL (       1 calls)

     Called by init_run:
     wfcinit      :      6.23s CPU      6.38s WALL (       1 calls)
     potinit      :      0.08s CPU      0.08s WALL (       1 calls)
     hinit0       :      0.21s CPU      0.23s WALL (       1 calls)

     Called by electrons:
     c_bands      :     89.71s CPU     91.31s WALL (      10 calls)
     sum_band     :     12.43s CPU     12.77s WALL (      10 calls)
     v_of_rho     :      0.11s CPU      0.12s WALL (      10 calls)
     newd         :      0.09s CPU      0.12s WALL (      10 calls)
     PAW_pot      :      0.57s CPU      0.58s WALL (      10 calls)
     mix_rho      :      0.02s CPU      0.03s WALL (      10 calls)

     Called by c_bands:
     init_us_2    :      1.96s CPU      1.99s WALL (    1288 calls)
     cegterg      :     84.40s CPU     85.94s WALL (     560 calls)

     Called by sum_band:
     sum_band:bec :      0.05s CPU      0.05s WALL (     560 calls)
     addusdens    :      0.06s CPU      0.09s WALL (      10 calls)

     Called by *egterg:
     h_psi        :     61.79s CPU     63.08s WALL (    2203 calls)
     s_psi        :      4.69s CPU      4.71s WALL (    2203 calls)
     g_psi        :      0.23s CPU      0.23s WALL (    1587 calls)
     cdiaghg      :     11.94s CPU     11.99s WALL (    2091 calls)

     Called by h_psi:
     h_psi:pot    :     61.40s CPU     62.68s WALL (    2203 calls)
     h_psi:calbec :      5.10s CPU      5.43s WALL (    2203 calls)
     vloc_psi     :     51.52s CPU     52.44s WALL (    2203 calls)
     add_vuspsi   :      4.77s CPU      4.80s WALL (    2203 calls)

     General routines
     calbec       :      8.77s CPU      9.28s WALL (    3043 calls)
     fft          :      0.29s CPU      0.32s WALL (     137 calls)
     ffts         :      0.01s CPU      0.01s WALL (      10 calls)
     fftw         :     56.67s CPU     57.68s WALL (  218234 calls)
 
     Parallel routines
     fft_scatt_xy :      5.22s CPU      5.32s WALL (  218381 calls)
     fft_scatt_yz :     33.75s CPU     34.39s WALL (  218381 calls)
 
     PWSCF        :  1m58.31s CPU     2m 4.26s WALL

 
   This run was terminated on:   3:30: 6  25Mar2020            

=------------------------------------------------------------------------------=
   JOB DONE.
=------------------------------------------------------------------------------=
