
     Program PWSCF v.6.3 starts on 25Mar2020 at  3:30: 7 

     This program is part of the open-source Quantum ESPRESSO suite
     for quantum simulation of materials; please cite
         "P. Giannozzi et al., J. Phys.:Condens. Matter 21 395502 (2009);
         "P. Giannozzi et al., J. Phys.:Condens. Matter 29 465901 (2017);
          URL http://www.quantum-espresso.org", 
     in publications or presentations arising from this work. More details at
     http://www.quantum-espresso.org/quote

     Parallel version (MPI & OpenMP), running on      20 processor cores
     Number of MPI processes:                20
     Threads/MPI process:                     1

     MPI processes distributed on     1 nodes
     R & G space division:  proc/nbgrp/npool/nimage =      20
     Reading input from /rds/homes/b/bxp912/jobs/20200324_al_eos_e/wd/pwscf_eos/eos_11.in
Warning: card &IONS ignored
Warning: card ION_DYNAMICS = 'BFGS', ignored
Warning: card / ignored
Warning: card &CELL ignored
Warning: card CELL_DYNAMICS = 'BFGS', ignored
Warning: card CELL_FACTOR = 2.0, ignored
Warning: card PRESS = 0.0, ignored
Warning: card / ignored

     Current dimensions of program PWSCF are:
     Max number of different atomic species (ntypx) = 10
     Max number of k-points (npk) =  40000
     Max angular momentum in pseudopotentials (lmaxx) =  3
     Message from routine read_upf::
     Pseudo file /rds/homes/b/bxp912/pp/Al.pbe-nl-kjpaw_psl.1.0.0.UPF has been successfully fixed on the fly.
To avoid this message in the future you can permanently fix 
 your pseudo files following instructions given in: 
https://gitlab.com/QEF/q-e/blob/master/upftools/how_to_fix_upf.md
               file Al.pbe-nl-kjpaw_psl.1.0.0.UPF: wavefunction(s)  3S 3P renormalized

     Subspace diagonalization in iterative solution of the eigenvalue problem:
     a serial algorithm will be used

     Found symmetry operation: I + (  0.2500  0.2500  0.0000)
     This is a supercell, fractional translations are disabled
 
     Parallelization info
     --------------------
     sticks:   dense  smooth     PW     G-vecs:    dense   smooth      PW
     Min         187     187     52                 8619     8619    1244
     Max         189     189     53                 8620     8620    1246
     Sum        3753    3753   1041               172389   172389   24885
 


     bravais-lattice index     =            0
     lattice parameter (alat)  =      15.2652  a.u.
     unit-cell volume          =    3610.7902 (a.u.)^3
     number of atoms/cell      =           32
     number of atomic types    =            1
     number of electrons       =        96.00
     number of Kohn-Sham states=           58
     kinetic-energy cutoff     =      50.0000  Ry
     charge density cutoff     =     200.0000  Ry
     convergence threshold     =      1.0E-06
     mixing beta               =       0.1000
     number of iterations used =           10  plain     mixing
     Exchange-correlation      = SLA PW PBX PBC ( 1  4  3  4 0 0)

     celldm(1)=  15.265160  celldm(2)=   0.000000  celldm(3)=   0.000000
     celldm(4)=   0.000000  celldm(5)=   0.000000  celldm(6)=   0.000000

     crystal axes: (cart. coord. in units of alat)
               a(1) = (   1.005000   0.000000   0.000000 )  
               a(2) = (   0.000000   1.005000   0.000000 )  
               a(3) = (   0.000000   0.000000   1.005000 )  

     reciprocal axes: (cart. coord. in units 2 pi/alat)
               b(1) = (  0.995025  0.000000  0.000000 )  
               b(2) = (  0.000000  0.995025  0.000000 )  
               b(3) = (  0.000000  0.000000  0.995025 )  


     PseudoPot. # 1 for Al read from file:
     /rds/homes/b/bxp912/pp/Al.pbe-nl-kjpaw_psl.1.0.0.UPF
     MD5 check sum: 339dbea23cf3ab9a065ad45c0f9085d7
     Pseudo is Projector augmented-wave + core cor, Zval =  3.0
     Generated using "atomic" code by A. Dal Corso v.5.1
     Shape of augmentation charge: PSQ
     Using radial grid of 1135 points,  4 beta functions with: 
                l(1) =   0
                l(2) =   0
                l(3) =   1
                l(4) =   1
     Q(r) pseudized with 0 coefficients 


     atomic species   valence    mass     pseudopotential
        Al             3.00    26.98200     Al( 1.00)

     48 Sym. Ops., with inversion, found



   Cartesian axes

     site n.     atom                  positions (alat units)
         1           Al  tau(   1) = (   0.0000000   0.0000000   0.0000000  )
         2           Al  tau(   2) = (   0.2512500   0.2512500   0.0000000  )
         3           Al  tau(   3) = (   0.2512500   0.0000000   0.2512500  )
         4           Al  tau(   4) = (   0.0000000   0.2512500   0.2512500  )
         5           Al  tau(   5) = (   0.0000000   0.0000000   0.5025000  )
         6           Al  tau(   6) = (   0.2512500   0.2512500   0.5025000  )
         7           Al  tau(   7) = (   0.2512500   0.0000000   0.7537500  )
         8           Al  tau(   8) = (   0.0000000   0.2512500   0.7537500  )
         9           Al  tau(   9) = (   0.0000000   0.5025000   0.0000000  )
        10           Al  tau(  10) = (   0.2512500   0.7537500   0.0000000  )
        11           Al  tau(  11) = (   0.2512500   0.5025000   0.2512500  )
        12           Al  tau(  12) = (   0.0000000   0.7537500   0.2512500  )
        13           Al  tau(  13) = (   0.0000000   0.5025000   0.5025000  )
        14           Al  tau(  14) = (   0.2512500   0.7537500   0.5025000  )
        15           Al  tau(  15) = (   0.2512500   0.5025000   0.7537500  )
        16           Al  tau(  16) = (   0.0000000   0.7537500   0.7537500  )
        17           Al  tau(  17) = (   0.5025000   0.0000000   0.0000000  )
        18           Al  tau(  18) = (   0.7537500   0.2512500   0.0000000  )
        19           Al  tau(  19) = (   0.7537500   0.0000000   0.2512500  )
        20           Al  tau(  20) = (   0.5025000   0.2512500   0.2512500  )
        21           Al  tau(  21) = (   0.5025000   0.0000000   0.5025000  )
        22           Al  tau(  22) = (   0.7537500   0.2512500   0.5025000  )
        23           Al  tau(  23) = (   0.7537500   0.0000000   0.7537500  )
        24           Al  tau(  24) = (   0.5025000   0.2512500   0.7537500  )
        25           Al  tau(  25) = (   0.5025000   0.5025000   0.0000000  )
        26           Al  tau(  26) = (   0.7537500   0.7537500   0.0000000  )
        27           Al  tau(  27) = (   0.7537500   0.5025000   0.2512500  )
        28           Al  tau(  28) = (   0.5025000   0.7537500   0.2512500  )
        29           Al  tau(  29) = (   0.5025000   0.5025000   0.5025000  )
        30           Al  tau(  30) = (   0.7537500   0.7537500   0.5025000  )
        31           Al  tau(  31) = (   0.7537500   0.5025000   0.7537500  )
        32           Al  tau(  32) = (   0.5025000   0.7537500   0.7537500  )

     number of k points=    56  Marzari-Vanderbilt smearing, width (Ry)=  0.0400
                       cart. coord. in units 2pi/alat
        k(    1) = (   0.0452284   0.0452284   0.0452284), wk =   0.0120210
        k(    2) = (   0.0452284   0.0452284   0.1356852), wk =   0.0360631
        k(    3) = (   0.0452284   0.0452284   0.2261420), wk =   0.0360631
        k(    4) = (   0.0452284   0.0452284   0.3165988), wk =   0.0360631
        k(    5) = (   0.0452284   0.0452284   0.4070556), wk =   0.0360631
        k(    6) = (   0.0452284   0.0452284  -0.4975124), wk =   0.0180316
        k(    7) = (   0.0452284   0.1356852   0.1356852), wk =   0.0360631
        k(    8) = (   0.0452284   0.1356852   0.2261420), wk =   0.0721262
        k(    9) = (   0.0452284   0.1356852   0.3165988), wk =   0.0721262
        k(   10) = (   0.0452284   0.1356852   0.4070556), wk =   0.0721262
        k(   11) = (   0.0452284   0.1356852  -0.4975124), wk =   0.0360631
        k(   12) = (   0.0452284   0.2261420   0.2261420), wk =   0.0360631
        k(   13) = (   0.0452284   0.2261420   0.3165988), wk =   0.0721262
        k(   14) = (   0.0452284   0.2261420   0.4070556), wk =   0.0721262
        k(   15) = (   0.0452284   0.2261420  -0.4975124), wk =   0.0360631
        k(   16) = (   0.0452284   0.3165988   0.3165988), wk =   0.0360631
        k(   17) = (   0.0452284   0.3165988   0.4070556), wk =   0.0721262
        k(   18) = (   0.0452284   0.3165988  -0.4975124), wk =   0.0360631
        k(   19) = (   0.0452284   0.4070556   0.4070556), wk =   0.0360631
        k(   20) = (   0.0452284   0.4070556  -0.4975124), wk =   0.0360631
        k(   21) = (   0.0452284  -0.4975124  -0.4975124), wk =   0.0090158
        k(   22) = (   0.1356852   0.1356852   0.1356852), wk =   0.0120210
        k(   23) = (   0.1356852   0.1356852   0.2261420), wk =   0.0360631
        k(   24) = (   0.1356852   0.1356852   0.3165988), wk =   0.0360631
        k(   25) = (   0.1356852   0.1356852   0.4070556), wk =   0.0360631
        k(   26) = (   0.1356852   0.1356852  -0.4975124), wk =   0.0180316
        k(   27) = (   0.1356852   0.2261420   0.2261420), wk =   0.0360631
        k(   28) = (   0.1356852   0.2261420   0.3165988), wk =   0.0721262
        k(   29) = (   0.1356852   0.2261420   0.4070556), wk =   0.0721262
        k(   30) = (   0.1356852   0.2261420  -0.4975124), wk =   0.0360631
        k(   31) = (   0.1356852   0.3165988   0.3165988), wk =   0.0360631
        k(   32) = (   0.1356852   0.3165988   0.4070556), wk =   0.0721262
        k(   33) = (   0.1356852   0.3165988  -0.4975124), wk =   0.0360631
        k(   34) = (   0.1356852   0.4070556   0.4070556), wk =   0.0360631
        k(   35) = (   0.1356852   0.4070556  -0.4975124), wk =   0.0360631
        k(   36) = (   0.1356852  -0.4975124  -0.4975124), wk =   0.0090158
        k(   37) = (   0.2261420   0.2261420   0.2261420), wk =   0.0120210
        k(   38) = (   0.2261420   0.2261420   0.3165988), wk =   0.0360631
        k(   39) = (   0.2261420   0.2261420   0.4070556), wk =   0.0360631
        k(   40) = (   0.2261420   0.2261420  -0.4975124), wk =   0.0180316
        k(   41) = (   0.2261420   0.3165988   0.3165988), wk =   0.0360631
        k(   42) = (   0.2261420   0.3165988   0.4070556), wk =   0.0721262
        k(   43) = (   0.2261420   0.3165988  -0.4975124), wk =   0.0360631
        k(   44) = (   0.2261420   0.4070556   0.4070556), wk =   0.0360631
        k(   45) = (   0.2261420   0.4070556  -0.4975124), wk =   0.0360631
        k(   46) = (   0.2261420  -0.4975124  -0.4975124), wk =   0.0090158
        k(   47) = (   0.3165988   0.3165988   0.3165988), wk =   0.0120210
        k(   48) = (   0.3165988   0.3165988   0.4070556), wk =   0.0360631
        k(   49) = (   0.3165988   0.3165988  -0.4975124), wk =   0.0180316
        k(   50) = (   0.3165988   0.4070556   0.4070556), wk =   0.0360631
        k(   51) = (   0.3165988   0.4070556  -0.4975124), wk =   0.0360631
        k(   52) = (   0.3165988  -0.4975124  -0.4975124), wk =   0.0090158
        k(   53) = (   0.4070556   0.4070556   0.4070556), wk =   0.0120210
        k(   54) = (   0.4070556   0.4070556  -0.4975124), wk =   0.0180316
        k(   55) = (   0.4070556  -0.4975124  -0.4975124), wk =   0.0090158
        k(   56) = (  -0.4975124  -0.4975124  -0.4975124), wk =   0.0015026

     Dense  grid:   172389 G-vectors     FFT dimensions: (  72,  72,  72)

     Estimated max dynamical RAM per process >      82.97 MB

     Estimated total dynamical RAM >       1.62 GB

     Initial potential from superposition of free atoms

     starting charge   95.92671, renormalised to   96.00000
     Starting wfcs are  128 randomized atomic wfcs
     Checking if some PAW data can be deallocated... 

     total cpu time spent up to now is        7.5 secs

     Self-consistent Calculation

     iteration #  1     ecut=    50.00 Ry     beta= 0.10
     Davidson diagonalization with overlap
     ethr =  1.00E-02,  avg # of iterations =  3.1

     Threshold (ethr) on eigenvalues was too large:
     Diagonalizing with lowered threshold

     Davidson diagonalization with overlap
     ethr =  1.91E-04,  avg # of iterations =  4.6

     total cpu time spent up to now is       32.2 secs

     total energy              =   -1264.12244338 Ry
     Harris-Foulkes estimate   =   -1264.13181889 Ry
     estimated scf accuracy    <       0.17960246 Ry

     iteration #  2     ecut=    50.00 Ry     beta= 0.10
     Davidson diagonalization with overlap
     ethr =  1.87E-04,  avg # of iterations =  1.0

     total cpu time spent up to now is       39.7 secs

     total energy              =   -1264.08189491 Ry
     Harris-Foulkes estimate   =   -1264.12321006 Ry
     estimated scf accuracy    <       0.14422805 Ry

     iteration #  3     ecut=    50.00 Ry     beta= 0.10
     Davidson diagonalization with overlap
     ethr =  1.50E-04,  avg # of iterations =  1.0

     total cpu time spent up to now is       47.2 secs

     total energy              =   -1264.08464525 Ry
     Harris-Foulkes estimate   =   -1264.08465060 Ry
     estimated scf accuracy    <       0.00024177 Ry

     iteration #  4     ecut=    50.00 Ry     beta= 0.10
     Davidson diagonalization with overlap
     c_bands:  1 eigenvalues not converged
     c_bands:  1 eigenvalues not converged
     c_bands:  1 eigenvalues not converged
     c_bands:  1 eigenvalues not converged
     c_bands:  1 eigenvalues not converged
     c_bands:  1 eigenvalues not converged
     ethr =  2.52E-07,  avg # of iterations =  7.8

     total cpu time spent up to now is       65.2 secs

     total energy              =   -1264.08566804 Ry
     Harris-Foulkes estimate   =   -1264.08552248 Ry
     estimated scf accuracy    <       0.00021620 Ry

     iteration #  5     ecut=    50.00 Ry     beta= 0.10
     Davidson diagonalization with overlap
     c_bands:  1 eigenvalues not converged
     ethr =  2.25E-07,  avg # of iterations =  1.8

     total cpu time spent up to now is       73.1 secs

     total energy              =   -1264.08542186 Ry
     Harris-Foulkes estimate   =   -1264.08567168 Ry
     estimated scf accuracy    <       0.00053274 Ry

     iteration #  6     ecut=    50.00 Ry     beta= 0.10
     Davidson diagonalization with overlap
     ethr =  2.25E-07,  avg # of iterations =  2.0

     total cpu time spent up to now is       81.4 secs

     total energy              =   -1264.08544003 Ry
     Harris-Foulkes estimate   =   -1264.08544023 Ry
     estimated scf accuracy    <       0.00000189 Ry

     iteration #  7     ecut=    50.00 Ry     beta= 0.10
     Davidson diagonalization with overlap
     c_bands:  1 eigenvalues not converged
     ethr =  1.97E-09,  avg # of iterations =  6.3

     total cpu time spent up to now is       98.3 secs

     total energy              =   -1264.08544398 Ry
     Harris-Foulkes estimate   =   -1264.08544407 Ry
     estimated scf accuracy    <       0.00000131 Ry

     iteration #  8     ecut=    50.00 Ry     beta= 0.10
     Davidson diagonalization with overlap
     ethr =  1.36E-09,  avg # of iterations =  1.8

     total cpu time spent up to now is      106.2 secs

     total energy              =   -1264.08544380 Ry
     Harris-Foulkes estimate   =   -1264.08544402 Ry
     estimated scf accuracy    <       0.00000156 Ry

     iteration #  9     ecut=    50.00 Ry     beta= 0.10
     Davidson diagonalization with overlap
     ethr =  1.36E-09,  avg # of iterations =  1.3

     total cpu time spent up to now is      113.9 secs

     End of self-consistent calculation

          k = 0.0452 0.0452 0.0452 ( 21596 PWs)   bands (ev):

    -3.2658  -1.2377  -1.2377  -1.2377  -0.8356  -0.8356  -0.8356   0.7626
     0.7626   0.7627   1.1593   1.1593   1.1593   1.1593   1.1593   1.1594
     1.5549   1.5549   1.5549   2.7336   3.1126   3.1127   3.1127   3.5441
     3.5441   3.5442   3.9214   4.7781   4.7781   4.7781   6.2916   6.2916
     6.2917   6.6598   6.6598   6.6598   6.6599   6.6599   6.6599   7.0372
     7.0373   7.0373   7.0373   7.0373   7.0373   8.0594   8.0594   8.0594
     8.0595   8.0595   8.0595   8.5517   8.5517   8.5518   8.9322   8.9322
     8.9322   8.9323

          k = 0.0452 0.0452 0.1357 ( 21601 PWs)   bands (ev):

    -3.2287  -1.6043  -1.2011  -1.2011  -0.7991  -0.7991  -0.3983   0.4010
     0.4010   0.7987   0.7987   0.7988   1.1954   1.1954   1.5906   1.5907
     1.5909   1.9850   1.9851   2.3789   2.7690   2.7690   3.1477   3.5798
     3.9567   3.9567   4.2301   4.3433   4.8124   4.8124   6.1340   6.1340
     6.3191   6.3191   6.3274   6.3274   6.5011   6.5012   6.7079   6.7079
     6.9041   7.0756   7.0756   7.4343   7.4343   7.8418   7.8419   8.0511
     8.2088   8.2089   8.2284   8.2284   8.4301   8.4301   8.4428   8.4428
     8.5860   8.5860

          k = 0.0452 0.0452 0.2261 ( 21585 PWs)   bands (ev):

    -3.1544  -1.9351  -1.1279  -1.1279  -0.7261  -0.7261   0.0737   0.0747
     0.0748   0.4733   0.4733   0.8710   1.2674   1.2674   1.6627   2.0562
     2.0562   2.0575   2.4493   2.4493   2.4500   2.4500   2.8399   3.5785
     4.0272   4.4134   4.4135   4.8006   4.8809   4.8809   5.5013   5.5013
     5.8797   5.8798   6.0114   6.0114   6.3989   6.3989   6.7698   6.7698
     7.1451   7.1451   7.4304   7.5212   7.5212   7.6844   7.8112   7.8112
     7.9002   7.9003   7.9228   7.9228   8.1916   8.2774   8.2774   8.3523
     8.3523   8.6842

          k = 0.0452 0.0452 0.3166 ( 21555 PWs)   bands (ev):

    -3.0432  -2.2297  -1.0182  -1.0181  -0.6167  -0.6166  -0.2159  -0.2159
     0.1834   0.1835   0.5800   0.9793   1.3754   1.3754   1.7704   1.7710
     2.1646   2.1646   2.5553   2.5554   2.5568   2.9264   2.9469   2.9470
     4.5184   4.8636   4.8636   4.9051   4.9051   4.9838   4.9838   5.2464
     5.2464   5.2916   5.7375   5.7375   6.5057   6.5057   6.8006   6.8719
     6.8719   7.1830   7.1830   7.2483   7.2483   7.2692   7.2692   7.5649
     7.6259   7.6259   8.0030   8.0030   8.3883   8.3883   8.4783   8.4783
     8.5296   8.8414

          k = 0.0452 0.0452 0.4071 ( 21563 PWs)   bands (ev):

    -2.8949  -2.4881  -0.8720  -0.8720  -0.4709  -0.4708  -0.4707  -0.4707
    -0.0707  -0.0706   1.1197   1.1236   1.5193   1.5193   1.5196   1.9139
     1.9141   1.9141   2.2952   2.3074   3.0873   3.0873   3.4772   3.4773
     4.2441   4.2441   4.6299   4.6299   5.0437   5.1208   5.1208   5.4297
     5.4298   5.4977   5.4977   5.8153   6.1879   6.5716   6.5717   6.6475
     6.6475   6.9549   7.0088   7.0088   7.0317   7.0317   7.3856   7.3856
     7.3859   7.3859   7.7629   7.7630   8.6286   8.6286   8.8993   8.8993
     9.0018   9.0018

          k = 0.0452 0.0452-0.4975 ( 21578 PWs)   bands (ev):

    -2.7099  -2.7098  -0.6896  -0.6895  -0.6894  -0.6894  -0.2889  -0.2888
    -0.2888  -0.2887   1.3037   1.3038   1.6920   1.6920   1.6988   1.6988
     1.6990   1.6990   2.0928   2.0930   3.6508   3.6508   3.6509   3.6509
     4.0389   4.0389   4.0389   4.0389   5.2921   5.2921   5.2922   5.2922
     5.6009   5.6009   5.9859   5.9860   5.9860   5.9860   6.3704   6.3705
     6.8232   6.8232   6.8233   6.8234   7.1801   7.1802   7.1803   7.1803
     7.5571   7.5571   7.5572   7.5572   8.8094   8.8095   8.8096   8.8096
     9.1867   9.1868

          k = 0.0452 0.1357 0.1357 ( 21567 PWs)   bands (ev):

    -3.1916  -1.5676  -1.5676  -1.1645  -0.7626  -0.3619  -0.3619   0.0385
     0.4372   0.4373   0.8348   0.8348   1.2311   1.2311   1.6266   1.6266
     2.0209   2.0209   2.0218   2.4139   2.4144   3.1827   3.1827   3.6155
     3.6156   4.2650   4.2650   4.3784   4.7657   4.8467   5.7909   5.7909
     6.1559   6.1559   6.3513   6.3513   6.3631   6.5727   6.5727   6.9164
     6.9164   6.9392   6.9392   7.4829   7.4830   7.7060   7.7061   7.8660
     7.9380   7.9381   8.0853   8.0854   8.3705   8.3706   8.7384   8.7385
     8.8430   8.8430

          k = 0.0452 0.1357 0.2261 ( 21573 PWs)   bands (ev):

    -3.1173  -1.8983  -1.4942  -1.0913  -0.6896  -0.2891  -0.2886   0.1100
     0.1111   0.5095   0.5097   0.9067   0.9070   1.6978   1.6984   1.6993
     2.0920   2.0925   2.0932   2.4850   2.8752   2.8766   3.2528   3.6137
     3.6868   4.0626   4.3347   4.8356   4.9152   5.1545   5.2223   5.4804
     5.5328   5.8953   6.0451   6.2748   6.2750   6.4344   6.4421   6.6354
     7.0093   7.0836   7.2902   7.3953   7.4648   7.5549   7.5574   7.7115
     7.7190   7.7748   7.9047   8.0270   8.1534   8.2258   8.6056   8.6887
     8.9119   8.9176

          k = 0.0452 0.1357 0.3166 ( 21568 PWs)   bands (ev):

    -3.0061  -2.1929  -1.3842  -0.9816  -0.5802  -0.5799  -0.1800  -0.1795
     0.2197   0.6161   0.6177   0.6182   1.0153   1.4119   1.8061   1.8067
     2.1983   2.1998   2.5910   2.5922   2.9618   2.9814   2.9825   3.3726
     4.1679   4.4391   4.5138   4.5536   4.8974   5.0180   5.2035   5.2777
     5.3265   5.6603   5.7124   5.7716   6.3621   6.4523   6.5307   6.5408
     6.7380   6.8352   7.1141   7.1188   7.2736   7.2831   7.4984   7.5992
     7.6589   7.8559   7.9347   7.9804   8.1400   8.4144   8.4277   8.5636
     8.9227   9.0489

          k = 0.0452 0.1357 0.4071 ( 21563 PWs)   bands (ev):

    -2.8579  -2.4511  -1.2377  -0.8355  -0.8354  -0.4344  -0.4343  -0.0347
    -0.0343   0.3643   0.7628   1.1557   1.1595   1.1598   1.5554   1.9495
     2.3309   2.3428   2.3429   2.7317   2.7344   3.1227   3.5125   3.8921
     3.9010   4.2789   4.5784   4.6638   4.6926   4.9607   5.0484   5.0787
     5.1551   5.5319   5.8384   5.8501   6.2226   6.2350   6.4976   6.6666
     6.6817   6.8761   6.8769   6.9894   7.0432   7.0588   7.2532   7.2564
     7.3719   7.6287   7.7966   8.1743   8.2849   8.4195   8.6760   8.9347
     9.2017   9.3980

          k = 0.0452 0.1357-0.4975 ( 21546 PWs)   bands (ev):

    -2.6729  -2.6728  -1.0547  -1.0546  -0.6530  -0.6529  -0.2525  -0.2524
     0.1468   0.1469   0.9434   0.9435   1.3395   1.3397   1.7279   1.7279
     2.1284   2.1286   2.5210   2.5212   3.2969   3.2969   3.6860   3.6860
     4.0737   4.0737   4.4604   4.4604   4.7522   4.7523   5.2504   5.2505
     5.3263   5.3265   5.6358   5.6358   6.4051   6.4051   6.6696   6.6697
     6.7888   6.7889   6.8375   6.8377   6.8555   6.8557   7.0489   7.0490
     7.4253   7.4255   7.9683   7.9684   8.4633   8.4634   8.9579   8.9579
     9.3825   9.3826

          k = 0.0452 0.2261 0.2261 ( 21532 PWs)   bands (ev):

    -3.0432  -1.8247  -1.8247  -1.0182  -0.6166  -0.6164   0.1825   0.1826
     0.1836   0.1836   0.5819   0.5819   1.3745   1.3745   1.3759   1.7709
     2.1636   2.1636   2.5563   2.5563   3.3226   3.3226   3.3377   3.6841
     3.6841   3.7582   3.7583   4.8410   4.8410   4.9837   5.2920   5.5833
     5.5833   5.6781   6.0270   6.0271   6.1113   6.1114   6.5051   6.7283
     6.7283   6.7711   6.7711   7.1526   7.1526   7.2489   7.7378   7.7378
     7.7880   7.7880   7.9973   7.9973   8.6738   8.6738   8.8451   8.8451
     8.8889   9.0531

          k = 0.0452 0.2261 0.3166 ( 21563 PWs)   bands (ev):

    -2.9320  -2.1192  -1.7145  -0.9085  -0.9084  -0.5073  -0.1068   0.2913
     0.2922   0.2924   0.6884   0.6904   1.0864   1.0878   1.4836   1.8761
     2.2708   2.6623   2.6632   3.0328   3.0518   3.0534   3.4277   3.7897
     3.8318   3.8646   4.1980   4.2387   4.5615   4.9635   5.0865   5.3260
     5.7542   5.7819   5.8395   6.0864   6.1146   6.1386   6.1670   6.2409
     6.4932   6.5217   6.6104   6.8748   6.9746   7.1077   7.5610   7.8354
     7.8910   8.0488   8.1034   8.4293   8.4488   8.6083   8.6314   8.6561
     8.8599   9.1546

          k = 0.0452 0.2261 0.4071 ( 21554 PWs)   bands (ev):

    -2.7839  -2.3773  -1.5676  -1.1644  -0.7624  -0.3616  -0.3614   0.0383
     0.4362   0.4373   0.8339   0.8349   0.8352   1.2277   1.2317   2.4022
     2.4107   2.4137   2.8050   2.8054   3.1934   3.1936   3.5742   3.5829
     3.9303   4.3164   4.3479   4.3579   4.3783   4.7300   4.7630   5.2236
     5.4976   5.5237   5.6002   5.8725   5.9081   6.2502   6.2505   6.3042
     6.3597   6.6317   6.6883   6.7348   6.7490   7.0960   7.4406   7.8224
     7.8419   7.9743   8.0273   8.2417   8.3619   8.3888   8.6197   8.9230
     9.0081   9.5176

          k = 0.0452 0.2261-0.4975 ( 21554 PWs)   bands (ev):

    -2.5990  -2.5988  -1.3843  -1.3841  -0.5801  -0.5799  -0.1798  -0.1796
     0.6170   0.6172   0.6182   0.6184   1.0153   1.0155   1.7995   1.7996
     2.5918   2.5920   2.9774   2.9774   2.9825   2.9826   3.7562   3.7563
     4.1059   4.1060   4.1430   4.1430   4.9143   4.9144   4.9353   4.9353
     5.3205   5.3205   5.3947   5.3949   6.0426   6.0427   6.4233   6.4235
     6.5295   6.5297   6.8577   6.8578   6.9168   6.9170   7.2407   7.2408
     8.1502   8.1504   8.1951   8.1952   8.3557   8.3557   8.4136   8.4138
     9.5504   9.5504

          k = 0.0452 0.3166 0.3166 ( 21545 PWs)   bands (ev):

    -2.8209  -2.0087  -2.0087  -1.2010  -0.7989  -0.3980   0.0022   0.0022
     0.4009   0.4009   0.7968   0.7968   0.7991   1.1957   1.5890   1.5890
     2.7690   2.7690   3.1391   3.1391   3.1596   3.1596   3.5320   3.5320
     3.9164   3.9164   3.9717   3.9717   4.3237   5.0478   5.0479   5.1893
     5.5006   5.5007   5.8597   5.8597   5.9399   5.9400   6.2429   6.2429
     6.2704   6.5767   6.5767   6.6546   6.7006   6.7133   7.5768   7.5768
     8.3277   8.5313   8.5313   8.5802   8.5802   8.7323   8.7323   8.9052
     8.9110   8.9110

          k = 0.0452 0.3166 0.4071 ( 21532 PWs)   bands (ev):

    -2.6729  -2.2666  -1.8615  -1.4575  -0.6530  -0.2524  -0.2523   0.1472
     0.1474   0.5458   0.5460   0.9411   0.9433   1.3357   1.3374   2.1249
     2.5092   2.9111   3.2807   3.2910   3.2985   3.2996   3.3007   3.6696
     3.6720   3.6879   4.1126   4.4496   4.4843   4.8142   4.8468   5.2445
     5.2574   5.3263   5.6164   5.6200   5.6285   5.7024   5.9564   5.9990
     6.1059   6.4611   6.7913   6.8456   6.9774   7.1746   7.4444   7.7011
     7.9247   8.0820   8.3056   8.3116   8.7205   8.8648   9.0459   9.0644
     9.0993   9.2574

          k = 0.0452 0.3166-0.4975 ( 21548 PWs)   bands (ev):

    -2.4881  -2.4880  -1.6778  -1.6777  -0.4708  -0.4706  -0.0707  -0.0706
     0.3286   0.3288   0.7265   0.7267   1.1213   1.1215   1.9070   1.9070
     2.6927   2.6928   3.0880   3.0881   3.4575   3.4577   3.4751   3.4752
     3.8610   3.8611   4.2450   4.2450   4.6572   4.6572   5.0407   5.0407
     5.3984   5.3984   5.4106   5.4108   5.4973   5.4974   5.7907   5.7909
     6.2569   6.2570   6.9892   6.9893   7.3434   7.3434   7.7255   7.7256
     7.7680   7.7680   7.8722   7.8724   8.8930   8.8931   9.0239   9.0240
     9.5915   9.5918

          k = 0.0452 0.4071 0.4071 ( 21543 PWs)   bands (ev):

    -2.5250  -2.1192  -2.1192  -1.7145  -0.5071  -0.1070  -0.1068  -0.1068
     0.2922   0.2923   0.2925   0.6905   1.4795   1.4795   1.8742   1.8742
     2.6517   2.6517   3.0427   3.0428   3.4404   3.4405   3.8104   3.8104
     3.8261   3.8261   4.2549   4.2550   4.5703   4.5703   5.0026   5.0027
     5.0233   5.0234   5.3651   5.3845   5.3846   5.4631   5.8371   5.8371
     6.2227   6.4820   6.4820   6.9536   7.3108   7.4765   7.4765   7.6930
     7.7414   7.8380   8.4409   8.4409   8.8210   8.8210   9.2315   9.2316
     9.5646   9.6127

          k = 0.0452 0.4071-0.4975 ( 21536 PWs)   bands (ev):

    -2.3405  -2.3403  -1.9352  -1.9350  -0.3251  -0.3249   0.0745   0.0747
     0.0748   0.0749   0.4733   0.4735   1.6590   1.6591   2.0502   2.0502
     2.4432   2.4432   2.8295   2.8296   3.6145   3.6146   3.9851   3.9853
     3.9988   3.9988   4.3664   4.3664   4.4293   4.4293   4.7982   4.7982
     4.8124   4.8125   5.1781   5.1782   5.6337   5.6339   5.8906   5.8906
     6.0382   6.0383   6.9109   6.9110   7.3829   7.3830   7.6327   7.6329
     7.8613   7.8613   8.2425   8.2425   8.9881   8.9881   9.3672   9.3673
     9.4059   9.4060

          k = 0.0452-0.4975-0.4975 ( 21544 PWs)   bands (ev):

    -2.1562  -2.1560  -2.1560  -2.1559  -0.1433  -0.1432  -0.1432  -0.1430
     0.2559   0.2560   0.2560   0.2562   2.2289   2.2289   2.2289   2.2289
     2.2290   2.2290   2.2291   2.2291   4.1569   4.1569   4.1569   4.1569
     4.1570   4.1570   4.1570   4.1570   4.6063   4.6063   4.6063   4.6064
     4.6064   4.6065   4.6065   4.6065   5.8027   5.8028   5.8028   5.8030
     6.4500   6.4500   6.4500   6.4500   7.4425   7.4426   7.4426   7.4428
     8.4101   8.4101   8.4101   8.4102   8.7903   8.7903   8.7903   8.7904
     9.9510   9.9511

          k = 0.1357 0.1357 0.1357 ( 21557 PWs)   bands (ev):

    -3.1544  -1.5309  -1.5309  -1.5309  -0.3255  -0.3255  -0.3255   0.0748
     0.0748   0.0748   1.2671   1.2671   1.2671   1.2671   1.2671   1.2672
     1.6635   2.4496   2.4496   2.4496   2.8397   2.8397   2.8397   4.0274
     4.0274   4.0275   4.2998   4.2998   4.2998   5.1876   5.8231   5.8231
     5.8231   5.8231   5.8231   5.8232   6.9695   6.9695   6.9695   6.9695
     6.9695   6.9695   6.9742   6.9742   6.9742   7.3608   7.3608   7.3609
     8.4937   8.4937   8.4937   8.4937   8.4984   8.4985   8.4985   8.4985
     8.4986   8.4986

          k = 0.1357 0.1357 0.2261 ( 21534 PWs)   bands (ev):

    -3.0803  -1.8615  -1.4576  -1.4575  -0.2528  -0.2527  -0.2522  -0.2522
     0.1463   0.1474   0.9428   0.9428   1.3391   1.3391   1.3400   1.7337
     1.7337   2.5209   2.5210   2.5210   2.9121   2.9122   3.2875   3.6489
     3.7228   4.3695   4.3695   4.4838   4.4839   5.1882   5.1882   5.5142
     5.5142   5.6434   5.8793   5.8793   6.3589   6.3590   6.7365   7.0440
     7.0440   7.0441   7.0441   7.0499   7.0499   7.3991   7.3991   7.7534
     7.8798   7.8799   8.1882   8.1882   8.2253   8.2253   8.5977   8.5977
     8.9453   8.9453

          k = 0.1357 0.1357 0.3166 ( 21550 PWs)   bands (ev):

    -2.9690  -2.1560  -1.3476  -1.3475  -0.5435  -0.5435  -0.1437  -0.1436
     0.2562   0.6523   0.6538   0.6539   1.0518   1.4471   1.4471   2.2340
     2.2340   2.2358   2.2358   2.6278   2.9973   3.3929   3.4079   3.4080
     3.8289   4.4739   4.4739   4.5484   4.5485   4.9752   4.9752   5.2378
     5.2378   5.6730   5.6731   6.0380   6.0381   6.1038   6.1325   6.7734
     6.7735   7.1483   7.1483   7.1498   7.1498   7.2519   7.2519   7.7520
     7.7520   7.9120   7.9120   8.0855   8.0855   8.3953   8.5973   8.7157
     8.7158   9.4254

          k = 0.1357 0.1357 0.4071 ( 21567 PWs)   bands (ev):

    -2.8209  -2.4142  -1.2011  -1.2010  -0.7989  -0.7988   0.0016   0.0017
     0.4005   0.4006   0.4012   0.7991   1.1918   1.5909   1.5909   1.9855
     1.9855   2.3666   2.7672   2.7673   2.7701   3.1583   3.9271   3.9272
     3.9359   3.9359   4.3430   4.6131   4.6131   4.9952   4.9952   5.0798
     5.0798   5.4887   5.4996   5.4996   6.1556   6.1556   6.5317   6.5317
     6.6409   6.6409   6.6539   7.2861   7.2861   7.2890   7.2890   7.6464
     7.6464   7.6700   7.6700   7.7882   8.4656   8.4656   8.8618   8.8618
     9.2509   9.2509

          k = 0.1357 0.1357-0.4975 ( 21554 PWs)   bands (ev):

    -2.6360  -2.6358  -1.0182  -1.0181  -1.0180  -1.0180   0.1830   0.1831
     0.1832   0.1832   0.5821   0.5823   1.7637   1.7637   1.7703   1.7703
     1.7705   1.7705   2.9473   2.9474   3.3322   3.3322   3.3323   3.3323
     4.4944   4.4944   4.4944   4.4945   4.7869   4.7869   4.7870   4.7870
     4.9001   4.9001   6.0555   6.0555   6.0555   6.0555   6.3251   6.3252
     6.3253   6.3253   7.2065   7.2065   7.4551   7.4551   7.4552   7.4552
     7.4623   7.4623   7.4624   7.4624   8.9955   8.9956   8.9956   8.9956
     9.0398   9.0398

          k = 0.1357 0.2261 0.2261 ( 21542 PWs)   bands (ev):

    -3.0061  -1.7880  -1.7880  -1.3842  -0.5799  -0.1800  -0.1795  -0.1794
     0.2188   0.2188   1.0149   1.0150   1.0158   1.4104   1.4104   1.8055
     1.8055   2.2001   2.9810   2.9810   2.9831   2.9832   3.3730   3.7193
     3.7193   4.1687   4.1687   4.4391   4.8754   4.8755   4.9406   5.2543
     5.2543   5.5807   5.5807   6.0982   6.4229   6.4229   6.4239   6.4239
     6.7389   6.7888   6.7888   7.1132   7.4857   7.4857   7.5680   7.5680
     7.8219   7.8220   8.3036   8.3036   8.3283   8.3283   8.6352   8.6352
     8.9546   8.9546

          k = 0.1357 0.2261 0.3166 ( 21544 PWs)   bands (ev):

    -2.8949  -2.0823  -1.6777  -1.2743  -0.8719  -0.4706  -0.0710  -0.0704
     0.3275   0.7245   0.7261   0.7269   1.1225   1.1231   1.9119   1.9131
     1.9139   2.3055   2.6984   3.0682   3.0895   3.4619   3.4784   3.8249
     3.8668   3.9010   4.2329   4.5435   4.5963   4.6172   4.6591   5.3062
     5.3403   5.4311   5.6717   5.7900   5.8094   6.1460   6.1764   6.4626
     6.5262   6.5861   6.9389   7.2160   7.2460   7.2904   7.5949   7.7021
     7.9240   7.9502   8.0533   8.3592   8.4118   8.6642   8.7178   8.8098
     8.8434   9.1155

          k = 0.1357 0.2261 0.4071 ( 21565 PWs)   bands (ev):

    -2.7469  -2.3404  -1.5309  -1.1278  -1.1278  -0.7258   0.0743   0.0749
     0.4724   0.4730   0.4737   0.8700   1.2637   1.2672   1.6628   2.0563
     2.4379   2.4464   2.4494   2.8384   3.2306   3.6027   3.6095   3.9655
     3.9972   4.0053   4.0413   4.3513   4.3920   4.6826   5.0642   5.1273
     5.1743   5.1838   5.5092   5.5471   5.8670   5.9037   5.9543   6.2216
     6.3268   6.6650   7.0473   7.0927   7.1062   7.3500   7.5900   7.7355
     7.9818   8.0576   8.1172   8.2378   8.3144   8.5535   8.6348   8.9397
     8.9615   9.3235

          k = 0.1357 0.2261-0.4975 ( 21540 PWs)   bands (ev):

    -2.5620  -2.5619  -1.3476  -1.3475  -0.9451  -0.9449   0.2556   0.2557
     0.2562   0.2564   0.6532   0.6533   1.4471   1.4473   1.8354   1.8354
     2.2351   2.2353   3.0129   3.0129   3.4029   3.4030   3.4052   3.4054
     4.1409   4.1411   4.5608   4.5609   4.5866   4.5867   4.8562   4.8563
     4.9457   4.9458   5.6987   5.6989   5.7405   5.7405   6.0174   6.0176
     6.5088   6.5089   6.8387   6.8389   7.5057   7.5058   7.6575   7.6575
     7.9093   7.9095   8.2156   8.2157   8.4038   8.4038   8.7294   8.7295
     9.0763   9.0763

          k = 0.1357 0.3166 0.3166 ( 21550 PWs)   bands (ev):

    -2.7839  -1.9719  -1.9719  -1.1644  -1.1644  -0.3614  -0.3613   0.0380
     0.4375   0.8329   0.8329   0.8345   0.8346   1.6250   1.6250   1.6269
     2.4126   2.4127   3.1745   3.1745   3.1924   3.1924   3.5836   3.5836
     3.9515   3.9516   4.3578   4.3800   4.3801   4.6478   4.7185   4.7185
     5.4074   5.4074   5.5116   5.5117   5.8977   5.8977   5.9204   6.1870
     6.6404   6.6404   6.6602   6.6603   7.0727   7.3148   8.0710   8.0710
     8.1437   8.1437   8.1852   8.1852   8.7627   8.7627   8.8396   8.8396
     8.9060   8.9439

          k = 0.1357 0.3166 0.4071 ( 21540 PWs)   bands (ev):

    -2.6359  -2.2297  -1.8247  -1.4208  -1.0181  -0.6164  -0.2158   0.1831
     0.1838   0.5815   0.9772   0.9789   1.3716   1.3734   1.3753   2.1606
     2.5448   2.5553   2.9450   2.9461   3.3161   3.3264   3.7048   3.7054
     3.7220   4.1016   4.1076   4.1497   4.7867   4.8390   4.8782   4.8972
     4.9036   5.1673   5.2707   5.3026   5.5333   5.9483   6.0340   6.0473
     6.0491   6.4163   6.4422   7.1285   7.4353   7.5775   7.5915   7.9268
     8.2145   8.2795   8.3603   8.5692   8.5977   8.6621   8.7005   8.7201
     8.8864   9.3527

          k = 0.1357 0.3166-0.4975 ( 21554 PWs)   bands (ev):

    -2.4512  -2.4511  -1.6411  -1.6409  -0.8354  -0.8353  -0.0341  -0.0339
     0.3643   0.3644   1.1574   1.1575   1.1592   1.1593   1.9428   1.9428
     2.7284   2.7284   2.7332   2.7334   3.4929   3.4930   3.5087   3.5088
     3.8818   3.8819   4.3228   4.3228   4.6452   4.6452   4.9599   4.9601
     5.0824   5.0825   5.4095   5.4095   5.4604   5.4604   5.7638   5.7639
     6.2073   6.2075   6.9952   6.9953   7.4890   7.4890   7.9042   7.9042
     8.1413   8.1413   8.3894   8.3895   8.4529   8.4531   8.9595   8.9596
     9.2469   9.2469

          k = 0.1357 0.4071 0.4071 ( 21555 PWs)   bands (ev):

    -2.4881  -2.0824  -2.0823  -1.6777  -0.8719  -0.4706  -0.4706  -0.0703
     0.3281   0.7262   0.7262   1.1232   1.5154   1.5154   1.9100   1.9101
     2.6872   2.6872   3.0782   3.0782   3.0868   3.0868   3.4733   3.4733
     4.2296   4.2296   4.2388   4.2388   4.6606   4.6606   4.6713   4.6713
     4.9253   5.3033   5.3033   5.3761   5.4229   5.4230   5.7294   5.8029
     5.8029   6.5471   6.5471   6.9625   7.4551   7.8766   8.0439   8.0440
     8.0945   8.0945   8.1089   8.4192   8.7239   8.7240   9.1106   9.1106
     9.2198   9.2345

          k = 0.1357 0.4071-0.4975 ( 21552 PWs)   bands (ev):

    -2.3036  -2.3034  -1.8984  -1.8982  -0.6894  -0.6893  -0.2886  -0.2885
     0.5091   0.5093   0.9067   0.9069   1.6949   1.6950   2.0860   2.0860
     2.4789   2.4789   2.8650   2.8652   3.2633   3.2635   3.6492   3.6492
     4.0171   4.0172   4.3958   4.3959   4.4677   4.4678   4.8531   4.8532
     5.0978   5.0979   5.2160   5.2160   5.4640   5.4641   5.5941   5.5942
     5.9843   5.9843   7.0671   7.0671   7.5139   7.5139   7.8615   7.8616
     8.2121   8.2122   8.6425   8.6426   8.6572   8.6572   8.9015   8.9016
     9.2552   9.2552

          k = 0.1357-0.4975-0.4975 ( 21556 PWs)   bands (ev):

    -2.1193  -2.1192  -2.1192  -2.1190  -0.5072  -0.5070  -0.5070  -0.5069
     0.6899   0.6900   0.6900   0.6902   2.2646   2.2646   2.2646   2.2647
     2.2648   2.2648   2.2648   2.2648   3.8226   3.8226   3.8226   3.8226
     3.8227   3.8227   3.8228   3.8228   5.0090   5.0090   5.0090   5.0090
     5.0091   5.0091   5.0091   5.0091   5.2685   5.2686   5.2686   5.2688
     6.5155   6.5155   6.5155   6.5155   8.0102   8.0103   8.0103   8.0104
     8.0636   8.0637   8.0637   8.0637   9.2039   9.2040   9.2040   9.2040
     9.4435   9.4435

          k = 0.2261 0.2261 0.2261 ( 21560 PWs)   bands (ev):

    -2.9320  -1.7145  -1.7145  -1.7144  -0.5070  -0.5070  -0.5070   0.2913
     0.2913   0.2913   0.6908   1.4823   1.4823   1.4823   1.4824   1.4824
     1.4824   2.6628   2.6628   2.6628   3.4435   3.4435   3.4435   3.7897
     3.7897   3.7897   4.6244   4.6244   4.6245   4.9440   4.9440   4.9440
     4.9440   4.9440   4.9440   6.1113   6.1113   6.1113   6.5519   6.8661
     6.8661   6.8661   6.8662   6.8662   6.8662   7.8893   7.8893   7.8893
     8.0169   8.0169   8.0169   8.0169   8.0169   8.0169   9.0525   9.0525
     9.0525   9.0525

          k = 0.2261 0.2261 0.3166 ( 21545 PWs)   bands (ev):

    -2.8209  -2.0087  -1.6043  -1.6043  -0.7988  -0.7988  -0.3977   0.4000
     0.4000   0.4013   0.7968   1.1945   1.1945   1.5902   1.5902   1.9836
     1.9836   2.3780   2.3780   3.1391   3.1570   3.5488   3.8952   3.8952
     3.9362   3.9362   4.3026   4.3027   4.3452   4.6657   4.6657   5.0450
     5.0450   5.1152   5.1152   5.4767   5.8341   5.8341   6.2411   6.2411
     6.9732   6.9732   7.0387   7.3407   7.3408   7.3895   7.3895   7.7396
     7.7396   7.9882   7.9882   8.4987   8.4988   8.7284   8.7927   8.7927
     9.1677   9.1677

          k = 0.2261 0.2261 0.4071 ( 21539 PWs)   bands (ev):

    -2.6729  -2.2666  -1.4575  -1.4575  -1.0546  -1.0546  -0.2521   0.1476
     0.5447   0.5448   0.9422   0.9422   1.3357   1.7338   1.7338   2.1280
     2.1280   2.5092   2.5178   2.5178   3.6704   3.6800   3.6800   3.6873
     4.0356   4.0356   4.1146   4.4212   4.4212   4.4585   4.4586   4.8620
     5.1666   5.1666   5.5943   5.5943   5.6390   5.6390   5.6471   5.6471
     6.7791   6.7791   7.1135   7.1135   7.4966   7.4966   7.5576   7.8319
     7.8319   8.1109   8.1109   8.5785   8.5785   8.6865   9.0129   9.0130
     9.0444   9.0445

          k = 0.2261 0.2261-0.4975 ( 21562 PWs)   bands (ev):

    -2.4881  -2.4880  -1.2744  -1.2743  -1.2742  -1.2742  -0.0704  -0.0702
     0.7254   0.7255   0.7256   0.7256   1.9070   1.9070   1.9131   1.9131
     1.9132   1.9132   3.0838   3.0839   3.0839   3.0839   3.8472   3.8474
     4.2110   4.2110   4.2111   4.2111   4.2873   4.2873   4.9931   4.9931
     4.9932   4.9932   5.4080   5.4081   5.4082   5.4082   6.1943   6.1943
     6.1943   6.1943   7.2878   7.2878   7.2880   7.2880   8.1075   8.1075
     8.1837   8.1838   8.1838   8.1838   8.5674   8.5674   8.5675   8.5675
     9.4881   9.4881

          k = 0.2261 0.3166 0.3166 ( 21565 PWs)   bands (ev):

    -2.7099  -1.8983  -1.8983  -1.4942  -1.0912  -0.6893  -0.6893   0.1113
     0.5086   0.9050   0.9051   1.3025   1.3026   1.6968   1.6968   2.0910
     2.0910   2.0922   2.8751   2.8751   3.2453   3.2453   4.0005   4.0217
     4.0218   4.0386   4.0387   4.4067   4.4067   4.4244   4.7692   4.7693
     4.8347   4.8347   5.2006   5.2007   5.5594   5.6050   6.3447   6.3448
     6.7190   6.7190   7.1112   7.1113   7.4527   7.4528   7.5242   7.8732
     7.8732   8.0759   8.2218   8.2218   8.8170   8.8170   8.8990   8.8990
     9.0274   9.6130

          k = 0.2261 0.3166 0.4071 ( 21547 PWs)   bands (ev):

    -2.5620  -2.1560  -1.7512  -1.3476  -1.3475  -0.9449  -0.5434  -0.1430
     0.6533   1.0493   1.0504   1.4435   1.4453   1.4465   1.8415   2.2321
     2.2341   2.6160   2.6247   2.6265   3.3869   3.3972   3.4026   3.7753
     3.7855   4.1408   4.1610   4.5256   4.5433   4.5433   4.5915   4.6005
     4.9054   4.9257   4.9771   5.3384   5.3586   5.7359   6.1142   6.1275
     6.4840   6.5000   6.8675   7.2269   7.2645   7.5949   7.9611   7.9788
     8.0418   8.1164   8.3890   8.5223   8.6667   8.7362   8.8626   9.0392
     9.1678   9.2368

          k = 0.2261 0.3166-0.4975 ( 21566 PWs)   bands (ev):

    -2.3774  -2.3772  -1.5677  -1.5675  -1.1645  -1.1643  -0.3614  -0.3612
     0.8338   0.8340   1.2294   1.2295   1.6261   1.6262   2.0144   2.0144
     2.4126   2.4127   2.7995   2.7995   3.1902   3.1902   3.5635   3.5636
     3.9472   3.9472   4.3159   4.3161   4.3980   4.3982   4.6996   4.6997
     5.0622   5.0624   5.1680   5.1680   5.5478   5.5478   5.9145   5.9145
     6.6583   6.6584   6.6813   6.6814   7.7480   7.7480   7.7699   7.7700
     8.4849   8.4849   8.4864   8.4865   8.5903   8.5903   8.9360   8.9360
     9.2082   9.2135

          k = 0.2261 0.4071 0.4071 ( 21565 PWs)   bands (ev):

    -2.4142  -2.0087  -2.0087  -1.6043  -1.2010  -0.7988  -0.7988  -0.3977
     0.7978   1.1945   1.1946   1.5872   1.5873   1.5903   1.9817   1.9817
     2.7584   2.7584   2.7671   2.7671   3.1491   3.1492   3.1571   3.1571
     3.9254   3.9254   4.2809   4.2911   4.2912   4.6643   4.6643   4.7501
     4.7501   5.0275   5.1139   5.1140   5.5145   5.8725   5.8725   6.2556
     6.2556   6.6262   6.6262   6.6485   7.7187   7.7821   7.7821   8.1074
     8.1075   8.4549   8.4933   8.4933   8.5580   8.8011   8.8011   8.9087
     9.2033   9.2033

          k = 0.2261 0.4071-0.4975 ( 21554 PWs)   bands (ev):

    -2.2298  -2.2297  -1.8248  -1.8247  -1.0181  -1.0180  -0.6164  -0.6163
     0.9782   0.9783   1.3745   1.3746   1.7666   1.7667   2.1575   2.1575
     2.5502   2.5502   2.9361   2.9362   2.9446   2.9448   3.3316   3.3317
     3.7169   3.7169   4.0981   4.0983   4.4555   4.4557   4.8354   4.8356
     4.9066   4.9068   5.2891   5.2892   5.6697   5.6698   6.0462   6.0464
     6.0495   6.0495   7.1670   7.1670   7.2007   7.2007   8.2839   8.2840
     8.3308   8.3308   8.6013   8.6014   8.6479   8.6479   8.9730   8.9731
     9.0387   9.0387

          k = 0.2261-0.4975-0.4975 ( 21560 PWs)   bands (ev):

    -2.0456  -2.0455  -2.0455  -2.0454  -0.8355  -0.8353  -0.8353  -0.8352
     1.1584   1.1585   1.1585   1.1587   2.3360   2.3361   2.3361   2.3361
     2.3362   2.3362   2.3362   2.3362   3.5077   3.5077   3.5077   3.5077
     3.5078   3.5078   3.5079   3.5079   4.6292   4.6293   4.6293   4.6295
     5.4606   5.4606   5.4606   5.4607   5.4607   5.4608   5.4608   5.4608
     6.5947   6.5947   6.5947   6.5947   7.7511   7.7512   7.7512   7.7512
     8.7678   8.7679   8.7679   8.7681   8.8281   8.8281   8.8281   8.8282
     8.8283   8.8283

          k = 0.3166 0.3166 0.3166 ( 21545 PWs)   bands (ev):

    -2.5989  -1.7880  -1.7880  -1.7879  -0.9815  -0.9815  -0.9815  -0.1793
     1.0133   1.0133   1.0133   1.8044   1.8044   1.8044   1.8044   1.8044
     1.8045   2.5908   2.5908   2.5908   3.3515   3.3515   3.3515   4.1268
     4.1268   4.1268   4.1268   4.1268   4.1268   4.5092   4.5092   4.5092
     4.9420   4.9420   4.9420   5.3246   5.3246   5.3246   6.8267   6.8267
     6.8267   6.8267   6.8267   6.8267   7.5953   7.5953   7.5953   7.5953
     7.5953   7.5953   8.0084   8.8292   8.8292   8.8293   9.2189   9.2189
     9.2189   9.7264

          k = 0.3166 0.3166 0.4071 ( 21570 PWs)   bands (ev):

    -2.4511  -2.0455  -1.6410  -1.6410  -1.2376  -1.2376  -0.8353  -0.4341
     1.1574   1.1575   1.5513   1.5531   1.5532   1.9478   1.9478   2.3393
     2.3393   2.3412   2.3412   2.7228   3.1216   3.4929   3.4929   3.5031
     3.5032   3.8808   3.8808   4.2562   4.2661   4.2662   4.6299   4.6300
     4.7156   5.0798   5.1002   5.1002   5.8475   5.8475   6.2180   6.2180
     6.9675   6.9675   6.9858   6.9858   7.3402   7.3402   7.3517   7.3517
     8.1115   8.1116   8.4331   8.4331   8.5247   9.1494   9.1494   9.1809
     9.2354   9.2354

          k = 0.3166 0.3166-0.4975 ( 21546 PWs)   bands (ev):

    -2.2667  -2.2666  -1.4576  -1.4575  -1.4575  -1.4574  -0.6529  -0.6527
     1.3373   1.3374   1.3375   1.3375   2.1217   2.1218   2.1267   2.1267
     2.1269   2.1269   2.9062   2.9062   2.9062   2.9062   3.6693   3.6693
     3.6694   3.6694   3.6816   3.6817   4.4380   4.4381   4.4382   4.4382
     4.8724   4.8725   5.6370   5.6370   5.6370   5.6370   6.4019   6.4019
     6.4020   6.4020   7.1424   7.1424   7.1425   7.1425   7.8809   7.8809
     7.8809   7.8809   8.6588   8.6589   8.6589   8.6589   9.0719   9.0719
     9.2955   9.2956

          k = 0.3166 0.4071 0.4071 ( 21587 PWs)   bands (ev):

    -2.3035  -1.8983  -1.8983  -1.4942  -1.4942  -1.0912  -1.0912  -0.6893
     1.3015   1.6949   1.6949   1.6968   1.6968   2.0891   2.0891   2.0910
     2.4821   2.4821   2.8651   2.8651   2.8736   2.8736   3.2554   3.2554
     3.6341   3.6441   3.6441   4.0211   4.0212   4.0278   4.0278   4.4030
     5.2216   5.2217   5.6026   5.6026   5.6038   6.3575   6.3576   6.3690
     6.7342   6.7342   6.7416   6.7417   7.4830   7.4831   7.5039   7.5039
     7.8527   7.8681   7.8681   8.5994   8.5994   8.6315   8.9918   8.9919
     9.0397   9.2638

          k = 0.3166 0.4071-0.4975 ( 21582 PWs)   bands (ev):

    -2.1193  -2.1191  -1.7146  -1.7144  -1.3110  -1.3108  -0.9085  -0.9083
     1.4812   1.4814   1.8742   1.8743   1.8761   1.8762   2.2647   2.2647
     2.6571   2.6571   2.6602   2.6603   3.0426   3.0427   3.0482   3.0482
     3.4370   3.4370   3.8102   3.8103   3.8195   3.8197   4.1958   4.1959
     5.3933   5.3934   5.7738   5.7738   6.1534   6.1535   6.1573   6.1573
     6.5321   6.5322   6.9218   6.9218   7.2808   7.2808   7.6586   7.6588
     8.0284   8.0284   8.0531   8.0531   8.4155   8.4155   8.7807   8.7808
     9.4288   9.4290

          k = 0.3166-0.4975-0.4975 ( 21580 PWs)   bands (ev):

    -1.9352  -1.9351  -1.9351  -1.9349  -1.1279  -1.1278  -1.1278  -1.1276
     1.6608   1.6609   1.6609   1.6611   2.4431   2.4431   2.4431   2.4432
     2.4433   2.4433   2.4433   2.4433   3.2252   3.2252   3.2252   3.2253
     3.2254   3.2254   3.2254   3.2254   3.9858   3.9859   3.9859   3.9861
     5.9477   5.9477   5.9477   5.9477   5.9478   5.9478   5.9478   5.9478
     6.7028   6.7028   6.7028   6.7029   7.4728   7.4729   7.4729   7.4729
     8.2055   8.2056   8.2056   8.2056   8.2057   8.2057   8.2057   8.2057
     9.5993   9.5995

          k = 0.4071 0.4071 0.4071 ( 21566 PWs)   bands (ev):

    -2.1560  -1.7512  -1.7512  -1.7512  -1.3475  -1.3475  -1.3475  -0.9449
     1.8384   1.8384   1.8384   2.2321   2.2321   2.2321   2.2321   2.2321
     2.2322   2.6246   2.6246   2.6246   3.0071   3.0071   3.0071   3.3969
     3.3969   3.3969   3.3970   3.3970   3.3970   3.7843   3.7843   3.7843
     5.7406   5.7406   5.7407   6.1243   6.1243   6.1243   6.8753   6.8753
     6.8753   6.8753   6.8753   6.8753   7.2600   7.2600   7.2600   7.2600
     7.2600   7.2600   8.0005   8.0005   8.0006   8.3879   8.3879   8.3880
     9.5533  10.1370

          k = 0.4071 0.4071-0.4975 ( 21584 PWs)   bands (ev):

    -1.9720  -1.9718  -1.5677  -1.5676  -1.5675  -1.5675  -1.1645  -1.1643
     2.0174   2.0175   2.0176   2.0176   2.4075   2.4075   2.4106   2.4107
     2.4108   2.4108   2.7994   2.7995   2.7995   2.7995   3.1844   3.1844
     3.1846   3.1846   3.1898   3.1898   3.5733   3.5734   3.5735   3.5735
     5.9146   5.9147   6.2930   6.2931   6.2931   6.2931   6.6774   6.6775
     6.6775   6.6775   7.0504   7.0504   7.0506   7.0506   7.4239   7.4239
     7.4239   7.4239   7.8094   7.8095   7.8095   7.8095   8.1779   8.1780
    10.0976  10.0979

          k = 0.4071-0.4975-0.4975 ( 21592 PWs)   bands (ev):

    -1.7881  -1.7880  -1.7880  -1.7878  -1.3843  -1.3842  -1.3842  -1.3840
     2.1963   2.1964   2.1964   2.1966   2.5857   2.5857   2.5857   2.5858
     2.5859   2.5859   2.5859   2.5859   2.9770   2.9770   2.9770   2.9771
     2.9772   2.9772   2.9772   2.9772   3.3614   3.3615   3.3615   3.3617
     6.4677   6.4678   6.4678   6.4678   6.4679   6.4679   6.4679   6.4679
     6.8440   6.8440   6.8440   6.8440   7.2288   7.2289   7.2289   7.2289
     7.5997   7.5997   7.5997   7.5998   7.5999   7.5999   7.5999   7.5999
    10.4768  10.4769

          k =-0.4975-0.4975-0.4975 ( 21584 PWs)   bands (ev):

    -1.6044  -1.6044  -1.6044  -1.6044  -1.6042  -1.6042  -1.6042  -1.6041
     2.7637   2.7637   2.7637   2.7637   2.7637   2.7638   2.7638   2.7638
     2.7639   2.7639   2.7639   2.7639   2.7639   2.7639   2.7639   2.7639
     2.7639   2.7639   2.7640   2.7640   2.7640   2.7640   2.7640   2.7640
     7.0191   7.0191   7.0191   7.0192   7.0192   7.0192   7.0192   7.0192
     7.0192   7.0192   7.0192   7.0192   7.0193   7.0193   7.0193   7.0193
     7.0193   7.0194   7.0194   7.0194   7.0194   7.0194   7.0194   7.0194
    11.1817  11.1818

     the Fermi energy is     7.7739 ev

!    total energy              =   -1264.08544355 Ry
     Harris-Foulkes estimate   =   -1264.08544388 Ry
     estimated scf accuracy    <       0.00000069 Ry

     total all-electron energy =    -15540.654466 Ry

     The total energy is the sum of the following terms:

     one-electron contribution =     100.18550119 Ry
     hartree contribution      =       0.19458817 Ry
     xc contribution           =     -82.68044149 Ry
     ewald contribution        =    -172.13981903 Ry
     one-center paw contrib.   =   -1109.64231402 Ry
     smearing contrib. (-TS)   =      -0.00295836 Ry

     convergence has been achieved in   9 iterations

     Forces acting on atoms (cartesian axes, Ry/au):

     atom    1 type  1   force =     0.00000000    0.00000000    0.00000000
     atom    2 type  1   force =     0.00001658    0.00001658    0.00000000
     atom    3 type  1   force =     0.00001658    0.00000000    0.00001658
     atom    4 type  1   force =    -0.00000000    0.00001658    0.00001658
     atom    5 type  1   force =     0.00000000    0.00000000    0.00000000
     atom    6 type  1   force =     0.00000517    0.00000517   -0.00000000
     atom    7 type  1   force =     0.00001658    0.00000000   -0.00001658
     atom    8 type  1   force =     0.00000000    0.00001658   -0.00001658
     atom    9 type  1   force =     0.00000000    0.00000000   -0.00000000
     atom   10 type  1   force =     0.00001658   -0.00001658    0.00000000
     atom   11 type  1   force =     0.00000517    0.00000000    0.00000517
     atom   12 type  1   force =    -0.00000000   -0.00001658    0.00001658
     atom   13 type  1   force =     0.00000000    0.00000000    0.00000000
     atom   14 type  1   force =     0.00000517   -0.00000517    0.00000000
     atom   15 type  1   force =     0.00000517    0.00000000   -0.00000517
     atom   16 type  1   force =    -0.00000000   -0.00001658   -0.00001658
     atom   17 type  1   force =     0.00000000    0.00000000    0.00000000
     atom   18 type  1   force =    -0.00001658    0.00001658    0.00000000
     atom   19 type  1   force =    -0.00001658   -0.00000000    0.00001658
     atom   20 type  1   force =    -0.00000000    0.00000517    0.00000517
     atom   21 type  1   force =     0.00000000    0.00000000    0.00000000
     atom   22 type  1   force =    -0.00000517    0.00000517    0.00000000
     atom   23 type  1   force =    -0.00001658    0.00000000   -0.00001658
     atom   24 type  1   force =     0.00000000    0.00000517   -0.00000517
     atom   25 type  1   force =     0.00000000   -0.00000000    0.00000000
     atom   26 type  1   force =    -0.00001658   -0.00001658    0.00000000
     atom   27 type  1   force =    -0.00000517   -0.00000000    0.00000517
     atom   28 type  1   force =     0.00000000   -0.00000517    0.00000517
     atom   29 type  1   force =     0.00000000    0.00000000    0.00000000
     atom   30 type  1   force =    -0.00000517   -0.00000517    0.00000000
     atom   31 type  1   force =    -0.00000517    0.00000000   -0.00000517
     atom   32 type  1   force =     0.00000000   -0.00000517   -0.00000517

     Total force =     0.000085     Total SCF correction =     0.000649
     SCF correction compared to forces is large: reduce conv_thr to get better values


     Computing stress (Cartesian axis) and pressure

          total   stress  (Ry/bohr**3)                   (kbar)     P=  -11.20
  -0.00007614   0.00000000   0.00000000        -11.20      0.00      0.00
   0.00000000  -0.00007614   0.00000000          0.00    -11.20      0.00
   0.00000000   0.00000000  -0.00007614          0.00      0.00    -11.20


     Writing output data file vrjbXYEjROEOVaSr.save/
 
     init_run     :      6.75s CPU      6.95s WALL (       1 calls)
     electrons    :    104.41s CPU    106.40s WALL (       1 calls)
     forces       :      1.18s CPU      1.23s WALL (       1 calls)
     stress       :      6.11s CPU      6.14s WALL (       1 calls)

     Called by init_run:
     wfcinit      :      6.19s CPU      6.35s WALL (       1 calls)
     potinit      :      0.09s CPU      0.10s WALL (       1 calls)
     hinit0       :      0.35s CPU      0.38s WALL (       1 calls)

     Called by electrons:
     c_bands      :     91.24s CPU     92.84s WALL (      10 calls)
     sum_band     :     12.44s CPU     12.76s WALL (      10 calls)
     v_of_rho     :      0.12s CPU      0.12s WALL (      10 calls)
     newd         :      0.08s CPU      0.12s WALL (      10 calls)
     PAW_pot      :      0.57s CPU      0.58s WALL (      10 calls)
     mix_rho      :      0.02s CPU      0.03s WALL (      10 calls)

     Called by c_bands:
     init_us_2    :      1.97s CPU      2.00s WALL (    1288 calls)
     cegterg      :     86.04s CPU     87.57s WALL (     560 calls)

     Called by sum_band:
     sum_band:bec :      0.06s CPU      0.06s WALL (     560 calls)
     addusdens    :      0.06s CPU      0.10s WALL (      10 calls)

     Called by *egterg:
     h_psi        :     62.42s CPU     63.67s WALL (    2329 calls)
     s_psi        :      4.79s CPU      4.82s WALL (    2329 calls)
     g_psi        :      0.23s CPU      0.24s WALL (    1713 calls)
     cdiaghg      :     12.51s CPU     12.57s WALL (    2217 calls)

     Called by h_psi:
     h_psi:pot    :     62.02s CPU     63.26s WALL (    2329 calls)
     h_psi:calbec :      5.17s CPU      5.49s WALL (    2329 calls)
     vloc_psi     :     51.92s CPU     52.82s WALL (    2329 calls)
     add_vuspsi   :      4.90s CPU      4.93s WALL (    2329 calls)

     General routines
     calbec       :      8.92s CPU      9.41s WALL (    3169 calls)
     fft          :      0.41s CPU      0.45s WALL (     137 calls)
     ffts         :      0.01s CPU      0.01s WALL (      10 calls)
     fftw         :     57.06s CPU     58.03s WALL (  219784 calls)
 
     Parallel routines
     fft_scatt_xy :      5.24s CPU      5.33s WALL (  219931 calls)
     fft_scatt_yz :     34.22s CPU     34.83s WALL (  219931 calls)
 
     PWSCF        :  1m59.93s CPU     2m 5.90s WALL

 
   This run was terminated on:   3:32:13  25Mar2020            

=------------------------------------------------------------------------------=
   JOB DONE.
=------------------------------------------------------------------------------=
