--------------------------------------------------------------------------
WARNING: There was an error initializing an OpenFabrics device.

  Local host:   bear-pg0211u08a
  Local device: mlx5_0
--------------------------------------------------------------------------

     Program PWSCF v.6.3 starts on 25Mar2020 at  3:22: 3 

     This program is part of the open-source Quantum ESPRESSO suite
     for quantum simulation of materials; please cite
         "P. Giannozzi et al., J. Phys.:Condens. Matter 21 395502 (2009);
         "P. Giannozzi et al., J. Phys.:Condens. Matter 29 465901 (2017);
          URL http://www.quantum-espresso.org", 
     in publications or presentations arising from this work. More details at
     http://www.quantum-espresso.org/quote

     Parallel version (MPI & OpenMP), running on      20 processor cores
     Number of MPI processes:                20
     Threads/MPI process:                     1

     MPI processes distributed on     1 nodes
     R & G space division:  proc/nbgrp/npool/nimage =      20
     Reading input from /rds/homes/b/bxp912/jobs/20200324_al_eos_e/wd/pwscf_eos/eos_7.in
Warning: card &IONS ignored
Warning: card ION_DYNAMICS = 'BFGS', ignored
Warning: card / ignored
Warning: card &CELL ignored
Warning: card CELL_DYNAMICS = 'BFGS', ignored
Warning: card CELL_FACTOR = 2.0, ignored
Warning: card PRESS = 0.0, ignored
Warning: card / ignored

     Current dimensions of program PWSCF are:
     Max number of different atomic species (ntypx) = 10
     Max number of k-points (npk) =  40000
     Max angular momentum in pseudopotentials (lmaxx) =  3
     Message from routine read_upf::
     Pseudo file /rds/homes/b/bxp912/pp/Al.pbe-nl-kjpaw_psl.1.0.0.UPF has been successfully fixed on the fly.
To avoid this message in the future you can permanently fix 
 your pseudo files following instructions given in: 
https://gitlab.com/QEF/q-e/blob/master/upftools/how_to_fix_upf.md
               file Al.pbe-nl-kjpaw_psl.1.0.0.UPF: wavefunction(s)  3S 3P renormalized

     Subspace diagonalization in iterative solution of the eigenvalue problem:
     a serial algorithm will be used

     Found symmetry operation: I + (  0.2500  0.2500  0.0000)
     This is a supercell, fractional translations are disabled
 
     Parallelization info
     --------------------
     sticks:   dense  smooth     PW     G-vecs:    dense   smooth      PW
     Min         185     185     51                 8527     8527    1241
     Max         186     186     52                 8532     8532    1244
     Sum        3713    3713   1033               170589   170589   24837
 


     bravais-lattice index     =            0
     lattice parameter (alat)  =      15.2652  a.u.
     unit-cell volume          =    3567.8476 (a.u.)^3
     number of atoms/cell      =           32
     number of atomic types    =            1
     number of electrons       =        96.00
     number of Kohn-Sham states=           58
     kinetic-energy cutoff     =      50.0000  Ry
     charge density cutoff     =     200.0000  Ry
     convergence threshold     =      1.0E-06
     mixing beta               =       0.1000
     number of iterations used =           10  plain     mixing
     Exchange-correlation      = SLA PW PBX PBC ( 1  4  3  4 0 0)

     celldm(1)=  15.265160  celldm(2)=   0.000000  celldm(3)=   0.000000
     celldm(4)=   0.000000  celldm(5)=   0.000000  celldm(6)=   0.000000

     crystal axes: (cart. coord. in units of alat)
               a(1) = (   1.001000   0.000000   0.000000 )  
               a(2) = (   0.000000   1.001000   0.000000 )  
               a(3) = (   0.000000   0.000000   1.001000 )  

     reciprocal axes: (cart. coord. in units 2 pi/alat)
               b(1) = (  0.999001  0.000000  0.000000 )  
               b(2) = (  0.000000  0.999001  0.000000 )  
               b(3) = (  0.000000  0.000000  0.999001 )  


     PseudoPot. # 1 for Al read from file:
     /rds/homes/b/bxp912/pp/Al.pbe-nl-kjpaw_psl.1.0.0.UPF
     MD5 check sum: 339dbea23cf3ab9a065ad45c0f9085d7
     Pseudo is Projector augmented-wave + core cor, Zval =  3.0
     Generated using "atomic" code by A. Dal Corso v.5.1
     Shape of augmentation charge: PSQ
     Using radial grid of 1135 points,  4 beta functions with: 
                l(1) =   0
                l(2) =   0
                l(3) =   1
                l(4) =   1
     Q(r) pseudized with 0 coefficients 


     atomic species   valence    mass     pseudopotential
        Al             3.00    26.98200     Al( 1.00)

     48 Sym. Ops., with inversion, found



   Cartesian axes

     site n.     atom                  positions (alat units)
         1           Al  tau(   1) = (   0.0000000   0.0000000   0.0000000  )
         2           Al  tau(   2) = (   0.2502500   0.2502500   0.0000000  )
         3           Al  tau(   3) = (   0.2502500   0.0000000   0.2502500  )
         4           Al  tau(   4) = (   0.0000000   0.2502500   0.2502500  )
         5           Al  tau(   5) = (   0.0000000   0.0000000   0.5005000  )
         6           Al  tau(   6) = (   0.2502500   0.2502500   0.5005000  )
         7           Al  tau(   7) = (   0.2502500   0.0000000   0.7507500  )
         8           Al  tau(   8) = (   0.0000000   0.2502500   0.7507500  )
         9           Al  tau(   9) = (   0.0000000   0.5005000   0.0000000  )
        10           Al  tau(  10) = (   0.2502500   0.7507500   0.0000000  )
        11           Al  tau(  11) = (   0.2502500   0.5005000   0.2502500  )
        12           Al  tau(  12) = (   0.0000000   0.7507500   0.2502500  )
        13           Al  tau(  13) = (   0.0000000   0.5005000   0.5005000  )
        14           Al  tau(  14) = (   0.2502500   0.7507500   0.5005000  )
        15           Al  tau(  15) = (   0.2502500   0.5005000   0.7507500  )
        16           Al  tau(  16) = (   0.0000000   0.7507500   0.7507500  )
        17           Al  tau(  17) = (   0.5005000   0.0000000   0.0000000  )
        18           Al  tau(  18) = (   0.7507500   0.2502500   0.0000000  )
        19           Al  tau(  19) = (   0.7507500   0.0000000   0.2502500  )
        20           Al  tau(  20) = (   0.5005000   0.2502500   0.2502500  )
        21           Al  tau(  21) = (   0.5005000   0.0000000   0.5005000  )
        22           Al  tau(  22) = (   0.7507500   0.2502500   0.5005000  )
        23           Al  tau(  23) = (   0.7507500   0.0000000   0.7507500  )
        24           Al  tau(  24) = (   0.5005000   0.2502500   0.7507500  )
        25           Al  tau(  25) = (   0.5005000   0.5005000   0.0000000  )
        26           Al  tau(  26) = (   0.7507500   0.7507500   0.0000000  )
        27           Al  tau(  27) = (   0.7507500   0.5005000   0.2502500  )
        28           Al  tau(  28) = (   0.5005000   0.7507500   0.2502500  )
        29           Al  tau(  29) = (   0.5005000   0.5005000   0.5005000  )
        30           Al  tau(  30) = (   0.7507500   0.7507500   0.5005000  )
        31           Al  tau(  31) = (   0.7507500   0.5005000   0.7507500  )
        32           Al  tau(  32) = (   0.5005000   0.7507500   0.7507500  )

     number of k points=    56  Marzari-Vanderbilt smearing, width (Ry)=  0.0400
                       cart. coord. in units 2pi/alat
        k(    1) = (   0.0454091   0.0454091   0.0454091), wk =   0.0120210
        k(    2) = (   0.0454091   0.0454091   0.1362274), wk =   0.0360631
        k(    3) = (   0.0454091   0.0454091   0.2270457), wk =   0.0360631
        k(    4) = (   0.0454091   0.0454091   0.3178640), wk =   0.0360631
        k(    5) = (   0.0454091   0.0454091   0.4086822), wk =   0.0360631
        k(    6) = (   0.0454091   0.0454091  -0.4995005), wk =   0.0180316
        k(    7) = (   0.0454091   0.1362274   0.1362274), wk =   0.0360631
        k(    8) = (   0.0454091   0.1362274   0.2270457), wk =   0.0721262
        k(    9) = (   0.0454091   0.1362274   0.3178640), wk =   0.0721262
        k(   10) = (   0.0454091   0.1362274   0.4086822), wk =   0.0721262
        k(   11) = (   0.0454091   0.1362274  -0.4995005), wk =   0.0360631
        k(   12) = (   0.0454091   0.2270457   0.2270457), wk =   0.0360631
        k(   13) = (   0.0454091   0.2270457   0.3178640), wk =   0.0721262
        k(   14) = (   0.0454091   0.2270457   0.4086822), wk =   0.0721262
        k(   15) = (   0.0454091   0.2270457  -0.4995005), wk =   0.0360631
        k(   16) = (   0.0454091   0.3178640   0.3178640), wk =   0.0360631
        k(   17) = (   0.0454091   0.3178640   0.4086822), wk =   0.0721262
        k(   18) = (   0.0454091   0.3178640  -0.4995005), wk =   0.0360631
        k(   19) = (   0.0454091   0.4086822   0.4086822), wk =   0.0360631
        k(   20) = (   0.0454091   0.4086822  -0.4995005), wk =   0.0360631
        k(   21) = (   0.0454091  -0.4995005  -0.4995005), wk =   0.0090158
        k(   22) = (   0.1362274   0.1362274   0.1362274), wk =   0.0120210
        k(   23) = (   0.1362274   0.1362274   0.2270457), wk =   0.0360631
        k(   24) = (   0.1362274   0.1362274   0.3178640), wk =   0.0360631
        k(   25) = (   0.1362274   0.1362274   0.4086822), wk =   0.0360631
        k(   26) = (   0.1362274   0.1362274  -0.4995005), wk =   0.0180316
        k(   27) = (   0.1362274   0.2270457   0.2270457), wk =   0.0360631
        k(   28) = (   0.1362274   0.2270457   0.3178640), wk =   0.0721262
        k(   29) = (   0.1362274   0.2270457   0.4086822), wk =   0.0721262
        k(   30) = (   0.1362274   0.2270457  -0.4995005), wk =   0.0360631
        k(   31) = (   0.1362274   0.3178640   0.3178640), wk =   0.0360631
        k(   32) = (   0.1362274   0.3178640   0.4086822), wk =   0.0721262
        k(   33) = (   0.1362274   0.3178640  -0.4995005), wk =   0.0360631
        k(   34) = (   0.1362274   0.4086822   0.4086822), wk =   0.0360631
        k(   35) = (   0.1362274   0.4086822  -0.4995005), wk =   0.0360631
        k(   36) = (   0.1362274  -0.4995005  -0.4995005), wk =   0.0090158
        k(   37) = (   0.2270457   0.2270457   0.2270457), wk =   0.0120210
        k(   38) = (   0.2270457   0.2270457   0.3178640), wk =   0.0360631
        k(   39) = (   0.2270457   0.2270457   0.4086822), wk =   0.0360631
        k(   40) = (   0.2270457   0.2270457  -0.4995005), wk =   0.0180316
        k(   41) = (   0.2270457   0.3178640   0.3178640), wk =   0.0360631
        k(   42) = (   0.2270457   0.3178640   0.4086822), wk =   0.0721262
        k(   43) = (   0.2270457   0.3178640  -0.4995005), wk =   0.0360631
        k(   44) = (   0.2270457   0.4086822   0.4086822), wk =   0.0360631
        k(   45) = (   0.2270457   0.4086822  -0.4995005), wk =   0.0360631
        k(   46) = (   0.2270457  -0.4995005  -0.4995005), wk =   0.0090158
        k(   47) = (   0.3178640   0.3178640   0.3178640), wk =   0.0120210
        k(   48) = (   0.3178640   0.3178640   0.4086822), wk =   0.0360631
        k(   49) = (   0.3178640   0.3178640  -0.4995005), wk =   0.0180316
        k(   50) = (   0.3178640   0.4086822   0.4086822), wk =   0.0360631
        k(   51) = (   0.3178640   0.4086822  -0.4995005), wk =   0.0360631
        k(   52) = (   0.3178640  -0.4995005  -0.4995005), wk =   0.0090158
        k(   53) = (   0.4086822   0.4086822   0.4086822), wk =   0.0120210
        k(   54) = (   0.4086822   0.4086822  -0.4995005), wk =   0.0180316
        k(   55) = (   0.4086822  -0.4995005  -0.4995005), wk =   0.0090158
        k(   56) = (  -0.4995005  -0.4995005  -0.4995005), wk =   0.0015026

     Dense  grid:   170589 G-vectors     FFT dimensions: (  72,  72,  72)

     Estimated max dynamical RAM per process >      82.09 MB

     Estimated total dynamical RAM >       1.60 GB

     Initial potential from superposition of free atoms

     starting charge   95.92671, renormalised to   96.00000
     Starting wfcs are  128 randomized atomic wfcs
     Checking if some PAW data can be deallocated... 

     total cpu time spent up to now is        7.1 secs

     Self-consistent Calculation

     iteration #  1     ecut=    50.00 Ry     beta= 0.10
     Davidson diagonalization with overlap
     ethr =  1.00E-02,  avg # of iterations =  3.1

     Threshold (ethr) on eigenvalues was too large:
     Diagonalizing with lowered threshold

     Davidson diagonalization with overlap
     ethr =  1.91E-04,  avg # of iterations =  4.5

     total cpu time spent up to now is       31.6 secs

     total energy              =   -1264.12436503 Ry
     Harris-Foulkes estimate   =   -1264.13373122 Ry
     estimated scf accuracy    <       0.17938672 Ry

     iteration #  2     ecut=    50.00 Ry     beta= 0.10
     Davidson diagonalization with overlap
     ethr =  1.87E-04,  avg # of iterations =  1.1

     total cpu time spent up to now is       39.2 secs

     total energy              =   -1264.08391441 Ry
     Harris-Foulkes estimate   =   -1264.12519147 Ry
     estimated scf accuracy    <       0.14413136 Ry

     iteration #  3     ecut=    50.00 Ry     beta= 0.10
     Davidson diagonalization with overlap
     ethr =  1.50E-04,  avg # of iterations =  1.0

     total cpu time spent up to now is       46.7 secs

     total energy              =   -1264.08663300 Ry
     Harris-Foulkes estimate   =   -1264.08664343 Ry
     estimated scf accuracy    <       0.00024152 Ry

     iteration #  4     ecut=    50.00 Ry     beta= 0.10
     Davidson diagonalization with overlap
     c_bands:  1 eigenvalues not converged
     c_bands:  1 eigenvalues not converged
     c_bands:  2 eigenvalues not converged
     ethr =  2.52E-07,  avg # of iterations =  7.2

     total cpu time spent up to now is       64.3 secs

     total energy              =   -1264.08755911 Ry
     Harris-Foulkes estimate   =   -1264.08749326 Ry
     estimated scf accuracy    <       0.00021141 Ry

     iteration #  5     ecut=    50.00 Ry     beta= 0.10
     Davidson diagonalization with overlap
     ethr =  2.20E-07,  avg # of iterations =  1.0

     total cpu time spent up to now is       71.8 secs

     total energy              =   -1264.08740581 Ry
     Harris-Foulkes estimate   =   -1264.08756052 Ry
     estimated scf accuracy    <       0.00034811 Ry

     iteration #  6     ecut=    50.00 Ry     beta= 0.10
     Davidson diagonalization with overlap
     ethr =  2.20E-07,  avg # of iterations =  1.0

     total cpu time spent up to now is       79.2 secs

     total energy              =   -1264.08741607 Ry
     Harris-Foulkes estimate   =   -1264.08741643 Ry
     estimated scf accuracy    <       0.00000164 Ry

     iteration #  7     ecut=    50.00 Ry     beta= 0.10
     Davidson diagonalization with overlap
     c_bands:  1 eigenvalues not converged
     ethr =  1.71E-09,  avg # of iterations =  5.9

     total cpu time spent up to now is       95.9 secs

     total energy              =   -1264.08741891 Ry
     Harris-Foulkes estimate   =   -1264.08741898 Ry
     estimated scf accuracy    <       0.00000113 Ry

     iteration #  8     ecut=    50.00 Ry     beta= 0.10
     Davidson diagonalization with overlap
     c_bands:  1 eigenvalues not converged
     ethr =  1.17E-09,  avg # of iterations =  1.4

     total cpu time spent up to now is      103.6 secs

     total energy              =   -1264.08741876 Ry
     Harris-Foulkes estimate   =   -1264.08741893 Ry
     estimated scf accuracy    <       0.00000112 Ry

     iteration #  9     ecut=    50.00 Ry     beta= 0.10
     Davidson diagonalization with overlap
     ethr =  1.17E-09,  avg # of iterations =  1.4

     total cpu time spent up to now is      111.2 secs

     End of self-consistent calculation

          k = 0.0454 0.0454 0.0454 ( 21337 PWs)   bands (ev):

    -3.2253  -1.1813  -1.1813  -1.1813  -0.7761  -0.7761  -0.7761   0.8342
     0.8342   0.8342   1.2337   1.2337   1.2337   1.2337   1.2338   1.2338
     1.6322   1.6322   1.6322   2.8179   3.1954   3.1955   3.1955   3.6437
     3.6437   3.6438   4.0194   4.8726   4.8726   4.8726   6.4126   6.4126
     6.4126   6.7662   6.7662   6.7662   6.7662   6.7662   6.7662   7.1462
     7.1462   7.1462   7.1462   7.1462   7.1462   8.1673   8.1673   8.1673
     8.1673   8.1673   8.1673   8.6721   8.6721   8.6721   9.0525   9.0543
     9.1153   9.1159

          k = 0.0454 0.0454 0.1362 ( 21323 PWs)   bands (ev):

    -3.1878  -1.5507  -1.1444  -1.1444  -0.7393  -0.7393  -0.3355   0.4699
     0.4699   0.8705   0.8705   0.8706   1.2701   1.2701   1.6682   1.6682
     1.6684   2.0654   2.0654   2.4615   2.8535   2.8535   3.2307   3.6797
     4.0550   4.0550   4.3240   4.4434   4.9071   4.9071   6.2391   6.2391
     6.4236   6.4236   6.4485   6.4485   6.6064   6.6064   6.8169   6.8169
     7.0260   7.1855   7.1855   7.5439   7.5440   7.9621   7.9621   8.1723
     8.3269   8.3269   8.3516   8.3516   8.5528   8.5528   8.5540   8.5540
     8.7066   8.7066

          k = 0.0454 0.0454 0.2270 ( 21296 PWs)   bands (ev):

    -3.1130  -1.8840  -1.0706  -1.0706  -0.6657  -0.6657   0.1401   0.1412
     0.1412   0.5427   0.5427   0.9433   1.3426   1.3426   1.7408   2.1371
     2.1371   2.1382   2.5329   2.5329   2.5332   2.5332   2.9249   3.6692
     4.1261   4.5141   4.5141   4.9036   4.9761   4.9761   5.6038   5.6038
     5.9839   5.9839   6.1138   6.1138   6.5203   6.5203   6.8781   6.8781
     7.2556   7.2556   7.5495   7.6392   7.6392   7.8103   7.9330   7.9330
     8.0161   8.0161   8.0426   8.0426   8.3160   8.3958   8.3958   8.4857
     8.4857   8.8109

          k = 0.0454 0.0454 0.3179 ( 21305 PWs)   bands (ev):

    -3.0009  -2.1810  -0.9601  -0.9600  -0.5555  -0.5555  -0.1517  -0.1517
     0.2506   0.2506   0.6501   1.0524   1.4514   1.4514   1.8492   1.8497
     2.2461   2.2461   2.6397   2.6397   2.6406   3.0130   3.0340   3.0340
     4.6197   4.9628   4.9628   5.0088   5.0088   5.0796   5.0796   5.3476
     5.3476   5.3979   5.8382   5.8382   6.6276   6.6276   6.9163   6.9808
     6.9808   7.3014   7.3014   7.3595   7.3595   7.3913   7.3913   7.6859
     7.7399   7.7399   8.1196   8.1196   8.5088   8.5088   8.6168   8.6168
     8.6606   8.9783

          k = 0.0454 0.0454 0.4087 ( 21318 PWs)   bands (ev):

    -2.8514  -2.4414  -0.8127  -0.8127  -0.4086  -0.4086  -0.4084  -0.4084
    -0.0054  -0.0054   1.1938   1.1978   1.5963   1.5963   1.5966   1.9937
     1.9939   1.9939   2.3776   2.3898   3.1753   3.1753   3.5679   3.5679
     4.3396   4.3396   4.7277   4.7277   5.1483   5.2176   5.2176   5.5369
     5.5369   5.5969   5.5969   5.9252   6.2999   6.6863   6.6863   6.7698
     6.7698   7.0722   7.1186   7.1186   7.1546   7.1546   7.4978   7.4978
     7.4982   7.4982   7.8778   7.8778   8.7702   8.7702   9.0227   9.0227
     9.1439   9.1440

          k = 0.0454 0.0454-0.4995 ( 21306 PWs)   bands (ev):

    -2.6649  -2.6649  -0.6289  -0.6288  -0.6288  -0.6288  -0.2252  -0.2252
    -0.2251  -0.2251   1.3792   1.3792   1.7702   1.7702   1.7772   1.7772
     1.7772   1.7772   2.1739   2.1740   3.7426   3.7426   3.7426   3.7426
     4.1331   4.1331   4.1332   4.1332   5.3900   5.3900   5.3901   5.3901
     5.7092   5.7092   6.0968   6.0968   6.0968   6.0968   6.4840   6.4840
     6.9460   6.9460   6.9461   6.9461   7.2911   7.2911   7.2911   7.2912
     7.6705   7.6705   7.6706   7.6706   8.9536   8.9536   8.9536   8.9536
     9.3323   9.3323

          k = 0.0454 0.1362 0.1362 ( 21324 PWs)   bands (ev):

    -3.1504  -1.5137  -1.5137  -1.1075  -0.7025  -0.2988  -0.2988   0.1046
     0.5064   0.5064   0.9069   0.9069   1.3060   1.3060   1.7044   1.7044
     2.1015   2.1015   2.1022   2.4973   2.4973   3.2658   3.2659   3.7157
     3.7158   4.3591   4.3591   4.4788   4.8684   4.9416   5.8943   5.8943
     6.2588   6.2588   6.4556   6.4556   6.4844   6.6850   6.6850   7.0246
     7.0246   7.0612   7.0612   7.5949   7.5949   7.8249   7.8249   7.9816
     8.0695   8.0695   8.2069   8.2069   8.4848   8.4849   8.8545   8.8545
     8.9698   8.9698

          k = 0.0454 0.1362 0.2270 ( 21299 PWs)   bands (ev):

    -3.0756  -1.8470  -1.4398  -1.0338  -0.6290  -0.2255  -0.2249   0.1767
     0.1777   0.5791   0.5793   0.9792   0.9796   1.7761   1.7767   1.7775
     2.1731   2.1736   2.1741   2.5688   2.9604   2.9632   3.3364   3.7046
     3.7876   4.1617   4.4292   4.9389   5.0106   5.2551   5.3282   5.5821
     5.6348   5.9960   6.1477   6.3778   6.3879   6.5508   6.5559   6.7471
     7.1317   7.2003   7.3944   7.5120   7.5841   7.6679   7.6709   7.8450
     7.8514   7.8941   8.0169   8.1633   8.2780   8.3505   8.7330   8.8100
     9.0312   9.0417

          k = 0.0454 0.1362 0.3179 ( 21298 PWs)   bands (ev):

    -2.9635  -2.1439  -1.3289  -0.9232  -0.5187  -0.5185  -0.1155  -0.1150
     0.2872   0.6865   0.6881   0.6887   1.0887   1.4881   1.8852   1.8857
     2.2801   2.2817   2.6756   2.6763   3.0487   3.0673   3.0697   3.4626
     4.2678   4.5344   4.6109   4.6552   4.9965   5.1141   5.3035   5.3784
     5.4330   5.7633   5.8216   5.8725   6.4727   6.5657   6.6376   6.6626
     6.8502   6.9512   7.2336   7.2369   7.3897   7.3948   7.6158   7.7205
     7.7729   7.9771   8.0659   8.1045   8.2789   8.5337   8.5493   8.6947
     9.0690   9.1857

          k = 0.0454 0.1362 0.4087 ( 21323 PWs)   bands (ev):

    -2.8141  -2.4041  -1.1812  -0.7759  -0.7759  -0.3719  -0.3717   0.0309
     0.0312   0.4329   0.8344   1.2301   1.2340   1.2342   1.6327   2.0296
     2.4136   2.4255   2.4255   2.8172   2.8195   3.2110   3.6033   3.9853
     3.9944   4.3745   4.6745   4.7616   4.7952   5.0592   5.1485   5.1836
     5.2520   5.6313   5.9480   5.9602   6.3349   6.3478   6.6086   6.7742
     6.8039   6.9892   6.9901   7.1069   7.1532   7.1801   7.3721   7.3763
     7.4922   7.7519   7.9116   8.2919   8.4256   8.5484   8.8204   9.0585
     9.3423   9.5391

          k = 0.0454 0.1362-0.4995 ( 21290 PWs)   bands (ev):

    -2.6277  -2.6276  -0.9969  -0.9968  -0.5921  -0.5920  -0.1885  -0.1885
     0.2137   0.2138   1.0162   1.0163   1.4153   1.4154   1.8063   1.8063
     2.2097   2.2098   2.6049   2.6050   3.3863   3.3863   3.7779   3.7780
     4.1681   4.1681   4.5572   4.5572   4.8495   4.8495   5.3564   5.3565
     5.4244   5.4245   5.7443   5.7443   6.5188   6.5188   6.7815   6.7816
     6.9053   6.9053   6.9462   6.9463   6.9778   6.9779   7.1632   7.1632
     7.5488   7.5489   8.0845   8.0846   8.6058   8.6059   9.0886   9.0886
     9.5259   9.5259

          k = 0.0454 0.2270 0.2270 ( 21296 PWs)   bands (ev):

    -3.0009  -1.7728  -1.7728  -0.9600  -0.5555  -0.5552   0.2497   0.2497
     0.2508   0.2508   0.6521   0.6521   1.4504   1.4504   1.4519   1.8496
     2.2452   2.2452   2.6406   2.6406   3.4065   3.4065   3.4274   3.7755
     3.7755   3.8596   3.8597   4.9398   4.9398   5.0796   5.3983   5.6819
     5.6819   5.7870   6.1405   6.1406   6.2140   6.2140   6.6268   6.8350
     6.8350   6.8857   6.8857   7.2698   7.2698   7.3603   7.8772   7.8772
     7.9142   7.9142   8.1128   8.1128   8.8016   8.8016   8.9641   8.9641
     9.0353   9.2579

          k = 0.0454 0.2270 0.3179 ( 21289 PWs)   bands (ev):

    -2.8888  -2.0696  -1.6617  -0.8496  -0.8494  -0.4453  -0.0418   0.3593
     0.3602   0.3604   0.7593   0.7614   1.1603   1.1617   1.5603   1.9556
     2.3532   2.7473   2.7482   3.1201   3.1382   3.1411   3.5123   3.8818
     3.9248   3.9669   4.2931   4.3391   4.6586   5.0620   5.1831   5.4226
     5.8673   5.8915   5.9407   6.1876   6.2257   6.2499   6.2793   6.3489
     6.6059   6.6355   6.7322   6.9900   7.0842   7.2094   7.7074   7.9747
     8.0175   8.1732   8.2202   8.5565   8.5646   8.7526   8.7626   8.7845
     8.9823   9.2858

          k = 0.0454 0.2270 0.4087 ( 21295 PWs)   bands (ev):

    -2.7395  -2.3297  -1.5137  -1.1074  -0.7024  -0.2985  -0.2983   0.1044
     0.5053   0.5065   0.9059   0.9070   0.9073   1.3026   1.3066   2.4854
     2.4941   2.4970   2.8906   2.8912   3.2806   3.2822   3.6654   3.6740
     4.0233   4.4119   4.4436   4.4541   4.4797   4.8272   4.8661   5.3210
     5.5996   5.6313   5.7000   5.9824   6.0182   6.3614   6.3618   6.4174
     6.4655   6.7452   6.8042   6.8428   6.8707   7.2109   7.5613   7.9458
     7.9772   8.1143   8.1539   8.3596   8.5044   8.5136   8.7404   9.0566
     9.1333   9.9308

          k = 0.0454 0.2270-0.4995 ( 21284 PWs)   bands (ev):

    -2.5531  -2.5531  -1.3289  -1.3288  -0.5186  -0.5185  -0.1152  -0.1152
     0.6875   0.6875   0.6887   0.6888   1.0887   1.0888   1.8785   1.8785
     2.6762   2.6763   3.0646   3.0646   3.0693   3.0693   3.8485   3.8485
     4.2001   4.2001   4.2374   4.2374   5.0137   5.0137   5.0395   5.0395
     5.4270   5.4270   5.4933   5.4934   6.1527   6.1528   6.5356   6.5357
     6.6363   6.6363   6.9747   6.9747   7.0373   7.0374   7.3604   7.3604
     8.2913   8.2914   8.3215   8.3216   8.4879   8.4880   8.5329   8.5329
     9.6783   9.6783

          k = 0.0454 0.3179 0.3179 ( 21308 PWs)   bands (ev):

    -2.7768  -1.9582  -1.9582  -1.1443  -0.7391  -0.3352   0.0680   0.0680
     0.4698   0.4698   0.8685   0.8685   0.8709   1.2704   1.6666   1.6666
     2.8547   2.8547   3.2272   3.2272   3.2479   3.2479   3.6171   3.6172
     4.0097   4.0097   4.0747   4.0748   4.4196   5.1426   5.1427   5.2865
     5.6129   5.6130   5.9692   5.9692   6.0414   6.0414   6.3548   6.3548
     6.3834   6.6822   6.6822   6.7703   6.8084   6.8348   7.7185   7.7185
     8.4703   8.6591   8.6591   8.6997   8.6997   8.8635   8.8635   9.0395
     9.0416   9.0416

          k = 0.0454 0.3179 0.4087 ( 21288 PWs)   bands (ev):

    -2.6276  -2.2182  -1.8099  -1.4028  -0.5921  -0.1885  -0.1883   0.2141
     0.2143   0.6157   0.6159   1.0139   1.0161   1.4113   1.4131   2.2062
     2.5931   2.9977   3.3698   3.3803   3.3865   3.3888   3.3895   3.7580
     3.7612   3.7793   4.2167   4.5449   4.5865   4.9073   4.9457   5.3506
     5.3687   5.4243   5.7247   5.7291   5.7369   5.8027   6.0566   6.1094
     6.2134   6.5674   6.9079   6.9657   7.0777   7.2938   7.5928   7.8411
     8.0487   8.2231   8.4324   8.4449   8.8415   8.9957   9.1772   9.1846
     9.2233   9.3902

          k = 0.0454 0.3179-0.4995 ( 21284 PWs)   bands (ev):

    -2.4414  -2.4413  -1.6247  -1.6247  -0.4084  -0.4084  -0.0054  -0.0053
     0.3970   0.3971   0.7978   0.7979   1.1955   1.1955   1.9867   1.9868
     2.7780   2.7780   3.1754   3.1755   3.5478   3.5479   3.5642   3.5643
     3.9536   3.9536   4.3391   4.3391   4.7605   4.7605   5.1456   5.1456
     5.4998   5.4998   5.5185   5.5186   5.5965   5.5965   5.9001   5.9001
     6.3621   6.3622   7.1034   7.1035   7.4637   7.4637   7.8486   7.8486
     7.9047   7.9047   8.0124   8.0125   9.0154   9.0155   9.1532   9.1533
     9.7852   9.7873

          k = 0.0454 0.4087 0.4087 ( 21279 PWs)   bands (ev):

    -2.4786  -2.0696  -2.0696  -1.6617  -0.4451  -0.0420  -0.0418  -0.0418
     0.3603   0.3603   0.3605   0.7614   1.5562   1.5562   1.9537   1.9538
     2.7366   2.7366   3.1303   3.1303   3.5302   3.5302   3.8972   3.8972
     3.9174   3.9174   4.3601   4.3601   4.6619   4.6619   5.1082   5.1082
     5.1335   5.1335   5.4663   5.4916   5.4916   5.5620   5.9379   5.9379
     6.3277   6.5867   6.5868   7.0676   7.4309   7.6189   7.6189   7.8159
     7.8784   7.9781   8.5685   8.5685   8.9514   8.9514   9.3556   9.3557
     9.7400   9.7401

          k = 0.0454 0.4087-0.4995 ( 21312 PWs)   bands (ev):

    -2.2926  -2.2925  -1.8841  -1.8840  -0.2617  -0.2616   0.1410   0.1411
     0.1412   0.1413   0.5427   0.5428   1.7370   1.7371   2.1309   2.1310
     2.5267   2.5268   2.9157   2.9157   3.7045   3.7045   4.0730   4.0731
     4.0912   4.0913   4.4566   4.4566   4.5358   4.5358   4.9024   4.9025
     4.9213   4.9214   5.2848   5.2848   5.7337   5.7337   5.9902   5.9902
     6.1453   6.1454   7.0106   7.0106   7.5320   7.5321   7.7729   7.7730
     7.9851   7.9851   8.3690   8.3691   9.1194   9.1194   9.5014   9.5014
     9.5317   9.5318

          k = 0.0454-0.4995-0.4995 ( 21268 PWs)   bands (ev):

    -2.1068  -2.1067  -2.1067  -2.1066  -0.0784  -0.0784  -0.0784  -0.0783
     0.3237   0.3238   0.3238   0.3238   2.3110   2.3110   2.3110   2.3110
     2.3110   2.3110   2.3110   2.3110   4.2458   4.2458   4.2458   4.2458
     4.2459   4.2459   4.2459   4.2459   4.7139   4.7140   4.7140   4.7140
     4.7140   4.7141   4.7141   4.7141   5.9033   5.9034   5.9034   5.9035
     6.5545   6.5545   6.5545   6.5545   7.5851   7.5852   7.5852   7.5853
     8.5377   8.5377   8.5377   8.5377   8.9206   8.9206   8.9206   8.9207
    10.0802  10.0802

          k = 0.1362 0.1362 0.1362 ( 21308 PWs)   bands (ev):

    -3.1130  -1.4767  -1.4767  -1.4767  -0.2621  -0.2621  -0.2621   0.1412
     0.1412   0.1412   1.3423   1.3423   1.3423   1.3423   1.3423   1.3423
     1.7415   2.5332   2.5332   2.5332   2.9247   2.9247   2.9247   4.1263
     4.1263   4.1263   4.3942   4.3942   4.3942   5.2932   5.9263   5.9263
     5.9263   5.9263   5.9263   5.9263   7.0813   7.0813   7.0813   7.0813
     7.0813   7.0813   7.0964   7.0964   7.0964   7.4774   7.4774   7.4774
     8.6204   8.6204   8.6204   8.6204   8.6228   8.6229   8.6229   8.6229
     8.6229   8.6229

          k = 0.1362 0.1362 0.2270 ( 21276 PWs)   bands (ev):

    -3.0382  -1.8099  -1.4028  -1.4028  -0.1888  -0.1888  -0.1882  -0.1882
     0.2132   0.2143   1.0156   1.0156   1.4148   1.4148   1.4157   1.8123
     1.8123   2.6046   2.6046   2.6050   2.9990   2.9990   3.3713   3.7401
     3.8238   4.4643   4.4643   4.5850   4.5850   5.2888   5.2888   5.6159
     5.6159   5.7521   5.9804   5.9804   6.4714   6.4715   6.8509   7.1574
     7.1574   7.1643   7.1643   7.1665   7.1665   7.5107   7.5107   7.8795
     8.0020   8.0021   8.3103   8.3103   8.3581   8.3581   8.7314   8.7314
     9.0728   9.0728

          k = 0.1362 0.1362 0.3179 ( 21284 PWs)   bands (ev):

    -2.9261  -2.1067  -1.2920  -1.2920  -0.4818  -0.4817  -0.0789  -0.0789
     0.3240   0.7229   0.7245   0.7246   1.1255   1.5236   1.5236   2.3161
     2.3161   2.3177   2.3177   2.7126   3.0844   3.4773   3.4980   3.4980
     3.9309   4.5694   4.5694   4.6456   4.6456   5.0794   5.0794   5.3380
     5.3380   5.7719   5.7719   6.1506   6.1506   6.2148   6.2445   6.8860
     6.8860   7.2642   7.2642   7.2710   7.2710   7.3708   7.3708   7.8600
     7.8600   8.0321   8.0321   8.2256   8.2256   8.5223   8.7284   8.8531
     8.8531   9.5561

          k = 0.1362 0.1362 0.4087 ( 21302 PWs)   bands (ev):

    -2.7768  -2.3669  -1.1443  -1.1443  -0.7391  -0.7391   0.0675   0.0675
     0.4694   0.4694   0.4700   0.8709   1.2663   1.6684   1.6684   2.0657
     2.0657   2.4495   2.8531   2.8531   2.8557   3.2453   4.0206   4.0206
     4.0294   4.0294   4.4441   4.7095   4.7095   5.0940   5.0940   5.1792
     5.1792   5.5961   5.6072   5.6072   6.2652   6.2652   6.6428   6.6428
     6.7560   6.7560   6.7696   7.4046   7.4046   7.4090   7.4090   7.7663
     7.7663   7.7884   7.7884   7.9114   8.5969   8.5969   9.0016   9.0016
     9.3947   9.3948

          k = 0.1362 0.1362-0.4995 ( 21294 PWs)   bands (ev):

    -2.5904  -2.5903  -0.9600  -0.9600  -0.9599  -0.9599   0.2503   0.2503
     0.2503   0.2504   0.6524   0.6524   1.8424   1.8424   1.8491   1.8491
     1.8492   1.8492   3.0338   3.0339   3.4218   3.4219   3.4219   3.4219
     4.5911   4.5911   4.5912   4.5912   4.8843   4.8844   4.8844   4.8844
     5.0041   5.0041   6.1668   6.1668   6.1668   6.1668   6.4351   6.4351
     6.4352   6.4352   7.3259   7.3259   7.5776   7.5776   7.5777   7.5777
     7.5792   7.5792   7.5793   7.5793   9.1272   9.1272   9.1272   9.1272
     9.1816   9.1816

          k = 0.1362 0.2270 0.2270 ( 21281 PWs)   bands (ev):

    -2.9635  -1.7358  -1.7358  -1.3289  -0.5185  -0.1155  -0.1150  -0.1149
     0.2863   0.2863   1.0883   1.0883   1.0892   1.4867   1.4867   1.8846
     1.8846   2.2818   3.0669   3.0669   3.0704   3.0704   3.4629   3.8109
     3.8109   4.2686   4.2686   4.5344   4.9743   4.9744   5.0446   5.3544
     5.3545   5.6823   5.6823   6.2101   6.5351   6.5351   6.5362   6.5362
     6.8513   6.9004   6.9004   7.2357   7.6008   7.6008   7.6880   7.6880
     7.9482   7.9482   8.4393   8.4393   8.4536   8.4536   8.7604   8.7604
     9.0845   9.0845

          k = 0.1362 0.2270 0.3179 ( 21289 PWs)   bands (ev):

    -2.8515  -2.0325  -1.6247  -1.2181  -0.8126  -0.4083  -0.0057  -0.0051
     0.3958   0.7957   0.7974   0.7982   1.1966   1.1973   1.9917   1.9929
     1.9936   2.3881   2.7832   3.1558   3.1772   3.5467   3.5688   3.9172
     3.9598   4.0035   4.3282   4.6394   4.6935   4.7145   4.7615   5.4065
     5.4373   5.5383   5.7714   5.8991   5.9224   6.2566   6.2884   6.5733
     6.6389   6.7013   7.0555   7.3385   7.3562   7.4084   7.7118   7.8241
     8.0502   8.0657   8.1923   8.4823   8.5491   8.7952   8.8532   8.9384
     8.9736   9.2440

          k = 0.1362 0.2270 0.4087 ( 21295 PWs)   bands (ev):

    -2.7022  -2.2925  -1.4767  -1.0706  -1.0705  -0.6655   0.1407   0.1413
     0.5417   0.5423   0.5431   0.9423   1.3389   1.3424   1.7408   2.1372
     2.5213   2.5300   2.5327   2.9246   3.3190   3.6883   3.7009   4.0587
     4.0909   4.0989   4.1449   4.4471   4.4881   4.7794   5.1633   5.2225
     5.2800   5.2895   5.6068   5.6594   5.9790   6.0130   6.0650   6.3309
     6.4397   6.7786   7.1636   7.2109   7.2251   7.4719   7.6966   7.8538
     8.1266   8.1835   8.2386   8.3642   8.4274   8.6922   8.7766   9.0817
     9.0961   9.4557

          k = 0.1362 0.2270-0.4995 ( 21286 PWs)   bands (ev):

    -2.5159  -2.5158  -1.2920  -1.2919  -0.8863  -0.8863   0.3233   0.3234
     0.3240   0.3241   0.7239   0.7240   1.5236   1.5237   1.9146   1.9146
     2.3172   2.3172   3.1004   3.1004   3.4929   3.4929   3.4939   3.4940
     4.2353   4.2354   4.6570   4.6570   4.6895   4.6895   4.9540   4.9541
     5.0444   5.0444   5.8076   5.8077   5.8497   5.8497   6.1263   6.1263
     6.6233   6.6233   6.9535   6.9536   7.6246   7.6247   7.7801   7.7801
     8.0291   8.0292   8.3394   8.3395   8.5388   8.5388   8.8697   8.8698
     9.2106   9.2106

          k = 0.1362 0.3179 0.3179 ( 21300 PWs)   bands (ev):

    -2.7395  -1.9211  -1.9211  -1.1074  -1.1074  -0.2982  -0.2982   0.1041
     0.5066   0.9049   0.9049   0.9066   0.9066   1.7027   1.7027   1.7047
     2.4960   2.4960   3.2628   3.2628   3.2796   3.2797   3.6744   3.6744
     4.0451   4.0451   4.4536   4.4815   4.4815   4.7443   4.8155   4.8155
     5.5078   5.5078   5.6192   5.6192   6.0082   6.0082   6.0310   6.2961
     6.7513   6.7513   6.7749   6.7749   7.1914   7.4365   8.1901   8.1901
     8.2815   8.2815   8.3105   8.3105   8.8933   8.8933   8.9660   8.9660
     9.0480   9.0793

          k = 0.1362 0.3179 0.4087 ( 21298 PWs)   bands (ev):

    -2.5904  -2.1810  -1.7728  -1.3658  -0.9600  -0.5552  -0.1515   0.2503
     0.2510   0.6517   1.0503   1.0520   1.4476   1.4493   1.4513   2.2422
     2.6290   2.6395   3.0319   3.0326   3.4054   3.4160   3.7916   3.7967
     3.8127   4.1957   4.2008   4.2542   4.8841   4.9324   4.9765   5.0020
     5.0076   5.2668   5.3777   5.4140   5.6320   6.0567   6.1448   6.1584
     6.1605   6.5294   6.5563   7.2376   7.5537   7.6991   7.7138   8.0678
     8.3356   8.4176   8.4964   8.6891   8.7222   8.8024   8.8293   8.8499
     9.0149   9.4826

          k = 0.1362 0.3179-0.4995 ( 21310 PWs)   bands (ev):

    -2.4042  -2.4041  -1.5877  -1.5877  -0.7759  -0.7758   0.0315   0.0316
     0.4329   0.4329   1.2318   1.2318   1.2336   1.2337   2.0228   2.0228
     2.8139   2.8139   2.8186   2.8186   3.5834   3.5835   3.5993   3.5993
     3.9690   3.9691   4.4285   4.4285   4.7372   4.7372   5.0584   5.0584
     5.1929   5.1929   5.5064   5.5064   5.5678   5.5678   5.8754   5.8754
     6.3191   6.3191   7.1130   7.1130   7.5949   7.5949   8.0505   8.0505
     8.2673   8.2673   8.5122   8.5123   8.5919   8.5920   9.0776   9.0777
     9.3794   9.3794

          k = 0.1362 0.4087 0.4087 ( 21297 PWs)   bands (ev):

    -2.4414  -2.0325  -2.0325  -1.6247  -0.8127  -0.4083  -0.4083  -0.0050
     0.3964   0.7974   0.7974   1.1974   1.5924   1.5924   1.9898   1.9898
     2.7724   2.7724   3.1661   3.1661   3.1745   3.1745   3.5624   3.5624
     4.3189   4.3189   4.3328   4.3328   4.7640   4.7640   4.7793   4.7793
     5.0234   5.4030   5.4030   5.4727   5.5311   5.5312   5.8408   5.9124
     5.9124   6.6576   6.6576   7.0801   7.5607   8.0233   8.1823   8.1823
     8.2196   8.2196   8.2347   8.5582   8.8476   8.8477   9.2384   9.2384
     9.3523   9.3679

          k = 0.1362 0.4087-0.4995 ( 21324 PWs)   bands (ev):

    -2.2554  -2.2553  -1.8470  -1.8469  -0.6288  -0.6287  -0.2249  -0.2248
     0.5788   0.5789   0.9793   0.9794   1.7731   1.7732   2.1670   2.1670
     2.5627   2.5627   2.9514   2.9515   3.3519   3.3520   3.7403   3.7403
     4.1052   4.1052   4.4863   4.4864   4.5744   4.5745   4.9623   4.9623
     5.1969   5.1969   5.3221   5.3221   5.5623   5.5623   5.7025   5.7026
     6.0954   6.0954   7.1758   7.1758   7.6352   7.6352   8.0031   8.0032
     8.3503   8.3503   8.7713   8.7713   8.7868   8.7868   9.0274   9.0275
     9.3801   9.3801

          k = 0.1362-0.4995-0.4995 ( 21288 PWs)   bands (ev):

    -2.0697  -2.0696  -2.0696  -2.0695  -0.4451  -0.4450  -0.4450  -0.4449
     0.7610   0.7610   0.7610   0.7611   2.3469   2.3469   2.3469   2.3469
     2.3470   2.3470   2.3470   2.3470   3.9139   3.9139   3.9139   3.9140
     3.9140   3.9140   3.9140   3.9140   5.1147   5.1147   5.1147   5.1148
     5.1148   5.1148   5.1148   5.1148   5.3680   5.3681   5.3681   5.3682
     6.6258   6.6258   6.6258   6.6258   8.1486   8.1487   8.1487   8.1488
     8.1886   8.1887   8.1887   8.1887   9.3372   9.3373   9.3374   9.3378
     9.5723   9.5723

          k = 0.2270 0.2270 0.2270 ( 21293 PWs)   bands (ev):

    -2.8888  -1.6617  -1.6617  -1.6617  -0.4450  -0.4450  -0.4450   0.3593
     0.3593   0.3593   0.7618   1.5591   1.5591   1.5591   1.5591   1.5591
     1.5591   2.7474   2.7474   2.7474   3.5337   3.5337   3.5337   3.8818
     3.8818   3.8818   4.7266   4.7266   4.7266   5.0430   5.0430   5.0430
     5.0430   5.0430   5.0430   6.2216   6.2216   6.2216   6.6670   6.9798
     6.9798   6.9798   6.9798   6.9798   6.9798   8.0154   8.0154   8.0154
     8.1399   8.1399   8.1399   8.1399   8.1399   8.1399   9.1884   9.1884
     9.1884   9.1885

          k = 0.2270 0.2270 0.3179 ( 21309 PWs)   bands (ev):

    -2.7768  -1.9582  -1.5507  -1.5507  -0.7390  -0.7390  -0.3349   0.4688
     0.4688   0.4702   0.8685   1.2692   1.2692   1.6677   1.6677   2.0639
     2.0639   2.4609   2.4609   3.2272   3.2440   3.6393   3.9879   3.9879
     4.0293   4.0293   4.3982   4.3982   4.4464   4.7632   4.7632   5.1438
     5.1438   5.2204   5.2204   5.5840   5.9429   5.9429   6.3528   6.3528
     7.0882   7.0882   7.1571   7.4558   7.4559   7.5092   7.5092   7.8606
     7.8606   8.1137   8.1137   8.6251   8.6251   8.8587   8.9302   8.9303
     9.3067   9.3068

          k = 0.2270 0.2270 0.4087 ( 21284 PWs)   bands (ev):

    -2.6276  -2.2182  -1.4028  -1.4028  -0.9968  -0.9968  -0.1882   0.2145
     0.6146   0.6146   1.0150   1.0150   1.4113   1.8124   1.8124   2.2092
     2.2092   2.5931   2.6018   2.6019   3.7564   3.7718   3.7718   3.7777
     4.1293   4.1293   4.2187   4.5173   4.5173   4.5541   4.5541   4.9665
     5.2624   5.2624   5.7025   5.7025   5.7476   5.7476   5.7594   5.7594
     6.8951   6.8951   7.2298   7.2298   7.6158   7.6158   7.6796   7.9463
     7.9463   8.2340   8.2340   8.7195   8.7195   8.8161   9.1428   9.1428
     9.1823   9.1823

          k = 0.2270 0.2270-0.4995 ( 21296 PWs)   bands (ev):

    -2.4414  -2.4413  -1.2182  -1.2181  -1.2181  -1.2181  -0.0050  -0.0050
     0.7967   0.7967   0.7968   0.7968   1.9867   1.9868   1.9929   1.9929
     1.9930   1.9930   3.1718   3.1718   3.1718   3.1718   3.9343   3.9343
     4.3058   4.3058   4.3059   4.3059   4.3927   4.3927   5.0873   5.0873
     5.0873   5.0873   5.5198   5.5198   5.5198   5.5198   6.3065   6.3066
     6.3066   6.3066   7.4055   7.4055   7.4056   7.4056   8.2333   8.2333
     8.2958   8.2958   8.2959   8.2959   8.7134   8.7135   8.7135   8.7135
     9.6312   9.6909

          k = 0.2270 0.3179 0.3179 ( 21308 PWs)   bands (ev):

    -2.6649  -1.8470  -1.8470  -1.4397  -1.0336  -0.6287  -0.6287   0.1780
     0.5782   0.9776   0.9776   1.3780   1.3780   1.7750   1.7750   2.1721
     2.1721   2.1732   2.9610   2.9610   3.3341   3.3341   4.0940   4.1156
     4.1156   4.1314   4.1314   4.5026   4.5026   4.5196   4.8671   4.8671
     4.9383   4.9383   5.3072   5.3072   5.6675   5.7134   6.4570   6.4570
     6.8322   6.8322   7.2290   7.2290   7.5701   7.5701   7.6460   7.9962
     7.9962   8.1988   8.3460   8.3460   8.9451   8.9451   9.0379   9.0380
     9.1660   9.7524

          k = 0.2270 0.3179 0.4087 ( 21309 PWs)   bands (ev):

    -2.5158  -2.1067  -1.6988  -1.2920  -1.2919  -0.8863  -0.4817  -0.0782
     0.7239   1.1229   1.1240   1.5200   1.5218   1.5230   1.9208   2.3142
     2.3161   2.7007   2.7095   2.7111   3.4766   3.4871   3.4912   3.8676
     3.8778   4.2352   4.2499   4.6223   4.6345   4.6391   4.6945   4.7081
     5.0032   5.0194   5.0870   5.4498   5.4654   5.8458   6.2254   6.2394
     6.5972   6.6140   6.9834   7.3416   7.3838   7.7139   8.0805   8.1012
     8.1672   8.2280   8.5155   8.6696   8.8061   8.8639   8.9801   9.1794
     9.3008   9.3858

          k = 0.2270 0.3179-0.4995 ( 21324 PWs)   bands (ev):

    -2.3298  -2.3297  -1.5137  -1.5137  -1.1074  -1.1074  -0.2982  -0.2981
     0.9059   0.9060   1.3043   1.3044   1.7039   1.7040   2.0949   2.0949
     2.4958   2.4959   2.8855   2.8855   3.2787   3.2788   3.6545   3.6545
     4.0349   4.0349   4.4113   4.4114   4.5043   4.5043   4.7922   4.7922
     5.1574   5.1575   5.2787   5.2787   5.6596   5.6596   6.0248   6.0248
     6.7727   6.7728   6.7969   6.7969   7.8616   7.8616   7.8906   7.8907
     8.6041   8.6041   8.6292   8.6293   8.7195   8.7195   9.0661   9.0661
     9.3552   9.4130

          k = 0.2270 0.4087 0.4087 ( 21327 PWs)   bands (ev):

    -2.3669  -1.9582  -1.9582  -1.5507  -1.1443  -0.7390  -0.7390  -0.3348
     0.8695   1.2692   1.2692   1.6647   1.6647   1.6678   2.0620   2.0620
     2.8440   2.8440   2.8528   2.8528   3.2374   3.2374   3.2449   3.2449
     4.0183   4.0183   4.3761   4.3810   4.3810   4.7615   4.7615   4.8585
     4.8586   5.1225   5.2194   5.2194   5.6261   5.9826   5.9826   6.3680
     6.3680   6.7391   6.7391   6.7639   7.8320   7.9049   7.9049   8.2293
     8.2293   8.5981   8.6190   8.6190   8.6870   8.9407   8.9408   9.0389
     9.3277   9.3277

          k = 0.2270 0.4087-0.4995 ( 21332 PWs)   bands (ev):

    -2.1811  -2.1810  -1.7729  -1.7728  -0.9600  -0.9599  -0.5552  -0.5551
     1.0513   1.0514   1.4505   1.4506   1.8454   1.8455   2.2390   2.2390
     2.6345   2.6345   3.0230   3.0230   3.0314   3.0315   3.4210   3.4210
     3.8075   3.8075   4.1912   4.1912   4.5517   4.5518   4.9329   4.9330
     5.0117   5.0118   5.3966   5.3966   5.7785   5.7785   6.1573   6.1573
     6.1604   6.1604   7.2815   7.2815   7.3197   7.3197   8.4077   8.4078
     8.4572   8.4573   8.7413   8.7414   8.7721   8.7722   9.1135   9.1136
     9.1678   9.1678

          k = 0.2270-0.4995-0.4995 ( 21336 PWs)   bands (ev):

    -1.9954  -1.9953  -1.9953  -1.9953  -0.7759  -0.7758  -0.7758  -0.7757
     1.2329   1.2329   1.2329   1.2330   2.4189   2.4189   2.4189   2.4189
     2.4189   2.4189   2.4189   2.4189   3.5979   3.5979   3.5979   3.5979
     3.5980   3.5980   3.5980   3.5980   4.7262   4.7263   4.7263   4.7263
     5.5683   5.5683   5.5683   5.5684   5.5684   5.5684   5.5684   5.5684
     6.7075   6.7075   6.7075   6.7075   7.8739   7.8739   7.8739   7.8739
     8.9077   8.9078   8.9545   8.9550   8.9551   8.9551   8.9551   8.9551
     8.9551   8.9552

          k = 0.3179 0.3179 0.3179 ( 21299 PWs)   bands (ev):

    -2.5531  -1.7358  -1.7358  -1.7358  -0.9231  -0.9231  -0.9231  -0.1148
     1.0866   1.0866   1.0866   1.8834   1.8834   1.8834   1.8834   1.8835
     1.8835   2.6752   2.6752   2.6752   3.4410   3.4410   3.4410   4.2212
     4.2212   4.2212   4.2212   4.2212   4.2212   4.6002   4.6002   4.6002
     5.0516   5.0516   5.0516   5.4312   5.4312   5.4312   6.9414   6.9414
     6.9414   6.9414   6.9415   6.9415   7.7162   7.7162   7.7162   7.7162
     7.7162   7.7162   8.1337   8.9466   8.9466   8.9466   9.3688   9.3688
     9.3688   9.8687

          k = 0.3179 0.3179 0.4087 ( 21331 PWs)   bands (ev):

    -2.4042  -1.9953  -1.5877  -1.5877  -1.1812  -1.1812  -0.7758  -0.3715
     1.2318   1.2318   1.6285   1.6304   1.6304   2.0278   2.0278   2.4221
     2.4221   2.4240   2.4240   2.8082   3.2092   3.5833   3.5833   3.5937
     3.5937   3.9737   3.9737   4.3459   4.3611   4.3611   4.7221   4.7221
     4.8238   5.1851   5.2105   5.2105   5.9575   5.9575   6.3298   6.3298
     7.0836   7.0836   7.1031   7.1031   7.4574   7.4574   7.4708   7.4708
     8.2359   8.2359   8.5517   8.5518   8.6536   9.2954   9.2954   9.3051
     9.3670   9.3670

          k = 0.3179 0.3179-0.4995 ( 21314 PWs)   bands (ev):

    -2.2182  -2.2182  -1.4028  -1.4028  -1.4027  -1.4027  -0.5919  -0.5919
     1.4131   1.4131   1.4132   1.4132   2.2030   2.2030   2.2081   2.2081
     2.2081   2.2081   2.9928   2.9929   2.9929   2.9929   3.7609   3.7609
     3.7610   3.7610   3.7720   3.7720   4.5332   4.5332   4.5332   4.5333
     4.9773   4.9774   5.7464   5.7464   5.7464   5.7464   6.5155   6.5155
     6.5155   6.5155   7.2599   7.2599   7.2600   7.2600   8.0001   8.0001
     8.0001   8.0001   8.7868   8.7868   8.7868   8.7868   9.2045   9.2045
     9.4384   9.5084

          k = 0.3179 0.4087 0.4087 ( 21322 PWs)   bands (ev):

    -2.2554  -1.8470  -1.8470  -1.4398  -1.4397  -1.0336  -1.0336  -0.6286
     1.3769   1.7732   1.7732   1.7751   1.7751   2.1701   2.1701   2.1721
     2.5659   2.5659   2.9514   2.9514   2.9599   2.9599   3.3444   3.3444
     3.7254   3.7355   3.7355   4.1149   4.1149   4.1204   4.1204   4.4979
     5.3287   5.3287   5.7110   5.7110   5.7130   6.4703   6.4703   6.4824
     6.8487   6.8487   6.8571   6.8572   7.6021   7.6021   7.6246   7.6246
     7.9718   7.9905   7.9906   8.7237   8.7237   8.7594   9.1212   9.1212
     9.1721   9.4069

          k = 0.3179 0.4087-0.4995 ( 21292 PWs)   bands (ev):

    -2.0696  -2.0696  -1.6618  -1.6617  -1.2550  -1.2550  -0.8494  -0.8494
     1.5580   1.5581   1.9537   1.9538   1.9556   1.9557   2.3470   2.3470
     2.7421   2.7421   2.7452   2.7452   3.1302   3.1303   3.1358   3.1358
     3.5267   3.5267   3.9027   3.9028   3.9117   3.9118   4.2903   4.2904
     5.5006   5.5007   5.8834   5.8834   6.2650   6.2650   6.2692   6.2692
     6.6461   6.6462   7.0388   7.0388   7.3979   7.3979   7.7794   7.7794
     8.1503   8.1504   8.1774   8.1774   8.5414   8.5414   8.9078   8.9079
     9.5718   9.5719

          k = 0.3179-0.4995-0.4995 ( 21304 PWs)   bands (ev):

    -1.8841  -1.8841  -1.8841  -1.8840  -1.0706  -1.0705  -1.0705  -1.0704
     1.7388   1.7389   1.7389   1.7390   2.5267   2.5267   2.5267   2.5267
     2.5267   2.5267   2.5268   2.5268   3.3139   3.3139   3.3139   3.3139
     3.3139   3.3140   3.3140   3.3140   4.0793   4.0794   4.0794   4.0795
     6.0582   6.0582   6.0582   6.0583   6.0583   6.0583   6.0583   6.0583
     6.8171   6.8172   6.8172   6.8172   7.5935   7.5935   7.5935   7.5935
     8.3296   8.3296   8.3296   8.3296   8.3296   8.3296   8.3296   8.3296
     9.7430   9.7431

          k = 0.4087 0.4087 0.4087 ( 21317 PWs)   bands (ev):

    -2.1067  -1.6988  -1.6988  -1.6988  -1.2919  -1.2919  -1.2919  -0.8862
     1.9177   1.9177   1.9177   2.3142   2.3142   2.3142   2.3142   2.3142
     2.3142   2.7093   2.7093   2.7093   3.0945   3.0945   3.0945   3.4868
     3.4868   3.4868   3.4868   3.4868   3.4868   3.8762   3.8762   3.8762
     5.8500   5.8500   5.8500   6.2360   6.2360   6.2360   6.9911   6.9911
     6.9911   6.9911   6.9911   6.9911   7.3789   7.3789   7.3789   7.3789
     7.3789   7.3789   8.1224   8.1224   8.1224   8.5139   8.5139   8.5139
     9.6893  10.2840

          k = 0.4087 0.4087-0.4995 ( 21318 PWs)   bands (ev):

    -1.9212  -1.9211  -1.5137  -1.5137  -1.5137  -1.5136  -1.1074  -1.1073
     2.0980   2.0980   2.0981   2.0981   2.4908   2.4908   2.4939   2.4939
     2.4940   2.4940   2.8854   2.8854   2.8854   2.8854   3.2730   3.2730
     3.2730   3.2730   3.2782   3.2782   3.6642   3.6643   3.6643   3.6644
     6.0250   6.0250   6.4056   6.4056   6.4056   6.4056   6.7927   6.7927
     6.7927   6.7927   7.1677   7.1677   7.1678   7.1678   7.5428   7.5428
     7.5428   7.5428   7.9318   7.9318   7.9318   7.9318   8.3019   8.3019
    10.2374  10.2374

          k = 0.4087-0.4995-0.4995 ( 21304 PWs)   bands (ev):

    -1.7359  -1.7358  -1.7358  -1.7357  -1.3289  -1.3289  -1.3289  -1.3288
     2.2781   2.2782   2.2782   2.2783   2.6703   2.6703   2.6703   2.6703
     2.6703   2.6703   2.6704   2.6704   3.0642   3.0642   3.0642   3.0642
     3.0642   3.0642   3.0643   3.0643   3.4511   3.4511   3.4511   3.4512
     6.5815   6.5815   6.5815   6.5816   6.5816   6.5816   6.5816   6.5816
     6.9597   6.9597   6.9597   6.9597   7.3476   7.3476   7.3476   7.3477
     7.7204   7.7204   7.7204   7.7204   7.7205   7.7205   7.7205   7.7205
    10.6255  10.6256

          k =-0.4995-0.4995-0.4995 ( 21368 PWs)   bands (ev):

    -1.5508  -1.5507  -1.5507  -1.5507  -1.5506  -1.5506  -1.5506  -1.5506
     2.8494   2.8494   2.8495   2.8495   2.8495   2.8495   2.8495   2.8495
     2.8495   2.8495   2.8495   2.8495   2.8495   2.8495   2.8496   2.8496
     2.8496   2.8496   2.8496   2.8496   2.8496   2.8496   2.8496   2.8496
     7.1363   7.1363   7.1363   7.1363   7.1363   7.1363   7.1364   7.1364
     7.1364   7.1364   7.1364   7.1364   7.1364   7.1364   7.1364   7.1364
     7.1364   7.1364   7.1364   7.1364   7.1364   7.1364   7.1364   7.1364
    11.3291  11.5438

     the Fermi energy is     7.8973 ev

!    total energy              =   -1264.08741858 Ry
     Harris-Foulkes estimate   =   -1264.08741884 Ry
     estimated scf accuracy    <       0.00000060 Ry

     total all-electron energy =    -15540.656441 Ry

     The total energy is the sum of the following terms:

     one-electron contribution =     101.10438544 Ry
     hartree contribution      =       0.19635853 Ry
     xc contribution           =     -82.88344659 Ry
     ewald contribution        =    -172.82769044 Ry
     one-center paw contrib.   =   -1109.67423696 Ry
     smearing contrib. (-TS)   =      -0.00278856 Ry

     convergence has been achieved in   9 iterations

     Forces acting on atoms (cartesian axes, Ry/au):

     atom    1 type  1   force =     0.00000000   -0.00000000   -0.00000000
     atom    2 type  1   force =     0.00001076    0.00001076   -0.00000000
     atom    3 type  1   force =     0.00001076    0.00000000    0.00001076
     atom    4 type  1   force =     0.00000000    0.00001076    0.00001076
     atom    5 type  1   force =     0.00000000    0.00000000    0.00000000
     atom    6 type  1   force =     0.00000561    0.00000561   -0.00000000
     atom    7 type  1   force =     0.00001076   -0.00000000   -0.00001076
     atom    8 type  1   force =     0.00000000    0.00001076   -0.00001076
     atom    9 type  1   force =     0.00000000    0.00000000    0.00000000
     atom   10 type  1   force =     0.00001076   -0.00001076    0.00000000
     atom   11 type  1   force =     0.00000561   -0.00000000    0.00000561
     atom   12 type  1   force =    -0.00000000   -0.00001076    0.00001076
     atom   13 type  1   force =     0.00000000    0.00000000    0.00000000
     atom   14 type  1   force =     0.00000561   -0.00000561    0.00000000
     atom   15 type  1   force =     0.00000561    0.00000000   -0.00000561
     atom   16 type  1   force =     0.00000000   -0.00001076   -0.00001076
     atom   17 type  1   force =     0.00000000    0.00000000    0.00000000
     atom   18 type  1   force =    -0.00001076    0.00001076   -0.00000000
     atom   19 type  1   force =    -0.00001076    0.00000000    0.00001076
     atom   20 type  1   force =     0.00000000    0.00000561    0.00000561
     atom   21 type  1   force =     0.00000000    0.00000000    0.00000000
     atom   22 type  1   force =    -0.00000561    0.00000561    0.00000000
     atom   23 type  1   force =    -0.00001076   -0.00000000   -0.00001076
     atom   24 type  1   force =     0.00000000    0.00000561   -0.00000561
     atom   25 type  1   force =     0.00000000    0.00000000    0.00000000
     atom   26 type  1   force =    -0.00001076   -0.00001076   -0.00000000
     atom   27 type  1   force =    -0.00000561   -0.00000000    0.00000561
     atom   28 type  1   force =     0.00000000   -0.00000561    0.00000561
     atom   29 type  1   force =     0.00000000    0.00000000    0.00000000
     atom   30 type  1   force =    -0.00000561   -0.00000561    0.00000000
     atom   31 type  1   force =    -0.00000561    0.00000000   -0.00000561
     atom   32 type  1   force =     0.00000000   -0.00000561   -0.00000561

     Total force =     0.000059     Total SCF correction =     0.000377
     SCF correction compared to forces is large: reduce conv_thr to get better values


     Computing stress (Cartesian axis) and pressure

          total   stress  (Ry/bohr**3)                   (kbar)     P=   -2.24
  -0.00001521   0.00000000   0.00000000         -2.24      0.00      0.00
   0.00000000  -0.00001521   0.00000000          0.00     -2.24      0.00
   0.00000000   0.00000000  -0.00001521          0.00      0.00     -2.24


     Writing output data file WEpErDSHGEWGBgMA.save/
 
     init_run     :      6.43s CPU      6.64s WALL (       1 calls)
     electrons    :    102.25s CPU    104.14s WALL (       1 calls)
     forces       :      1.18s CPU      1.23s WALL (       1 calls)
     stress       :      5.98s CPU      6.02s WALL (       1 calls)

     Called by init_run:
     wfcinit      :      6.17s CPU      6.33s WALL (       1 calls)
     potinit      :      0.08s CPU      0.09s WALL (       1 calls)
     hinit0       :      0.07s CPU      0.11s WALL (       1 calls)

     Called by electrons:
     c_bands      :     89.19s CPU     90.71s WALL (      10 calls)
     sum_band     :     12.33s CPU     12.64s WALL (      10 calls)
     v_of_rho     :      0.11s CPU      0.12s WALL (      10 calls)
     newd         :      0.09s CPU      0.12s WALL (      10 calls)
     PAW_pot      :      0.58s CPU      0.58s WALL (      10 calls)
     mix_rho      :      0.02s CPU      0.03s WALL (      10 calls)

     Called by c_bands:
     init_us_2    :      1.95s CPU      1.98s WALL (    1288 calls)
     cegterg      :     83.99s CPU     85.45s WALL (     560 calls)

     Called by sum_band:
     sum_band:bec :      0.05s CPU      0.05s WALL (     560 calls)
     addusdens    :      0.07s CPU      0.09s WALL (      10 calls)

     Called by *egterg:
     h_psi        :     62.15s CPU     63.38s WALL (    2163 calls)
     s_psi        :      4.96s CPU      4.99s WALL (    2163 calls)
     g_psi        :      0.23s CPU      0.23s WALL (    1547 calls)
     cdiaghg      :     11.33s CPU     11.37s WALL (    2051 calls)

     Called by h_psi:
     h_psi:pot    :     61.78s CPU     63.00s WALL (    2163 calls)
     h_psi:calbec :      5.03s CPU      5.37s WALL (    2163 calls)
     vloc_psi     :     51.65s CPU     52.52s WALL (    2163 calls)
     add_vuspsi   :      5.08s CPU      5.10s WALL (    2163 calls)

     General routines
     calbec       :      8.31s CPU      8.81s WALL (    3003 calls)
     fft          :      0.14s CPU      0.19s WALL (     137 calls)
     ffts         :      0.01s CPU      0.01s WALL (      10 calls)
     fftw         :     56.64s CPU     57.59s WALL (  219394 calls)
 
     Parallel routines
     fft_scatt_xy :      5.27s CPU      5.35s WALL (  219541 calls)
     fft_scatt_yz :     33.30s CPU     33.89s WALL (  219541 calls)
 
     PWSCF        :  1m57.35s CPU     2m 3.15s WALL

 
   This run was terminated on:   3:24: 6  25Mar2020            

=------------------------------------------------------------------------------=
   JOB DONE.
=------------------------------------------------------------------------------=
