
     Program PWSCF v.6.3 starts on 25Mar2020 at  3:18: 7 

     This program is part of the open-source Quantum ESPRESSO suite
     for quantum simulation of materials; please cite
         "P. Giannozzi et al., J. Phys.:Condens. Matter 21 395502 (2009);
         "P. Giannozzi et al., J. Phys.:Condens. Matter 29 465901 (2017);
          URL http://www.quantum-espresso.org", 
     in publications or presentations arising from this work. More details at
     http://www.quantum-espresso.org/quote

     Parallel version (MPI & OpenMP), running on      20 processor cores
     Number of MPI processes:                20
     Threads/MPI process:                     1

     MPI processes distributed on     1 nodes
     R & G space division:  proc/nbgrp/npool/nimage =      20
     Reading input from /rds/homes/b/bxp912/jobs/20200324_al_eos_e/wd/pwscf_eos/eos_5.in
Warning: card &IONS ignored
Warning: card ION_DYNAMICS = 'BFGS', ignored
Warning: card / ignored
Warning: card &CELL ignored
Warning: card CELL_DYNAMICS = 'BFGS', ignored
Warning: card CELL_FACTOR = 2.0, ignored
Warning: card PRESS = 0.0, ignored
Warning: card / ignored

     Current dimensions of program PWSCF are:
     Max number of different atomic species (ntypx) = 10
     Max number of k-points (npk) =  40000
     Max angular momentum in pseudopotentials (lmaxx) =  3
     Message from routine read_upf::
     Pseudo file /rds/homes/b/bxp912/pp/Al.pbe-nl-kjpaw_psl.1.0.0.UPF has been successfully fixed on the fly.
To avoid this message in the future you can permanently fix 
 your pseudo files following instructions given in: 
https://gitlab.com/QEF/q-e/blob/master/upftools/how_to_fix_upf.md
               file Al.pbe-nl-kjpaw_psl.1.0.0.UPF: wavefunction(s)  3S 3P renormalized

     Subspace diagonalization in iterative solution of the eigenvalue problem:
     a serial algorithm will be used

     Found symmetry operation: I + (  0.2500  0.2500  0.0000)
     This is a supercell, fractional translations are disabled
 
     Parallelization info
     --------------------
     sticks:   dense  smooth     PW     G-vecs:    dense   smooth      PW
     Min         185     185     51                 8471     8471    1228
     Max         186     186     53                 8476     8476    1231
     Sum        3705    3705   1033               169437   169437   24573
 


     bravais-lattice index     =            0
     lattice parameter (alat)  =      15.2652  a.u.
     unit-cell volume          =    3546.5046 (a.u.)^3
     number of atoms/cell      =           32
     number of atomic types    =            1
     number of electrons       =        96.00
     number of Kohn-Sham states=           58
     kinetic-energy cutoff     =      50.0000  Ry
     charge density cutoff     =     200.0000  Ry
     convergence threshold     =      1.0E-06
     mixing beta               =       0.1000
     number of iterations used =           10  plain     mixing
     Exchange-correlation      = SLA PW PBX PBC ( 1  4  3  4 0 0)

     celldm(1)=  15.265160  celldm(2)=   0.000000  celldm(3)=   0.000000
     celldm(4)=   0.000000  celldm(5)=   0.000000  celldm(6)=   0.000000

     crystal axes: (cart. coord. in units of alat)
               a(1) = (   0.999000   0.000000   0.000000 )  
               a(2) = (   0.000000   0.999000   0.000000 )  
               a(3) = (   0.000000   0.000000   0.999000 )  

     reciprocal axes: (cart. coord. in units 2 pi/alat)
               b(1) = (  1.001001  0.000000  0.000000 )  
               b(2) = (  0.000000  1.001001  0.000000 )  
               b(3) = (  0.000000  0.000000  1.001001 )  


     PseudoPot. # 1 for Al read from file:
     /rds/homes/b/bxp912/pp/Al.pbe-nl-kjpaw_psl.1.0.0.UPF
     MD5 check sum: 339dbea23cf3ab9a065ad45c0f9085d7
     Pseudo is Projector augmented-wave + core cor, Zval =  3.0
     Generated using "atomic" code by A. Dal Corso v.5.1
     Shape of augmentation charge: PSQ
     Using radial grid of 1135 points,  4 beta functions with: 
                l(1) =   0
                l(2) =   0
                l(3) =   1
                l(4) =   1
     Q(r) pseudized with 0 coefficients 


     atomic species   valence    mass     pseudopotential
        Al             3.00    26.98200     Al( 1.00)

     48 Sym. Ops., with inversion, found



   Cartesian axes

     site n.     atom                  positions (alat units)
         1           Al  tau(   1) = (   0.0000000   0.0000000   0.0000000  )
         2           Al  tau(   2) = (   0.2497500   0.2497500   0.0000000  )
         3           Al  tau(   3) = (   0.2497500   0.0000000   0.2497500  )
         4           Al  tau(   4) = (   0.0000000   0.2497500   0.2497500  )
         5           Al  tau(   5) = (   0.0000000   0.0000000   0.4995000  )
         6           Al  tau(   6) = (   0.2497500   0.2497500   0.4995000  )
         7           Al  tau(   7) = (   0.2497500   0.0000000   0.7492500  )
         8           Al  tau(   8) = (   0.0000000   0.2497500   0.7492500  )
         9           Al  tau(   9) = (   0.0000000   0.4995000   0.0000000  )
        10           Al  tau(  10) = (   0.2497500   0.7492500   0.0000000  )
        11           Al  tau(  11) = (   0.2497500   0.4995000   0.2497500  )
        12           Al  tau(  12) = (   0.0000000   0.7492500   0.2497500  )
        13           Al  tau(  13) = (   0.0000000   0.4995000   0.4995000  )
        14           Al  tau(  14) = (   0.2497500   0.7492500   0.4995000  )
        15           Al  tau(  15) = (   0.2497500   0.4995000   0.7492500  )
        16           Al  tau(  16) = (   0.0000000   0.7492500   0.7492500  )
        17           Al  tau(  17) = (   0.4995000   0.0000000   0.0000000  )
        18           Al  tau(  18) = (   0.7492500   0.2497500   0.0000000  )
        19           Al  tau(  19) = (   0.7492500   0.0000000   0.2497500  )
        20           Al  tau(  20) = (   0.4995000   0.2497500   0.2497500  )
        21           Al  tau(  21) = (   0.4995000   0.0000000   0.4995000  )
        22           Al  tau(  22) = (   0.7492500   0.2497500   0.4995000  )
        23           Al  tau(  23) = (   0.7492500   0.0000000   0.7492500  )
        24           Al  tau(  24) = (   0.4995000   0.2497500   0.7492500  )
        25           Al  tau(  25) = (   0.4995000   0.4995000   0.0000000  )
        26           Al  tau(  26) = (   0.7492500   0.7492500   0.0000000  )
        27           Al  tau(  27) = (   0.7492500   0.4995000   0.2497500  )
        28           Al  tau(  28) = (   0.4995000   0.7492500   0.2497500  )
        29           Al  tau(  29) = (   0.4995000   0.4995000   0.4995000  )
        30           Al  tau(  30) = (   0.7492500   0.7492500   0.4995000  )
        31           Al  tau(  31) = (   0.7492500   0.4995000   0.7492500  )
        32           Al  tau(  32) = (   0.4995000   0.7492500   0.7492500  )

     number of k points=    56  Marzari-Vanderbilt smearing, width (Ry)=  0.0400
                       cart. coord. in units 2pi/alat
        k(    1) = (   0.0455000   0.0455000   0.0455000), wk =   0.0120210
        k(    2) = (   0.0455000   0.0455000   0.1365001), wk =   0.0360631
        k(    3) = (   0.0455000   0.0455000   0.2275002), wk =   0.0360631
        k(    4) = (   0.0455000   0.0455000   0.3185003), wk =   0.0360631
        k(    5) = (   0.0455000   0.0455000   0.4095004), wk =   0.0360631
        k(    6) = (   0.0455000   0.0455000  -0.5005005), wk =   0.0180316
        k(    7) = (   0.0455000   0.1365001   0.1365001), wk =   0.0360631
        k(    8) = (   0.0455000   0.1365001   0.2275002), wk =   0.0721262
        k(    9) = (   0.0455000   0.1365001   0.3185003), wk =   0.0721262
        k(   10) = (   0.0455000   0.1365001   0.4095004), wk =   0.0721262
        k(   11) = (   0.0455000   0.1365001  -0.5005005), wk =   0.0360631
        k(   12) = (   0.0455000   0.2275002   0.2275002), wk =   0.0360631
        k(   13) = (   0.0455000   0.2275002   0.3185003), wk =   0.0721262
        k(   14) = (   0.0455000   0.2275002   0.4095004), wk =   0.0721262
        k(   15) = (   0.0455000   0.2275002  -0.5005005), wk =   0.0360631
        k(   16) = (   0.0455000   0.3185003   0.3185003), wk =   0.0360631
        k(   17) = (   0.0455000   0.3185003   0.4095004), wk =   0.0721262
        k(   18) = (   0.0455000   0.3185003  -0.5005005), wk =   0.0360631
        k(   19) = (   0.0455000   0.4095004   0.4095004), wk =   0.0360631
        k(   20) = (   0.0455000   0.4095004  -0.5005005), wk =   0.0360631
        k(   21) = (   0.0455000  -0.5005005  -0.5005005), wk =   0.0090158
        k(   22) = (   0.1365001   0.1365001   0.1365001), wk =   0.0120210
        k(   23) = (   0.1365001   0.1365001   0.2275002), wk =   0.0360631
        k(   24) = (   0.1365001   0.1365001   0.3185003), wk =   0.0360631
        k(   25) = (   0.1365001   0.1365001   0.4095004), wk =   0.0360631
        k(   26) = (   0.1365001   0.1365001  -0.5005005), wk =   0.0180316
        k(   27) = (   0.1365001   0.2275002   0.2275002), wk =   0.0360631
        k(   28) = (   0.1365001   0.2275002   0.3185003), wk =   0.0721262
        k(   29) = (   0.1365001   0.2275002   0.4095004), wk =   0.0721262
        k(   30) = (   0.1365001   0.2275002  -0.5005005), wk =   0.0360631
        k(   31) = (   0.1365001   0.3185003   0.3185003), wk =   0.0360631
        k(   32) = (   0.1365001   0.3185003   0.4095004), wk =   0.0721262
        k(   33) = (   0.1365001   0.3185003  -0.5005005), wk =   0.0360631
        k(   34) = (   0.1365001   0.4095004   0.4095004), wk =   0.0360631
        k(   35) = (   0.1365001   0.4095004  -0.5005005), wk =   0.0360631
        k(   36) = (   0.1365001  -0.5005005  -0.5005005), wk =   0.0090158
        k(   37) = (   0.2275002   0.2275002   0.2275002), wk =   0.0120210
        k(   38) = (   0.2275002   0.2275002   0.3185003), wk =   0.0360631
        k(   39) = (   0.2275002   0.2275002   0.4095004), wk =   0.0360631
        k(   40) = (   0.2275002   0.2275002  -0.5005005), wk =   0.0180316
        k(   41) = (   0.2275002   0.3185003   0.3185003), wk =   0.0360631
        k(   42) = (   0.2275002   0.3185003   0.4095004), wk =   0.0721262
        k(   43) = (   0.2275002   0.3185003  -0.5005005), wk =   0.0360631
        k(   44) = (   0.2275002   0.4095004   0.4095004), wk =   0.0360631
        k(   45) = (   0.2275002   0.4095004  -0.5005005), wk =   0.0360631
        k(   46) = (   0.2275002  -0.5005005  -0.5005005), wk =   0.0090158
        k(   47) = (   0.3185003   0.3185003   0.3185003), wk =   0.0120210
        k(   48) = (   0.3185003   0.3185003   0.4095004), wk =   0.0360631
        k(   49) = (   0.3185003   0.3185003  -0.5005005), wk =   0.0180316
        k(   50) = (   0.3185003   0.4095004   0.4095004), wk =   0.0360631
        k(   51) = (   0.3185003   0.4095004  -0.5005005), wk =   0.0360631
        k(   52) = (   0.3185003  -0.5005005  -0.5005005), wk =   0.0090158
        k(   53) = (   0.4095004   0.4095004   0.4095004), wk =   0.0120210
        k(   54) = (   0.4095004   0.4095004  -0.5005005), wk =   0.0180316
        k(   55) = (   0.4095004  -0.5005005  -0.5005005), wk =   0.0090158
        k(   56) = (  -0.5005005  -0.5005005  -0.5005005), wk =   0.0015026

     Dense  grid:   169437 G-vectors     FFT dimensions: (  72,  72,  72)

     Estimated max dynamical RAM per process >      81.57 MB

     Estimated total dynamical RAM >       1.59 GB

     Initial potential from superposition of free atoms

     starting charge   95.92671, renormalised to   96.00000
     Starting wfcs are  128 randomized atomic wfcs
     Checking if some PAW data can be deallocated... 

     total cpu time spent up to now is        7.2 secs

     Self-consistent Calculation

     iteration #  1     ecut=    50.00 Ry     beta= 0.10
     Davidson diagonalization with overlap
     ethr =  1.00E-02,  avg # of iterations =  3.1

     Threshold (ethr) on eigenvalues was too large:
     Diagonalizing with lowered threshold

     Davidson diagonalization with overlap
     ethr =  1.91E-04,  avg # of iterations =  4.4

     total cpu time spent up to now is       31.6 secs

     total energy              =   -1264.12439872 Ry
     Harris-Foulkes estimate   =   -1264.13376704 Ry
     estimated scf accuracy    <       0.17937019 Ry

     iteration #  2     ecut=    50.00 Ry     beta= 0.10
     Davidson diagonalization with overlap
     ethr =  1.87E-04,  avg # of iterations =  1.0

     total cpu time spent up to now is       39.1 secs

     total energy              =   -1264.08394199 Ry
     Harris-Foulkes estimate   =   -1264.12517766 Ry
     estimated scf accuracy    <       0.14406070 Ry

     iteration #  3     ecut=    50.00 Ry     beta= 0.10
     Davidson diagonalization with overlap
     ethr =  1.50E-04,  avg # of iterations =  1.0

     total cpu time spent up to now is       46.5 secs

     total energy              =   -1264.08663181 Ry
     Harris-Foulkes estimate   =   -1264.08663531 Ry
     estimated scf accuracy    <       0.00023888 Ry

     iteration #  4     ecut=    50.00 Ry     beta= 0.10
     Davidson diagonalization with overlap
     c_bands:  1 eigenvalues not converged
     c_bands:  1 eigenvalues not converged
     c_bands:  2 eigenvalues not converged
     c_bands:  2 eigenvalues not converged
     c_bands:  2 eigenvalues not converged
     ethr =  2.49E-07,  avg # of iterations =  7.8

     total cpu time spent up to now is       64.4 secs

     total energy              =   -1264.08772943 Ry
     Harris-Foulkes estimate   =   -1264.08748070 Ry
     estimated scf accuracy    <       0.00021273 Ry

     iteration #  5     ecut=    50.00 Ry     beta= 0.10
     Davidson diagonalization with overlap
     ethr =  2.22E-07,  avg # of iterations =  1.9

     total cpu time spent up to now is       72.3 secs

     total energy              =   -1264.08737517 Ry
     Harris-Foulkes estimate   =   -1264.08773703 Ry
     estimated scf accuracy    <       0.00078193 Ry

     iteration #  6     ecut=    50.00 Ry     beta= 0.10
     Davidson diagonalization with overlap
     ethr =  2.22E-07,  avg # of iterations =  2.0

     total cpu time spent up to now is       81.6 secs

     total energy              =   -1264.08740181 Ry
     Harris-Foulkes estimate   =   -1264.08740169 Ry
     estimated scf accuracy    <       0.00000173 Ry

     iteration #  7     ecut=    50.00 Ry     beta= 0.10
     Davidson diagonalization with overlap
     ethr =  1.80E-09,  avg # of iterations =  5.8

     total cpu time spent up to now is       97.1 secs

     total energy              =   -1264.08740386 Ry
     Harris-Foulkes estimate   =   -1264.08740462 Ry
     estimated scf accuracy    <       0.00000229 Ry

     iteration #  8     ecut=    50.00 Ry     beta= 0.10
     Davidson diagonalization with overlap
     ethr =  1.80E-09,  avg # of iterations =  1.0

     total cpu time spent up to now is      104.5 secs

     End of self-consistent calculation

          k = 0.0455 0.0455 0.0455 ( 21163 PWs)   bands (ev):

    -3.2047  -1.1527  -1.1527  -1.1527  -0.7460  -0.7460  -0.7459   0.8704
     0.8704   0.8704   1.2714   1.2714   1.2714   1.2714   1.2714   1.2714
     1.6713   1.6713   1.6713   2.8604   3.2369   3.2370   3.2370   3.6944
     3.6944   3.6945   4.0691   4.9205   4.9205   4.9205   6.4735   6.4735
     6.4735   6.8199   6.8199   6.8199   6.8200   6.8200   6.8200   7.2012
     7.2012   7.2012   7.2013   7.2013   7.2013   8.2215   8.2215   8.2215
     8.2216   8.2216   8.2216   8.7329   8.7329   8.7330   9.1140   9.1140
     9.1140   9.1140

          k = 0.0455 0.0455 0.1365 ( 21149 PWs)   bands (ev):

    -3.1671  -1.5235  -1.1157  -1.1156  -0.7090  -0.7090  -0.3037   0.5047
     0.5047   0.9068   0.9068   0.9069   1.3078   1.3078   1.7074   1.7074
     1.7076   2.1061   2.1061   2.5032   2.8962   2.8962   3.2723   3.7305
     4.1049   4.1049   4.3715   4.4941   4.9551   4.9551   6.2921   6.2921
     6.4763   6.4763   6.5095   6.5095   6.6594   6.6594   6.8720   6.8720
     7.0874   7.2410   7.2410   7.5993   7.5994   8.0224   8.0224   8.2336
     8.3865   8.3865   8.4133   8.4133   8.6082   8.6082   8.6166   8.6166
     8.7675   8.7675

          k = 0.0455 0.0455 0.2275 ( 21166 PWs)   bands (ev):

    -3.0920  -1.8582  -1.0416  -1.0416  -0.6352  -0.6352   0.1737   0.1748
     0.1748   0.5778   0.5778   0.9799   1.3807   1.3807   1.7802   2.1779
     2.1780   2.1790   2.5751   2.5751   2.5752   2.5752   2.9677   3.7150
     4.1762   4.5651   4.5651   4.9557   5.0243   5.0243   5.6555   5.6555
     6.0364   6.0364   6.1657   6.1657   6.5815   6.5815   6.9329   6.9329
     7.3115   7.3115   7.6097   7.6983   7.6983   7.8737   7.9945   7.9945
     8.0747   8.0747   8.1032   8.1032   8.3789   8.4557   8.4557   8.5527
     8.5527   8.8743

          k = 0.0455 0.0455 0.3185 ( 21160 PWs)   bands (ev):

    -2.9794  -2.1563  -0.9306  -0.9306  -0.5245  -0.5245  -0.1192  -0.1192
     0.2847   0.2847   0.6856   1.0894   1.4898   1.4898   1.8891   1.8895
     2.2872   2.2872   2.6823   2.6824   2.6830   3.0568   3.0780   3.0780
     4.6711   5.0128   5.0128   5.0613   5.0613   5.1281   5.1281   5.3987
     5.3987   5.4517   5.8892   5.8892   6.6890   6.6890   6.9749   7.0358
     7.0359   7.3612   7.3613   7.4158   7.4158   7.4526   7.4527   7.7471
     7.7975   7.7975   8.1785   8.1785   8.5697   8.5697   8.6865   8.6865
     8.7267   9.0471

          k = 0.0455 0.0455 0.4095 ( 21198 PWs)   bands (ev):

    -2.8294  -2.4177  -0.7827  -0.7827  -0.3770  -0.3770  -0.3769  -0.3768
     0.0277   0.0277   1.2313   1.2353   1.6353   1.6353   1.6355   2.0340
     2.0342   2.0342   2.4193   2.4314   3.2198   3.2198   3.6136   3.6137
     4.3879   4.3879   4.7771   4.7771   5.2013   5.2665   5.2665   5.5911
     5.5912   5.6471   5.6471   5.9807   6.3565   6.7443   6.7443   6.8314
     6.8314   7.1315   7.1741   7.1741   7.2164   7.2164   7.5546   7.5546
     7.5550   7.5550   7.9359   7.9359   8.8416   8.8416   9.0850   9.0850
     9.2155   9.2156

          k = 0.0455 0.0455-0.5005 ( 21206 PWs)   bands (ev):

    -2.6421  -2.6420  -0.5982  -0.5981  -0.5981  -0.5980  -0.1930  -0.1929
    -0.1929  -0.1929   1.4173   1.4174   1.8097   1.8097   1.8167   1.8167
     1.8168   1.8168   2.2149   2.2149   3.7889   3.7890   3.7890   3.7890
     4.1807   4.1807   4.1807   4.1808   5.4395   5.4395   5.4396   5.4396
     5.7639   5.7640   6.1529   6.1529   6.1529   6.1529   6.5414   6.5414
     7.0078   7.0078   7.0079   7.0079   7.3471   7.3472   7.3472   7.3473
     7.7279   7.7279   7.7280   7.7280   9.0263   9.0263   9.0264   9.0264
     9.4057   9.4058

          k = 0.0455 0.1365 0.1365 ( 21161 PWs)   bands (ev):

    -3.1295  -1.4864  -1.4864  -1.0786  -0.6721  -0.2669  -0.2668   0.1381
     0.5413   0.5413   0.9433   0.9433   1.3440   1.3440   1.7437   1.7438
     2.1422   2.1423   2.1429   2.5392   2.5394   3.3076   3.3077   3.7667
     3.7668   4.4067   4.4067   4.5297   4.9205   4.9897   5.9466   5.9466
     6.3107   6.3108   6.5083   6.5083   6.5455   6.7417   6.7418   7.0792
     7.0792   7.1228   7.1228   7.6515   7.6515   7.8850   7.8850   8.0401
     8.1356   8.1356   8.2682   8.2682   8.5423   8.5423   8.9128   8.9129
     9.0338   9.0339

          k = 0.0455 0.1365 0.2275 ( 21160 PWs)   bands (ev):

    -3.0544  -1.8209  -1.4122  -1.0046  -0.5983  -0.1932  -0.1927   0.2104
     0.2115   0.6144   0.6146   1.0160   1.0163   1.8157   1.8163   1.8171
     2.2141   2.2146   2.2150   2.6112   3.0034   3.0070   3.3783   3.7506
     3.8388   4.2120   4.4770   4.9911   5.0589   5.3059   5.3817   5.6334
     5.6863   6.0467   6.1996   6.4297   6.4451   6.6057   6.6171   6.8036
     7.1933   7.2593   7.4470   7.5710   7.6445   7.7251   7.7283   7.9085
     7.9218   7.9544   8.0735   8.2320   8.3406   8.4134   8.7973   8.8713
     9.0886   9.1069

          k = 0.0455 0.1365 0.3185 ( 21163 PWs)   bands (ev):

    -2.9419  -2.1190  -1.3009  -0.8936  -0.4876  -0.4873  -0.0829  -0.0824
     0.3214   0.7221   0.7238   0.7243   1.1258   1.5266   1.9251   1.9256
     2.3215   2.3230   2.7184   2.7187   3.0926   3.1106   3.1138   3.5080
     4.3185   4.5825   4.6600   4.7067   5.0465   5.1627   5.3541   5.4291
     5.4869   5.8152   5.8768   5.9235   6.5287   6.6230   6.6917   6.7240
     6.9069   7.0098   7.2917   7.2988   7.4480   7.4512   7.6751   7.7818
     7.8304   8.0380   8.1323   8.1671   8.3489   8.5941   8.6108   8.7608
     9.1430   9.2546

          k = 0.0455 0.1365 0.4095 ( 21165 PWs)   bands (ev):

    -2.7919  -2.3803  -1.1526  -0.7458  -0.7457  -0.3402  -0.3400   0.0641
     0.0644   0.4676   0.8706   1.2677   1.2716   1.2719   1.6717   2.0700
     2.4554   2.4673   2.4674   2.8605   2.8624   3.2555   3.6492   4.0325
     4.0415   4.4227   4.7231   4.8109   4.8472   5.1090   5.1991   5.2367
     5.3011   5.6816   6.0035   6.0158   6.3916   6.4048   6.6647   6.8286
     6.8654   7.0463   7.0473   7.1664   7.2088   7.2411   7.4306   7.4384
     7.5530   7.8138   7.9697   8.3514   8.4966   8.6136   8.8933   9.1211
     9.4133   9.6101

          k = 0.0455 0.1365-0.5005 ( 21188 PWs)   bands (ev):

    -2.6047  -2.6046  -0.9676  -0.9675  -0.5612  -0.5612  -0.1562  -0.1561
     0.2476   0.2477   1.0531   1.0532   1.4536   1.4537   1.8460   1.8460
     2.2508   2.2509   2.6473   2.6474   3.4314   3.4315   3.8244   3.8244
     4.2157   4.2157   4.6061   4.6061   4.8986   4.8987   5.4101   5.4101
     5.4740   5.4741   5.7992   5.7992   6.5763   6.5764   6.8381   6.8382
     6.9642   6.9642   7.0012   7.0013   7.0393   7.0394   7.2209   7.2210
     7.6109   7.6110   8.1432   8.1433   8.6778   8.6779   9.1548   9.1548
     9.5983   9.5985

          k = 0.0455 0.2275 0.2275 ( 21167 PWs)   bands (ev):

    -2.9794  -1.7465  -1.7465  -0.9306  -0.5245  -0.5242   0.2837   0.2838
     0.2849   0.2849   0.6876   0.6876   1.4889   1.4889   1.4903   1.8894
     2.2864   2.2865   2.6832   2.6833   3.4487   3.4487   3.4727   3.8217
     3.8217   3.9112   3.9112   4.9897   4.9897   5.1281   5.4521   5.7315
     5.7316   5.8421   6.1980   6.1981   6.2659   6.2659   6.6880   6.8888
     6.8888   6.9436   6.9436   7.3290   7.3290   7.4166   7.9475   7.9476
     7.9778   7.9778   8.1711   8.1712   8.8661   8.8661   9.0239   9.0240
     9.1092   9.2494

          k = 0.0455 0.2275 0.3185 ( 21180 PWs)   bands (ev):

    -2.8669  -2.0444  -1.6350  -0.8197  -0.8196  -0.4139  -0.0088   0.3937
     0.3947   0.3949   0.7952   0.7973   1.1977   1.1991   1.5991   1.9959
     2.3948   2.7903   2.7911   3.1643   3.1817   3.1854   3.5547   3.9283
     3.9717   4.0188   4.3411   4.3900   4.7076   5.1118   5.2319   5.4712
     5.9246   5.9469   5.9919   6.2387   6.2819   6.3061   6.3361   6.4035
     6.6629   6.6931   6.7936   7.0483   7.1396   7.2607   7.7812   8.0450
     8.0812   8.2361   8.2792   8.6208   8.6231   8.8255   8.8287   8.8491
     9.0442   9.3520

          k = 0.0455 0.2275 0.4095 ( 21169 PWs)   bands (ev):

    -2.7170  -2.3056  -1.4864  -1.0785  -0.6719  -0.2665  -0.2663   0.1379
     0.5402   0.5414   0.9423   0.9434   0.9437   1.3405   1.3445   2.5274
     2.5362   2.5390   2.9338   2.9346   3.3246   3.3270   3.7115   3.7200
     4.0704   4.4602   4.4919   4.5027   4.5311   4.8762   4.9183   5.3703
     5.6511   5.6858   5.7505   6.0380   6.0739   6.4176   6.4181   6.4746
     6.5190   6.8027   6.8628   6.8975   6.9319   7.2685   7.6223   8.0082
     8.0459   8.1850   8.2177   8.4192   8.5764   8.5765   8.8014   9.1243
     9.1966   9.7229

          k = 0.0455 0.2275-0.5005 ( 21158 PWs)   bands (ev):

    -2.5299  -2.5298  -1.3009  -1.3008  -0.4875  -0.4874  -0.0826  -0.0825
     0.7231   0.7232   0.7244   0.7245   1.1259   1.1259   1.9184   1.9185
     2.7189   2.7189   3.1087   3.1087   3.1130   3.1131   3.8950   3.8951
     4.2477   4.2477   4.2851   4.2851   5.0638   5.0638   5.0922   5.0922
     5.4808   5.4809   5.5431   5.5432   6.2085   6.2085   6.5924   6.5924
     6.6902   6.6903   7.0338   7.0338   7.0979   7.0979   7.4208   7.4209
     8.3626   8.3627   8.3851   8.3852   8.5549   8.5550   8.5931   8.5932
     9.7430   9.7430

          k = 0.0455 0.3185 0.3185 ( 21141 PWs)   bands (ev):

    -2.7544  -1.9327  -1.9326  -1.1155  -0.7089  -0.3034   0.1014   0.1014
     0.5046   0.5046   0.9048   0.9048   0.9072   1.3082   1.7058   1.7058
     2.8981   2.8981   3.2717   3.2717   3.2925   3.2925   3.6599   3.6600
     4.0569   4.0569   4.1271   4.1272   4.4681   5.1903   5.1904   5.3356
     5.6699   5.6700   6.0246   6.0247   6.0927   6.0928   6.4114   6.4114
     6.4405   6.7353   6.7353   6.8288   6.8629   6.8959   7.7901   7.7901
     8.5423   8.7236   8.7236   8.7601   8.7602   8.9296   8.9297   9.1075
     9.1075   9.1075

          k = 0.0455 0.3185 0.4095 ( 21167 PWs)   bands (ev):

    -2.6047  -2.1936  -1.7837  -1.3750  -0.5612  -0.1561  -0.1559   0.2480
     0.2482   0.6511   0.6513   1.0508   1.0530   1.4496   1.4514   2.2473
     2.6355   3.0414   3.4148   3.4255   3.4308   3.4339   3.4344   3.8012
     3.8076   3.8255   4.2697   4.5930   4.6382   4.9542   4.9956   5.4043
     5.4252   5.4739   5.7794   5.7844   5.7917   5.8535   6.1071   6.1653
     6.2677   6.6211   6.9668   7.0260   7.1283   7.3541   7.6678   7.9119
     8.1114   8.2944   8.4965   8.5124   8.9026   9.0616   9.2436   9.2453
     9.2859   9.4570

          k = 0.0455 0.3185-0.5005 ( 21172 PWs)   bands (ev):

    -2.4177  -2.4176  -1.5979  -1.5978  -0.3769  -0.3768   0.0277   0.0278
     0.4316   0.4316   0.8339   0.8339   1.2330   1.2330   2.0271   2.0271
     2.8211   2.8211   3.2196   3.2197   3.5935   3.5935   3.6091   3.6092
     4.0003   4.0003   4.3865   4.3865   4.8129   4.8129   5.1987   5.1987
     5.5509   5.5510   5.5731   5.5732   5.6466   5.6467   5.9554   5.9555
     6.4153   6.4154   7.1606   7.1607   7.5245   7.5245   7.9107   7.9107
     7.9741   7.9741   8.0832   8.0833   9.0773   9.0773   9.2183   9.2183
     9.7949   9.8527

          k = 0.0455 0.4095 0.4095 ( 21182 PWs)   bands (ev):

    -2.4551  -2.0444  -2.0444  -1.6350  -0.4137  -0.0090  -0.0088  -0.0088
     0.3947   0.3947   0.3950   0.7974   1.5950   1.5950   1.9940   1.9940
     2.7795   2.7795   3.1746   3.1746   3.5755   3.5756   3.9408   3.9409
     3.9635   3.9635   4.4135   4.4136   4.7079   4.7080   5.1616   5.1617
     5.1893   5.1894   5.5174   5.5458   5.5458   5.6120   5.9889   5.9889
     6.3808   6.6395   6.6395   7.1247   7.4916   7.6909   7.6910   7.8780
     7.9480   8.0490   8.6330   8.6330   9.0172   9.0172   9.4183   9.4183
     9.8045   9.8045

          k = 0.0455 0.4095-0.5005 ( 21178 PWs)   bands (ev):

    -2.2683  -2.2682  -1.8582  -1.8581  -0.2296  -0.2295   0.1746   0.1747
     0.1748   0.1749   0.5778   0.5779   1.7764   1.7765   2.1718   2.1718
     2.5690   2.5690   2.9592   2.9593   3.7498   3.7499   4.1172   4.1173
     4.1379   4.1379   4.5020   4.5020   4.5898   4.5898   4.9553   4.9553
     4.9766   4.9767   5.3388   5.3389   5.7842   5.7843   6.0404   6.0404
     6.1995   6.1996   7.0609   7.0609   7.6073   7.6074   7.8438   7.8439
     8.0477   8.0477   8.4330   8.4330   9.1857   9.1858   9.5691   9.5691
     9.5953   9.5953

          k = 0.0455-0.5005-0.5005 ( 21188 PWs)   bands (ev):

    -2.0818  -2.0817  -2.0817  -2.0816  -0.0456  -0.0456  -0.0456  -0.0455
     0.3580   0.3581   0.3581   0.3582   2.3524   2.3524   2.3524   2.3525
     2.3525   2.3525   2.3525   2.3525   4.2905   4.2905   4.2905   4.2906
     4.2906   4.2907   4.2907   4.2907   4.7685   4.7686   4.7686   4.7686
     4.7687   4.7687   4.7687   4.7687   5.9542   5.9542   5.9542   5.9543
     6.6071   6.6071   6.6071   6.6071   7.6573   7.6573   7.6573   7.6574
     8.6021   8.6021   8.6021   8.6021   8.9865   8.9865   8.9865   8.9865
    10.1454  10.1455

          k = 0.1365 0.1365 0.1365 ( 21167 PWs)   bands (ev):

    -3.0920  -1.4493  -1.4493  -1.4493  -0.2300  -0.2300  -0.2300   0.1748
     0.1748   0.1749   1.3803   1.3803   1.3804   1.3804   1.3804   1.3804
     1.7809   2.5755   2.5755   2.5755   2.9676   2.9676   2.9676   4.1764
     4.1764   4.1765   4.4419   4.4419   4.4419   5.3466   5.9783   5.9783
     5.9784   5.9784   5.9784   5.9784   7.1377   7.1377   7.1377   7.1378
     7.1378   7.1378   7.1580   7.1580   7.1580   7.5362   7.5362   7.5363
     8.6840   8.6840   8.6840   8.6841   8.6857   8.6857   8.6857   8.6857
     8.6857   8.6857

          k = 0.1365 0.1365 0.2275 ( 21165 PWs)   bands (ev):

    -3.0169  -1.7837  -1.3751  -1.3751  -0.1565  -0.1564  -0.1559  -0.1559
     0.2471   0.2482   1.0524   1.0525   1.4532   1.4532   1.4540   1.8520
     1.8520   2.6468   2.6469   2.6475   3.0428   3.0428   3.4133   3.7862
     3.8753   4.5122   4.5122   4.6362   4.6362   5.3396   5.3396   5.6673
     5.6673   5.8071   6.0313   6.0313   6.5283   6.5283   6.9087   7.2146
     7.2146   7.2221   7.2222   7.2282   7.2282   7.5669   7.5670   7.9430
     8.0638   8.0638   8.3720   8.3720   8.4249   8.4250   8.7988   8.7988
     9.1371   9.1371

          k = 0.1365 0.1365 0.3185 ( 21164 PWs)   bands (ev):

    -2.9044  -2.0817  -1.2638  -1.2638  -0.4505  -0.4505  -0.0461  -0.0461
     0.3583   0.7587   0.7603   0.7603   1.1627   1.5623   1.5623   2.3576
     2.3577   2.3591   2.3591   2.7554   3.1285   3.5196   3.5436   3.5436
     3.9827   4.6177   4.6177   4.6947   4.6947   5.1321   5.1322   5.3886
     5.3886   5.8217   5.8217   6.2076   6.2076   6.2710   6.3012   6.9429
     6.9430   7.3220   7.3220   7.3329   7.3329   7.4308   7.4308   7.9145
     7.9145   8.0928   8.0928   8.2962   8.2962   8.5864   8.7945   8.9224
     8.9224   9.6223

          k = 0.1365 0.1365 0.4095 ( 21137 PWs)   bands (ev):

    -2.7544  -2.3429  -1.1156  -1.1156  -0.7088  -0.7088   0.1008   0.1008
     0.5042   0.5042   0.5049   0.9073   1.3041   1.7076   1.7076   2.1063
     2.1063   2.4914   2.8964   2.8964   2.8990   3.2892   4.0678   4.0678
     4.0766   4.0766   4.4954   4.7582   4.7582   5.1439   5.1439   5.2294
     5.2294   5.6505   5.6617   5.6617   6.3206   6.3206   6.6989   6.6989
     6.8142   6.8142   6.8280   7.4630   7.4630   7.4709   7.4709   7.8265
     7.8265   7.8483   7.8483   7.9737   8.6634   8.6634   9.0721   9.0721
     9.4674   9.4675

          k = 0.1365 0.1365-0.5005 ( 21148 PWs)   bands (ev):

    -2.5673  -2.5672  -0.9306  -0.9305  -0.9305  -0.9305   0.2843   0.2843
     0.2844   0.2844   0.6879   0.6880   1.8822   1.8822   1.8890   1.8890
     1.8890   1.8890   3.0775   3.0776   3.4671   3.4671   3.4671   3.4671
     4.6399   4.6400   4.6400   4.6400   4.9336   4.9336   4.9337   4.9337
     5.0567   5.0567   6.2231   6.2231   6.2231   6.2231   6.4907   6.4908
     6.4908   6.4908   7.3862   7.3863   7.6383   7.6383   7.6384   7.6384
     7.6392   7.6392   7.6393   7.6393   9.1938   9.1938   9.1938   9.1938
     9.2532   9.2533

          k = 0.1365 0.2275 0.2275 ( 21161 PWs)   bands (ev):

    -2.9419  -1.7094  -1.7093  -1.3009  -0.4873  -0.0829  -0.0823  -0.0823
     0.3204   0.3204   1.1254   1.1254   1.1263   1.5252   1.5252   1.9245
     1.9246   2.3230   3.1102   3.1102   3.1144   3.1145   3.5083   3.8572
     3.8572   4.3192   4.3193   4.5825   5.0243   5.0243   5.0972   5.4050
     5.4050   5.7336   5.7336   6.2666   6.5918   6.5918   6.5929   6.5930
     6.9081   6.9566   6.9566   7.2975   7.6589   7.6589   7.7486   7.7486
     8.0118   8.0118   8.5077   8.5077   8.5169   8.5169   8.8236   8.8237
     9.1499   9.1499

          k = 0.1365 0.2275 0.3185 ( 21177 PWs)   bands (ev):

    -2.8294  -2.0072  -1.5978  -1.1897  -0.7826  -0.3768   0.0274   0.0280
     0.4304   0.8318   0.8334   0.8343   1.2341   1.2348   2.0321   2.0332
     2.0339   2.4299   2.8260   3.2001   3.2216   3.5893   3.6145   3.9638
     4.0067   4.0557   4.3763   4.6879   4.7426   4.7636   4.8134   5.4573
     5.4861   5.5926   5.8216   5.9542   5.9796   6.3125   6.3450   6.6292
     6.6958   6.7596   7.1144   7.4002   7.4117   7.4681   7.7708   7.8857
     8.1138   8.1239   8.2625   8.5446   8.6184   8.8612   8.9214   9.0034
     9.0393   9.3089

          k = 0.1365 0.2275 0.4095 ( 21175 PWs)   bands (ev):

    -2.6795  -2.2683  -1.4493  -1.0416  -1.0415  -0.6349   0.1743   0.1749
     0.5768   0.5775   0.5782   0.9789   1.3769   1.3805   1.7803   2.1780
     2.5635   2.5723   2.5749   2.9682   3.3637   3.7313   3.7471   4.1058
     4.1382   4.1461   4.1976   4.4954   4.5366   4.8283   5.2134   5.2704
     5.3335   5.3429   5.6559   5.7163   6.0357   6.0683   6.1210   6.3862
     6.4968   6.8360   7.2224   7.2707   7.2852   7.5332   7.7504   7.9135
     8.1998   8.2468   8.2999   8.4281   8.4843   8.7623   8.8481   9.1534
     9.1643   9.5224

          k = 0.1365 0.2275-0.5005 ( 21168 PWs)   bands (ev):

    -2.4925  -2.4924  -1.2638  -1.2637  -0.8566  -0.8565   0.3576   0.3577
     0.3583   0.3584   0.7597   0.7597   1.5623   1.5624   1.9547   1.9547
     2.3586   2.3587   3.1446   3.1446   3.5384   3.5384   3.5386   3.5387
     4.2830   4.2831   4.7054   4.7055   4.7416   4.7416   5.0035   5.0036
     5.0941   5.0941   5.8627   5.8628   5.9049   5.9049   6.1813   6.1814
     6.6811   6.6811   7.0116   7.0116   7.6843   7.6844   7.8420   7.8420
     8.0896   8.0897   8.4016   8.4017   8.6073   8.6073   8.9406   8.9406
     9.2786   9.2786

          k = 0.1365 0.3185 0.3185 ( 21187 PWs)   bands (ev):

    -2.7170  -1.8954  -1.8954  -1.0786  -1.0785  -0.2663  -0.2662   0.1376
     0.5416   0.9413   0.9413   0.9430   0.9430   1.7421   1.7421   1.7440
     2.5381   2.5381   3.3075   3.3075   3.3236   3.3237   3.7202   3.7202
     4.0923   4.0923   4.5020   4.5329   4.5329   4.7931   4.8644   4.8644
     5.5585   5.5585   5.6736   5.6736   6.0641   6.0642   6.0869   6.3513
     6.8073   6.8073   6.8329   6.8329   7.2513   7.4977   8.2503   8.2503
     8.3511   8.3511   8.3738   8.3738   8.9590   8.9590   9.0299   9.0299
     9.1197   9.1479

          k = 0.1365 0.3185 0.4095 ( 21173 PWs)   bands (ev):

    -2.5673  -2.1563  -1.7465  -1.3379  -0.9305  -0.5242  -0.1190   0.2843
     0.2851   0.6872   1.0872   1.0890   1.4860   1.4878   1.4897   2.2834
     2.6715   2.6821   3.0758   3.0762   3.4506   3.4612   3.8349   3.8432
     3.8585   4.2432   4.2478   4.3072   4.9333   4.9795   5.0260   5.0551
     5.0603   5.3171   5.4319   5.4705   5.6818   6.1116   6.2008   6.2145
     6.2169   6.5865   6.6140   7.2926   7.6132   7.7605   7.7755   8.1391
     8.3968   8.4874   8.5655   8.7497   8.7851   8.8734   8.8944   8.9155
     9.0796   9.5482

          k = 0.1365 0.3185-0.5005 ( 21178 PWs)   bands (ev):

    -2.3804  -2.3803  -1.5607  -1.5606  -0.7457  -0.7457   0.0648   0.0648
     0.4676   0.4677   1.2694   1.2695   1.2712   1.2713   2.0633   2.0633
     2.8571   2.8571   2.8617   2.8618   3.6291   3.6292   3.6450   3.6450
     4.0128   4.0129   4.4822   4.4822   4.7835   4.7835   5.1081   5.1082
     5.2489   5.2489   5.5551   5.5551   5.6222   5.6222   5.9319   5.9319
     6.3755   6.3756   7.1726   7.1726   7.6483   7.6483   8.1245   8.1245
     8.3310   8.3310   8.5742   8.5743   8.6622   8.6623   9.1372   9.1372
     9.4463   9.4463

          k = 0.1365 0.4095 0.4095 ( 21202 PWs)   bands (ev):

    -2.4177  -2.0072  -2.0071  -1.5978  -0.7826  -0.3768  -0.3767   0.0281
     0.4310   0.8335   0.8335   1.2349   1.6313   1.6313   2.0302   2.0302
     2.8154   2.8154   3.2104   3.2105   3.2188   3.2189   3.6073   3.6073
     4.3639   4.3639   4.3802   4.3802   4.8164   4.8164   4.8342   4.8342
     5.0730   5.4534   5.4534   5.5214   5.5859   5.5859   5.8972   5.9678
     5.9678   6.7133   6.7133   7.1396   7.6140   8.0974   8.2522   8.2523
     8.2828   8.2828   8.2983   8.6284   8.9101   8.9101   9.3030   9.3030
     9.4192   9.4352

          k = 0.1365 0.4095-0.5005 ( 21188 PWs)   bands (ev):

    -2.2310  -2.2309  -1.8210  -1.8209  -0.5980  -0.5980  -0.1926  -0.1926
     0.6140   0.6141   1.0160   1.0161   1.8127   1.8128   2.2079   2.2079
     2.6050   2.6050   2.9951   2.9952   3.3967   3.3967   3.7863   3.7863
     4.1495   4.1496   4.5319   4.5319   4.6286   4.6286   5.0176   5.0176
     5.2469   5.2470   5.3758   5.3758   5.6118   5.6119   5.7574   5.7575
     6.1515   6.1516   7.2305   7.2305   7.6965   7.6966   8.0748   8.0748
     8.4201   8.4202   8.8363   8.8364   8.8522   8.8522   9.0910   9.0910
     9.4431   9.4431

          k = 0.1365-0.5005-0.5005 ( 21224 PWs)   bands (ev):

    -2.0445  -2.0444  -2.0444  -2.0443  -0.4137  -0.4136  -0.4136  -0.4135
     0.7969   0.7969   0.7969   0.7970   2.3885   2.3885   2.3885   2.3886
     2.3886   2.3886   2.3886   2.3886   3.9600   3.9600   3.9600   3.9600
     3.9600   3.9601   3.9601   3.9601   5.1682   5.1683   5.1683   5.1683
     5.1683   5.1684   5.1684   5.1684   5.4183   5.4184   5.4184   5.4185
     6.6814   6.6814   6.6814   6.6814   8.2187   8.2187   8.2187   8.2188
     8.2518   8.2518   8.2518   8.2518   9.4046   9.4046   9.4046   9.4047
     9.6373   9.6373

          k = 0.2275 0.2275 0.2275 ( 21185 PWs)   bands (ev):

    -2.8669  -1.6350  -1.6350  -1.6350  -0.4136  -0.4136  -0.4136   0.3937
     0.3937   0.3938   0.7978   1.5979   1.5979   1.5979   1.5979   1.5979
     1.5980   2.7901   2.7901   2.7901   3.5792   3.5792   3.5793   3.9283
     3.9283   3.9283   4.7783   4.7783   4.7783   5.0930   5.0930   5.0930
     5.0930   5.0930   5.0930   6.2774   6.2774   6.2775   6.7251   7.0371
     7.0371   7.0371   7.0372   7.0372   7.0372   8.0789   8.0789   8.0789
     8.2021   8.2021   8.2021   8.2021   8.2021   8.2021   9.2569   9.2569
     9.2570   9.2570

          k = 0.2275 0.2275 0.3185 ( 21152 PWs)   bands (ev):

    -2.7544  -1.9326  -1.5235  -1.5235  -0.7087  -0.7087  -0.3030   0.5036
     0.5036   0.5050   0.9048   1.3069   1.3070   1.7069   1.7069   2.1045
     2.1045   2.5028   2.5028   3.2717   3.2879   3.6850   4.0348   4.0348
     4.0763   4.0763   4.4465   4.4465   4.4977   4.8125   4.8125   5.1937
     5.1937   5.2736   5.2736   5.6383   5.9980   5.9980   6.4093   6.4093
     7.1463   7.1463   7.2170   7.5139   7.5139   7.5697   7.5697   7.9218
     7.9218   8.1769   8.1769   8.6889   8.6889   8.9244   8.9997   8.9997
     9.3769   9.3769

          k = 0.2275 0.2275 0.4095 ( 21183 PWs)   bands (ev):

    -2.6047  -2.1936  -1.3751  -1.3750  -0.9675  -0.9675  -0.1558   0.2484
     0.6500   0.6500   1.0518   1.0519   1.4496   1.8521   1.8521   2.2503
     2.2503   2.6355   2.6443   2.6444   3.7996   3.8181   3.8182   3.8234
     4.1767   4.1767   4.2717   4.5658   4.5658   4.6022   4.6022   5.0195
     5.3107   5.3107   5.7573   5.7574   5.8025   5.8025   5.8163   5.8163
     6.9537   6.9538   7.2885   7.2885   7.6760   7.6760   7.7413   8.0039
     8.0040   8.2958   8.2958   8.7907   8.7908   8.8815   9.2083   9.2083
     9.2521   9.2521

          k = 0.2275 0.2275-0.5005 ( 21182 PWs)   bands (ev):

    -2.4177  -2.4176  -1.1897  -1.1896  -1.1896  -1.1896   0.0280   0.0281
     0.8327   0.8328   0.8328   0.8329   2.0271   2.0271   2.0332   2.0332
     2.0333   2.0333   3.2162   3.2162   3.2162   3.2162   3.9780   3.9781
     4.3537   4.3537   4.3538   4.3538   4.4463   4.4463   5.1347   5.1347
     5.1348   5.1348   5.5764   5.5764   5.5764   5.5765   6.3633   6.3633
     6.3633   6.3633   7.4649   7.4649   7.4650   7.4650   8.2969   8.2969
     8.3523   8.3523   8.3523   8.3524   8.7872   8.7872   8.7872   8.7873
     9.7033   9.7034

          k = 0.2275 0.3185 0.3185 ( 21177 PWs)   bands (ev):

    -2.6421  -1.8210  -1.8209  -1.4121  -1.0045  -0.5980  -0.5980   0.2117
     0.6134   1.0143   1.0143   1.4162   1.4162   1.8146   1.8146   2.2130
     2.2131   2.2142   3.0045   3.0045   3.3790   3.3790   4.1412   4.1631
     4.1631   4.1782   4.1782   4.5510   4.5510   4.5677   4.9165   4.9166
     4.9908   4.9908   5.3611   5.3611   5.7222   5.7682   6.5138   6.5138
     6.8894   6.8894   7.2884   7.2884   7.6294   7.6294   7.7076   8.0583
     8.0583   8.2605   8.4088   8.4088   9.0095   9.0095   9.1081   9.1081
     9.2363   9.8227

          k = 0.2275 0.3185 0.4095 ( 21201 PWs)   bands (ev):

    -2.4924  -2.0817  -1.6722  -1.2638  -1.2637  -0.8565  -0.4504  -0.0454
     0.7597   1.1601   1.1612   1.5586   1.5605   1.5616   1.9609   2.3557
     2.3576   2.7435   2.7523   2.7538   3.5220   3.5326   3.5359   3.9142
     3.9244   4.2828   4.2946   4.6711   4.6805   4.6874   4.7466   4.7627
     5.0526   5.0665   5.1427   5.5062   5.5195   5.9014   6.2816   6.2960
     6.6545   6.6717   7.0420   7.3995   7.4441   7.7741   8.1407   8.1630
     8.2306   8.2843   8.5794   8.7441   8.8766   8.9283   9.0393   9.2502
     9.3680   9.4611

          k = 0.2275 0.3185-0.5005 ( 21188 PWs)   bands (ev):

    -2.3056  -2.3056  -1.4864  -1.4863  -1.0786  -1.0785  -0.2662  -0.2661
     0.9423   0.9424   1.3422   1.3423   1.7432   1.7433   2.1356   2.1356
     2.5379   2.5380   2.9290   2.9290   3.3235   3.3235   3.7004   3.7005
     4.0790   4.0790   4.4595   4.4596   4.5582   4.5582   4.8388   4.8388
     5.2054   5.2054   5.3348   5.3348   5.7163   5.7163   6.0806   6.0807
     6.8306   6.8307   6.8553   6.8553   7.9188   7.9188   7.9515   7.9516
     8.6641   8.6642   8.7015   8.7015   8.7847   8.7848   9.1318   9.1318
     9.4267   9.4792

          k = 0.2275 0.4095 0.4095 ( 21164 PWs)   bands (ev):

    -2.3430  -1.9327  -1.9326  -1.5235  -1.1156  -0.7087  -0.7087  -0.3030
     0.9059   1.3070   1.3070   1.7039   1.7039   1.7070   2.1026   2.1026
     2.8873   2.8873   2.8961   2.8961   3.2821   3.2821   3.2893   3.2893
     4.0652   4.0652   4.4242   4.4262   4.4262   4.8106   4.8106   4.9136
     4.9136   5.1703   5.2728   5.2728   5.6827   6.0383   6.0383   6.4248
     6.4248   6.7961   6.7961   6.8222   7.8891   7.9669   7.9670   8.2908
     8.2908   8.6706   8.6824   8.6825   8.7522   9.0113   9.0113   9.1046
     9.3904   9.3905

          k = 0.2275 0.4095-0.5005 ( 21194 PWs)   bands (ev):

    -2.1563  -2.1563  -1.7466  -1.7465  -0.9305  -0.9304  -0.5242  -0.5241
     1.0883   1.0884   1.4889   1.4890   1.8852   1.8853   2.2802   2.2802
     2.6771   2.6771   3.0669   3.0670   3.0753   3.0753   3.4661   3.4661
     3.8532   3.8532   4.2381   4.2382   4.6003   4.6004   4.9820   4.9821
     5.0650   5.0651   5.4510   5.4510   5.8335   5.8336   6.2134   6.2135
     6.2165   6.2165   7.3392   7.3392   7.3799   7.3799   8.4702   8.4703
     8.5211   8.5211   8.8121   8.8122   8.8348   8.8348   9.1845   9.1846
     9.2329   9.2330

          k = 0.2275-0.5005-0.5005 ( 21208 PWs)   bands (ev):

    -1.9700  -1.9699  -1.9699  -1.9698  -0.7457  -0.7457  -0.7457  -0.7456
     1.2705   1.2706   1.2706   1.2707   2.4607   2.4607   2.4607   2.4607
     2.4608   2.4608   2.4608   2.4608   3.6434   3.6434   3.6434   3.6434
     3.6435   3.6435   3.6435   3.6435   4.7752   4.7752   4.7752   4.7753
     5.6228   5.6228   5.6228   5.6229   5.6229   5.6229   5.6229   5.6229
     6.7644   6.7645   6.7645   6.7645   7.9358   7.9359   7.9359   7.9359
     8.9783   8.9784   9.0189   9.0190   9.0191   9.0191   9.0192   9.0192
     9.0192   9.0192

          k = 0.3185 0.3185 0.3185 ( 21188 PWs)   bands (ev):

    -2.5298  -1.7094  -1.7094  -1.7093  -0.8935  -0.8935  -0.8935  -0.0822
     1.1237   1.1237   1.1237   1.9234   1.9234   1.9234   1.9234   1.9234
     1.9235   2.7178   2.7178   2.7178   3.4862   3.4862   3.4862   4.2689
     4.2689   4.2689   4.2689   4.2689   4.2689   4.6460   4.6460   4.6461
     5.1072   5.1072   5.1072   5.4851   5.4851   5.4852   6.9994   6.9994
     6.9994   6.9994   6.9994   6.9994   7.7773   7.7773   7.7773   7.7773
     7.7773   7.7773   8.1970   9.0057   9.0057   9.0057   9.4446   9.4446
     9.4446   9.9405

          k = 0.3185 0.3185 0.4095 ( 21203 PWs)   bands (ev):

    -2.3803  -1.9699  -1.5607  -1.5607  -1.1526  -1.1526  -0.7456  -0.3398
     1.2694   1.2695   1.6676   1.6695   1.6695   2.0683   2.0683   2.4640
     2.4640   2.4658   2.4658   2.8514   3.2534   3.6290   3.6290   3.6395
     3.6395   4.0207   4.0207   4.3910   4.4090   4.4091   4.7684   4.7684
     4.8788   5.2384   5.2664   5.2664   6.0131   6.0131   6.3864   6.3864
     7.1422   7.1422   7.1623   7.1624   7.5166   7.5166   7.5310   7.5310
     8.2987   8.2987   8.6115   8.6115   8.7187   9.3677   9.3692   9.3692
     9.4334   9.4334

          k = 0.3185 0.3185-0.5005 ( 21196 PWs)   bands (ev):

    -2.1937  -2.1936  -1.3751  -1.3750  -1.3750  -1.3750  -0.5611  -0.5610
     1.4513   1.4514   1.4514   1.4515   2.2441   2.2441   2.2491   2.2492
     2.2492   2.2492   3.0366   3.0367   3.0367   3.0367   3.8072   3.8072
     3.8073   3.8073   3.8176   3.8176   4.5811   4.5812   4.5812   4.5813
     5.0304   5.0305   5.8017   5.8017   5.8017   5.8017   6.5729   6.5729
     6.5729   6.5730   7.3193   7.3193   7.3193   7.3193   8.0602   8.0602
     8.0602   8.0602   8.8514   8.8514   8.8514   8.8514   9.2715   9.2715
     9.5105   9.5106

          k = 0.3185 0.4095 0.4095 ( 21172 PWs)   bands (ev):

    -2.2309  -1.8210  -1.8209  -1.4122  -1.4121  -1.0045  -1.0045  -0.5979
     1.4150   1.8127   1.8128   1.8146   1.8147   2.2111   2.2111   2.2130
     2.6082   2.6082   2.9951   2.9951   3.0035   3.0035   3.3894   3.3894
     3.7716   3.7816   3.7817   4.1622   4.1622   4.1670   4.1671   4.5458
     5.3829   5.3830   5.7658   5.7658   5.7682   6.5273   6.5273   6.5397
     6.9065   6.9065   6.9155   6.9155   7.6622   7.6622   7.6856   7.6856
     8.0318   8.0524   8.0524   8.7863   8.7863   8.8240   9.1865   9.1865
     9.2390   9.4793

          k = 0.3185 0.4095-0.5005 ( 21192 PWs)   bands (ev):

    -2.0445  -2.0444  -1.6350  -1.6349  -1.2267  -1.2267  -0.8196  -0.8195
     1.5968   1.5969   1.9939   1.9940   1.9959   1.9959   2.3885   2.3886
     2.7850   2.7850   2.7881   2.7882   3.1744   3.1745   3.1800   3.1800
     3.5720   3.5720   3.9494   3.9495   3.9582   3.9583   4.3380   4.3381
     5.5549   5.5550   5.9388   5.9388   6.3214   6.3214   6.3258   6.3258
     6.7038   6.7038   7.0980   7.0980   7.4569   7.4570   7.8403   7.8404
     8.2119   8.2119   8.2402   8.2402   8.6050   8.6050   8.9720   8.9720
     9.6440   9.6441

          k = 0.3185-0.5005-0.5005 ( 21200 PWs)   bands (ev):

    -1.8582  -1.8582  -1.8582  -1.8581  -1.0416  -1.0415  -1.0415  -1.0414
     1.7783   1.7784   1.7784   1.7785   2.5689   2.5689   2.5689   2.5689
     2.5690   2.5690   2.5690   2.5690   3.3586   3.3586   3.3586   3.3587
     3.3587   3.3587   3.3587   3.3587   4.1265   4.1266   4.1266   4.1267
     6.1141   6.1141   6.1141   6.1142   6.1142   6.1142   6.1142   6.1142
     6.8749   6.8749   6.8749   6.8749   7.6544   7.6544   7.6544   7.6544
     8.3921   8.3921   8.3921   8.3922   8.3922   8.3922   8.3922   8.3922
     9.8155   9.8156

          k = 0.4095 0.4095 0.4095 ( 21194 PWs)   bands (ev):

    -2.0817  -1.6722  -1.6722  -1.6721  -1.2638  -1.2638  -1.2637  -0.8565
     1.9577   1.9577   1.9578   2.3556   2.3556   2.3557   2.3557   2.3557
     2.3557   2.7521   2.7521   2.7521   3.1386   3.1386   3.1386   3.5322
     3.5322   3.5322   3.5322   3.5322   3.5323   3.9226   3.9226   3.9227
     5.9054   5.9054   5.9054   6.2925   6.2925   6.2925   7.0496   7.0496
     7.0496   7.0496   7.0496   7.0496   7.4389   7.4389   7.4389   7.4390
     7.4390   7.4390   8.1839   8.1839   8.1840   8.5775   8.5775   8.5775
     9.7580  10.3583

          k = 0.4095 0.4095-0.5005 ( 21172 PWs)   bands (ev):

    -1.8955  -1.8954  -1.4865  -1.4864  -1.4864  -1.4863  -1.0785  -1.0785
     2.1387   2.1388   2.1388   2.1388   2.5329   2.5329   2.5360   2.5360
     2.5361   2.5361   2.9288   2.9288   2.9288   2.9288   3.3177   3.3177
     3.3178   3.3178   3.3228   3.3229   3.7101   3.7102   3.7102   3.7103
     6.0808   6.0809   6.4624   6.4624   6.4624   6.4624   6.8509   6.8510
     6.8510   6.8510   7.2269   7.2269   7.2270   7.2270   7.6029   7.6029
     7.6029   7.6029   7.9936   7.9936   7.9937   7.9937   8.3645   8.3645
    10.3080  10.3080

          k = 0.4095-0.5005-0.5005 ( 21184 PWs)   bands (ev):

    -1.7094  -1.7094  -1.7094  -1.7093  -1.3009  -1.3009  -1.3009  -1.3007
     2.3195   2.3195   2.3195   2.3196   2.7130   2.7130   2.7130   2.7130
     2.7130   2.7131   2.7131   2.7131   3.1082   3.1082   3.1082   3.1082
     3.1082   3.1082   3.1083   3.1083   3.4964   3.4964   3.4964   3.4965
     6.6390   6.6390   6.6390   6.6391   6.6391   6.6391   6.6391   6.6391
     7.0181   7.0181   7.0181   7.0182   7.4076   7.4077   7.4077   7.4077
     7.7813   7.7813   7.7813   7.7813   7.7814   7.7814   7.7814   7.7814
    10.7006  10.7006

          k =-0.5005-0.5005-0.5005 ( 21008 PWs)   bands (ev):

    -1.5236  -1.5236  -1.5236  -1.5236  -1.5235  -1.5235  -1.5235  -1.5234
     2.8927   2.8927   2.8928   2.8928   2.8928   2.8928   2.8928   2.8928
     2.8928   2.8928   2.8928   2.8929   2.8929   2.8929   2.8929   2.8929
     2.8929   2.8929   2.8929   2.8930   2.8930   2.8930   2.8930   2.8930
     7.1955   7.1955   7.1955   7.1955   7.1955   7.1955   7.1955   7.1955
     7.1956   7.1956   7.1956   7.1956   7.1956   7.1956   7.1956   7.1956
     7.1956   7.1956   7.1956   7.1956   7.1956   7.1956   7.1956   7.1956
    11.4035  11.6223

     the Fermi energy is     7.9596 ev

!    total energy              =   -1264.08740392 Ry
     Harris-Foulkes estimate   =   -1264.08740393 Ry
     estimated scf accuracy    <       0.00000027 Ry

     total all-electron energy =    -15540.656426 Ry

     The total energy is the sum of the following terms:

     one-electron contribution =     101.56764724 Ry
     hartree contribution      =       0.19744788 Ry
     xc contribution           =     -82.98573789 Ry
     ewald contribution        =    -173.17369182 Ry
     one-center paw contrib.   =   -1109.69037333 Ry
     smearing contrib. (-TS)   =      -0.00269601 Ry

     convergence has been achieved in   8 iterations

     Forces acting on atoms (cartesian axes, Ry/au):

     atom    1 type  1   force =     0.00000000    0.00000000    0.00000000
     atom    2 type  1   force =     0.00000239    0.00000239    0.00000000
     atom    3 type  1   force =     0.00000239   -0.00000000    0.00000239
     atom    4 type  1   force =    -0.00000000    0.00000239    0.00000239
     atom    5 type  1   force =     0.00000000    0.00000000    0.00000000
     atom    6 type  1   force =    -0.00000348   -0.00000348    0.00000000
     atom    7 type  1   force =     0.00000239    0.00000000   -0.00000239
     atom    8 type  1   force =     0.00000000    0.00000239   -0.00000239
     atom    9 type  1   force =     0.00000000    0.00000000    0.00000000
     atom   10 type  1   force =     0.00000239   -0.00000239    0.00000000
     atom   11 type  1   force =    -0.00000348   -0.00000000   -0.00000348
     atom   12 type  1   force =     0.00000000   -0.00000239    0.00000239
     atom   13 type  1   force =     0.00000000    0.00000000    0.00000000
     atom   14 type  1   force =    -0.00000348    0.00000348    0.00000000
     atom   15 type  1   force =    -0.00000348   -0.00000000    0.00000348
     atom   16 type  1   force =     0.00000000   -0.00000239   -0.00000239
     atom   17 type  1   force =     0.00000000    0.00000000    0.00000000
     atom   18 type  1   force =    -0.00000239    0.00000239    0.00000000
     atom   19 type  1   force =    -0.00000239    0.00000000    0.00000239
     atom   20 type  1   force =     0.00000000   -0.00000348   -0.00000348
     atom   21 type  1   force =     0.00000000    0.00000000    0.00000000
     atom   22 type  1   force =     0.00000348   -0.00000348    0.00000000
     atom   23 type  1   force =    -0.00000239   -0.00000000   -0.00000239
     atom   24 type  1   force =    -0.00000000   -0.00000348    0.00000348
     atom   25 type  1   force =     0.00000000    0.00000000    0.00000000
     atom   26 type  1   force =    -0.00000239   -0.00000239    0.00000000
     atom   27 type  1   force =     0.00000348    0.00000000   -0.00000348
     atom   28 type  1   force =    -0.00000000    0.00000348   -0.00000348
     atom   29 type  1   force =     0.00000000    0.00000000   -0.00000000
     atom   30 type  1   force =     0.00000348    0.00000348   -0.00000000
     atom   31 type  1   force =     0.00000348    0.00000000    0.00000348
     atom   32 type  1   force =    -0.00000000    0.00000348    0.00000348

     Total force =     0.000021     Total SCF correction =     0.000175
     SCF correction compared to forces is large: reduce conv_thr to get better values


     Computing stress (Cartesian axis) and pressure

          total   stress  (Ry/bohr**3)                   (kbar)     P=    2.41
   0.00001640   0.00000000   0.00000000          2.41      0.00      0.00
   0.00000000   0.00001640   0.00000000          0.00      2.41      0.00
   0.00000000   0.00000000   0.00001640          0.00      0.00      2.41


     Writing output data file xHkBuMeXzrsJwuxv.save/
 
     init_run     :      6.52s CPU      6.71s WALL (       1 calls)
     electrons    :     95.47s CPU     97.29s WALL (       1 calls)
     forces       :      1.17s CPU      1.22s WALL (       1 calls)
     stress       :      6.04s CPU      6.07s WALL (       1 calls)

     Called by init_run:
     wfcinit      :      6.13s CPU      6.28s WALL (       1 calls)
     potinit      :      0.08s CPU      0.09s WALL (       1 calls)
     hinit0       :      0.15s CPU      0.18s WALL (       1 calls)

     Called by electrons:
     c_bands      :     83.78s CPU     85.22s WALL (       9 calls)
     sum_band     :     11.05s CPU     11.36s WALL (       9 calls)
     v_of_rho     :      0.10s CPU      0.11s WALL (       9 calls)
     newd         :      0.07s CPU      0.11s WALL (       9 calls)
     PAW_pot      :      0.52s CPU      0.53s WALL (       9 calls)
     mix_rho      :      0.02s CPU      0.02s WALL (       9 calls)

     Called by c_bands:
     init_us_2    :      1.71s CPU      1.74s WALL (    1176 calls)
     cegterg      :     79.17s CPU     80.55s WALL (     504 calls)

     Called by sum_band:
     sum_band:bec :      0.05s CPU      0.05s WALL (     504 calls)
     addusdens    :      0.05s CPU      0.08s WALL (       9 calls)

     Called by *egterg:
     h_psi        :     57.76s CPU     58.94s WALL (    2126 calls)
     s_psi        :      4.67s CPU      4.70s WALL (    2126 calls)
     g_psi        :      0.21s CPU      0.22s WALL (    1566 calls)
     cdiaghg      :     11.74s CPU     11.78s WALL (    2014 calls)

     Called by h_psi:
     h_psi:pot    :     57.41s CPU     58.59s WALL (    2126 calls)
     h_psi:calbec :      4.77s CPU      5.07s WALL (    2126 calls)
     vloc_psi     :     47.84s CPU     48.70s WALL (    2126 calls)
     add_vuspsi   :      4.79s CPU      4.81s WALL (    2126 calls)

     General routines
     calbec       :      8.16s CPU      8.61s WALL (    2910 calls)
     fft          :      0.22s CPU      0.25s WALL (     126 calls)
     ffts         :      0.01s CPU      0.01s WALL (       9 calls)
     fftw         :     52.30s CPU     53.23s WALL (  202842 calls)
 
     Parallel routines
     fft_scatt_xy :      4.77s CPU      4.85s WALL (  202977 calls)
     fft_scatt_yz :     31.29s CPU     31.87s WALL (  202977 calls)
 
     PWSCF        :  1m50.74s CPU     1m56.44s WALL

 
   This run was terminated on:   3:20: 4  25Mar2020            

=------------------------------------------------------------------------------=
   JOB DONE.
=------------------------------------------------------------------------------=
