
     Program PWSCF v.6.3 starts on 25Mar2020 at  3:16: 3 

     This program is part of the open-source Quantum ESPRESSO suite
     for quantum simulation of materials; please cite
         "P. Giannozzi et al., J. Phys.:Condens. Matter 21 395502 (2009);
         "P. Giannozzi et al., J. Phys.:Condens. Matter 29 465901 (2017);
          URL http://www.quantum-espresso.org", 
     in publications or presentations arising from this work. More details at
     http://www.quantum-espresso.org/quote

     Parallel version (MPI & OpenMP), running on      20 processor cores
     Number of MPI processes:                20
     Threads/MPI process:                     1

     MPI processes distributed on     1 nodes
     R & G space division:  proc/nbgrp/npool/nimage =      20
     Reading input from /rds/homes/b/bxp912/jobs/20200324_al_eos_e/wd/pwscf_eos/eos_4.in
Warning: card &IONS ignored
Warning: card ION_DYNAMICS = 'BFGS', ignored
Warning: card / ignored
Warning: card &CELL ignored
Warning: card CELL_DYNAMICS = 'BFGS', ignored
Warning: card CELL_FACTOR = 2.0, ignored
Warning: card PRESS = 0.0, ignored
Warning: card / ignored

     Current dimensions of program PWSCF are:
     Max number of different atomic species (ntypx) = 10
     Max number of k-points (npk) =  40000
     Max angular momentum in pseudopotentials (lmaxx) =  3
     Message from routine read_upf::
     Pseudo file /rds/homes/b/bxp912/pp/Al.pbe-nl-kjpaw_psl.1.0.0.UPF has been successfully fixed on the fly.
To avoid this message in the future you can permanently fix 
 your pseudo files following instructions given in: 
https://gitlab.com/QEF/q-e/blob/master/upftools/how_to_fix_upf.md
               file Al.pbe-nl-kjpaw_psl.1.0.0.UPF: wavefunction(s)  3S 3P renormalized

     Subspace diagonalization in iterative solution of the eigenvalue problem:
     a serial algorithm will be used

     Found symmetry operation: I + (  0.2500  0.2500  0.0000)
     This is a supercell, fractional translations are disabled
 
     Parallelization info
     --------------------
     sticks:   dense  smooth     PW     G-vecs:    dense   smooth      PW
     Min         185     185     50                 8445     8445    1218
     Max         186     186     51                 8448     8448    1223
     Sum        3705    3705   1009               168933   168933   24405
 


     bravais-lattice index     =            0
     lattice parameter (alat)  =      15.2652  a.u.
     unit-cell volume          =    3535.8651 (a.u.)^3
     number of atoms/cell      =           32
     number of atomic types    =            1
     number of electrons       =        96.00
     number of Kohn-Sham states=           58
     kinetic-energy cutoff     =      50.0000  Ry
     charge density cutoff     =     200.0000  Ry
     convergence threshold     =      1.0E-06
     mixing beta               =       0.1000
     number of iterations used =           10  plain     mixing
     Exchange-correlation      = SLA PW PBX PBC ( 1  4  3  4 0 0)

     celldm(1)=  15.265160  celldm(2)=   0.000000  celldm(3)=   0.000000
     celldm(4)=   0.000000  celldm(5)=   0.000000  celldm(6)=   0.000000

     crystal axes: (cart. coord. in units of alat)
               a(1) = (   0.998000   0.000000   0.000000 )  
               a(2) = (   0.000000   0.998000   0.000000 )  
               a(3) = (   0.000000   0.000000   0.998000 )  

     reciprocal axes: (cart. coord. in units 2 pi/alat)
               b(1) = (  1.002004  0.000000  0.000000 )  
               b(2) = (  0.000000  1.002004  0.000000 )  
               b(3) = (  0.000000  0.000000  1.002004 )  


     PseudoPot. # 1 for Al read from file:
     /rds/homes/b/bxp912/pp/Al.pbe-nl-kjpaw_psl.1.0.0.UPF
     MD5 check sum: 339dbea23cf3ab9a065ad45c0f9085d7
     Pseudo is Projector augmented-wave + core cor, Zval =  3.0
     Generated using "atomic" code by A. Dal Corso v.5.1
     Shape of augmentation charge: PSQ
     Using radial grid of 1135 points,  4 beta functions with: 
                l(1) =   0
                l(2) =   0
                l(3) =   1
                l(4) =   1
     Q(r) pseudized with 0 coefficients 


     atomic species   valence    mass     pseudopotential
        Al             3.00    26.98200     Al( 1.00)

     48 Sym. Ops., with inversion, found



   Cartesian axes

     site n.     atom                  positions (alat units)
         1           Al  tau(   1) = (   0.0000000   0.0000000   0.0000000  )
         2           Al  tau(   2) = (   0.2495000   0.2495000   0.0000000  )
         3           Al  tau(   3) = (   0.2495000   0.0000000   0.2495000  )
         4           Al  tau(   4) = (   0.0000000   0.2495000   0.2495000  )
         5           Al  tau(   5) = (   0.0000000   0.0000000   0.4990000  )
         6           Al  tau(   6) = (   0.2495000   0.2495000   0.4990000  )
         7           Al  tau(   7) = (   0.2495000   0.0000000   0.7485000  )
         8           Al  tau(   8) = (   0.0000000   0.2495000   0.7485000  )
         9           Al  tau(   9) = (   0.0000000   0.4990000   0.0000000  )
        10           Al  tau(  10) = (   0.2495000   0.7485000   0.0000000  )
        11           Al  tau(  11) = (   0.2495000   0.4990000   0.2495000  )
        12           Al  tau(  12) = (   0.0000000   0.7485000   0.2495000  )
        13           Al  tau(  13) = (   0.0000000   0.4990000   0.4990000  )
        14           Al  tau(  14) = (   0.2495000   0.7485000   0.4990000  )
        15           Al  tau(  15) = (   0.2495000   0.4990000   0.7485000  )
        16           Al  tau(  16) = (   0.0000000   0.7485000   0.7485000  )
        17           Al  tau(  17) = (   0.4990000   0.0000000   0.0000000  )
        18           Al  tau(  18) = (   0.7485000   0.2495000   0.0000000  )
        19           Al  tau(  19) = (   0.7485000   0.0000000   0.2495000  )
        20           Al  tau(  20) = (   0.4990000   0.2495000   0.2495000  )
        21           Al  tau(  21) = (   0.4990000   0.0000000   0.4990000  )
        22           Al  tau(  22) = (   0.7485000   0.2495000   0.4990000  )
        23           Al  tau(  23) = (   0.7485000   0.0000000   0.7485000  )
        24           Al  tau(  24) = (   0.4990000   0.2495000   0.7485000  )
        25           Al  tau(  25) = (   0.4990000   0.4990000   0.0000000  )
        26           Al  tau(  26) = (   0.7485000   0.7485000   0.0000000  )
        27           Al  tau(  27) = (   0.7485000   0.4990000   0.2495000  )
        28           Al  tau(  28) = (   0.4990000   0.7485000   0.2495000  )
        29           Al  tau(  29) = (   0.4990000   0.4990000   0.4990000  )
        30           Al  tau(  30) = (   0.7485000   0.7485000   0.4990000  )
        31           Al  tau(  31) = (   0.7485000   0.4990000   0.7485000  )
        32           Al  tau(  32) = (   0.4990000   0.7485000   0.7485000  )

     number of k points=    56  Marzari-Vanderbilt smearing, width (Ry)=  0.0400
                       cart. coord. in units 2pi/alat
        k(    1) = (   0.0455456   0.0455456   0.0455456), wk =   0.0120210
        k(    2) = (   0.0455456   0.0455456   0.1366369), wk =   0.0360631
        k(    3) = (   0.0455456   0.0455456   0.2277282), wk =   0.0360631
        k(    4) = (   0.0455456   0.0455456   0.3188195), wk =   0.0360631
        k(    5) = (   0.0455456   0.0455456   0.4099107), wk =   0.0360631
        k(    6) = (   0.0455456   0.0455456  -0.5010020), wk =   0.0180316
        k(    7) = (   0.0455456   0.1366369   0.1366369), wk =   0.0360631
        k(    8) = (   0.0455456   0.1366369   0.2277282), wk =   0.0721262
        k(    9) = (   0.0455456   0.1366369   0.3188195), wk =   0.0721262
        k(   10) = (   0.0455456   0.1366369   0.4099107), wk =   0.0721262
        k(   11) = (   0.0455456   0.1366369  -0.5010020), wk =   0.0360631
        k(   12) = (   0.0455456   0.2277282   0.2277282), wk =   0.0360631
        k(   13) = (   0.0455456   0.2277282   0.3188195), wk =   0.0721262
        k(   14) = (   0.0455456   0.2277282   0.4099107), wk =   0.0721262
        k(   15) = (   0.0455456   0.2277282  -0.5010020), wk =   0.0360631
        k(   16) = (   0.0455456   0.3188195   0.3188195), wk =   0.0360631
        k(   17) = (   0.0455456   0.3188195   0.4099107), wk =   0.0721262
        k(   18) = (   0.0455456   0.3188195  -0.5010020), wk =   0.0360631
        k(   19) = (   0.0455456   0.4099107   0.4099107), wk =   0.0360631
        k(   20) = (   0.0455456   0.4099107  -0.5010020), wk =   0.0360631
        k(   21) = (   0.0455456  -0.5010020  -0.5010020), wk =   0.0090158
        k(   22) = (   0.1366369   0.1366369   0.1366369), wk =   0.0120210
        k(   23) = (   0.1366369   0.1366369   0.2277282), wk =   0.0360631
        k(   24) = (   0.1366369   0.1366369   0.3188195), wk =   0.0360631
        k(   25) = (   0.1366369   0.1366369   0.4099107), wk =   0.0360631
        k(   26) = (   0.1366369   0.1366369  -0.5010020), wk =   0.0180316
        k(   27) = (   0.1366369   0.2277282   0.2277282), wk =   0.0360631
        k(   28) = (   0.1366369   0.2277282   0.3188195), wk =   0.0721262
        k(   29) = (   0.1366369   0.2277282   0.4099107), wk =   0.0721262
        k(   30) = (   0.1366369   0.2277282  -0.5010020), wk =   0.0360631
        k(   31) = (   0.1366369   0.3188195   0.3188195), wk =   0.0360631
        k(   32) = (   0.1366369   0.3188195   0.4099107), wk =   0.0721262
        k(   33) = (   0.1366369   0.3188195  -0.5010020), wk =   0.0360631
        k(   34) = (   0.1366369   0.4099107   0.4099107), wk =   0.0360631
        k(   35) = (   0.1366369   0.4099107  -0.5010020), wk =   0.0360631
        k(   36) = (   0.1366369  -0.5010020  -0.5010020), wk =   0.0090158
        k(   37) = (   0.2277282   0.2277282   0.2277282), wk =   0.0120210
        k(   38) = (   0.2277282   0.2277282   0.3188195), wk =   0.0360631
        k(   39) = (   0.2277282   0.2277282   0.4099107), wk =   0.0360631
        k(   40) = (   0.2277282   0.2277282  -0.5010020), wk =   0.0180316
        k(   41) = (   0.2277282   0.3188195   0.3188195), wk =   0.0360631
        k(   42) = (   0.2277282   0.3188195   0.4099107), wk =   0.0721262
        k(   43) = (   0.2277282   0.3188195  -0.5010020), wk =   0.0360631
        k(   44) = (   0.2277282   0.4099107   0.4099107), wk =   0.0360631
        k(   45) = (   0.2277282   0.4099107  -0.5010020), wk =   0.0360631
        k(   46) = (   0.2277282  -0.5010020  -0.5010020), wk =   0.0090158
        k(   47) = (   0.3188195   0.3188195   0.3188195), wk =   0.0120210
        k(   48) = (   0.3188195   0.3188195   0.4099107), wk =   0.0360631
        k(   49) = (   0.3188195   0.3188195  -0.5010020), wk =   0.0180316
        k(   50) = (   0.3188195   0.4099107   0.4099107), wk =   0.0360631
        k(   51) = (   0.3188195   0.4099107  -0.5010020), wk =   0.0360631
        k(   52) = (   0.3188195  -0.5010020  -0.5010020), wk =   0.0090158
        k(   53) = (   0.4099107   0.4099107   0.4099107), wk =   0.0120210
        k(   54) = (   0.4099107   0.4099107  -0.5010020), wk =   0.0180316
        k(   55) = (   0.4099107  -0.5010020  -0.5010020), wk =   0.0090158
        k(   56) = (  -0.5010020  -0.5010020  -0.5010020), wk =   0.0015026

     Dense  grid:   168933 G-vectors     FFT dimensions: (  72,  72,  72)

     Estimated max dynamical RAM per process >      81.33 MB

     Estimated total dynamical RAM >       1.59 GB

     Initial potential from superposition of free atoms

     starting charge   95.92671, renormalised to   96.00000
     Starting wfcs are  128 randomized atomic wfcs
     Checking if some PAW data can be deallocated... 

     total cpu time spent up to now is        7.2 secs

     Self-consistent Calculation

     iteration #  1     ecut=    50.00 Ry     beta= 0.10
     Davidson diagonalization with overlap
     ethr =  1.00E-02,  avg # of iterations =  3.1

     Threshold (ethr) on eigenvalues was too large:
     Diagonalizing with lowered threshold

     Davidson diagonalization with overlap
     ethr =  1.91E-04,  avg # of iterations =  4.5

     total cpu time spent up to now is       31.4 secs

     total energy              =   -1264.12414104 Ry
     Harris-Foulkes estimate   =   -1264.13350629 Ry
     estimated scf accuracy    <       0.17930178 Ry

     iteration #  2     ecut=    50.00 Ry     beta= 0.10
     Davidson diagonalization with overlap
     ethr =  1.87E-04,  avg # of iterations =  1.0

     total cpu time spent up to now is       38.8 secs

     total energy              =   -1264.08369320 Ry
     Harris-Foulkes estimate   =   -1264.12491769 Ry
     estimated scf accuracy    <       0.14402589 Ry

     iteration #  3     ecut=    50.00 Ry     beta= 0.10
     Davidson diagonalization with overlap
     ethr =  1.50E-04,  avg # of iterations =  1.0

     total cpu time spent up to now is       46.2 secs

     total energy              =   -1264.08637047 Ry
     Harris-Foulkes estimate   =   -1264.08637525 Ry
     estimated scf accuracy    <       0.00023863 Ry

     iteration #  4     ecut=    50.00 Ry     beta= 0.10
     Davidson diagonalization with overlap
     c_bands:  1 eigenvalues not converged
     c_bands:  2 eigenvalues not converged
     ethr =  2.49E-07,  avg # of iterations =  7.7

     total cpu time spent up to now is       63.8 secs

     total energy              =   -1264.08741643 Ry
     Harris-Foulkes estimate   =   -1264.08721444 Ry
     estimated scf accuracy    <       0.00021055 Ry

     iteration #  5     ecut=    50.00 Ry     beta= 0.10
     Davidson diagonalization with overlap
     ethr =  2.19E-07,  avg # of iterations =  1.5

     total cpu time spent up to now is       71.5 secs

     total energy              =   -1264.08711381 Ry
     Harris-Foulkes estimate   =   -1264.08742237 Ry
     estimated scf accuracy    <       0.00066639 Ry

     iteration #  6     ecut=    50.00 Ry     beta= 0.10
     Davidson diagonalization with overlap
     ethr =  2.19E-07,  avg # of iterations =  2.0

     total cpu time spent up to now is       80.4 secs

     total energy              =   -1264.08713694 Ry
     Harris-Foulkes estimate   =   -1264.08713707 Ry
     estimated scf accuracy    <       0.00000189 Ry

     iteration #  7     ecut=    50.00 Ry     beta= 0.10
     Davidson diagonalization with overlap
     ethr =  1.97E-09,  avg # of iterations =  5.9

     total cpu time spent up to now is       95.8 secs

     total energy              =   -1264.08713991 Ry
     Harris-Foulkes estimate   =   -1264.08713958 Ry
     estimated scf accuracy    <       0.00000128 Ry

     iteration #  8     ecut=    50.00 Ry     beta= 0.10
     Davidson diagonalization with overlap
     ethr =  1.34E-09,  avg # of iterations =  1.0

     total cpu time spent up to now is      103.2 secs

     total energy              =   -1264.08713920 Ry
     Harris-Foulkes estimate   =   -1264.08713993 Ry
     estimated scf accuracy    <       0.00000237 Ry

     iteration #  9     ecut=    50.00 Ry     beta= 0.10
     Davidson diagonalization with overlap
     ethr =  1.34E-09,  avg # of iterations =  2.3

     total cpu time spent up to now is      112.4 secs

     End of self-consistent calculation

          k = 0.0455 0.0455 0.0455 ( 21094 PWs)   bands (ev):

    -3.1944  -1.1384  -1.1383  -1.1383  -0.7308  -0.7308  -0.7308   0.8885
     0.8885   0.8885   1.2903   1.2903   1.2903   1.2903   1.2903   1.2903
     1.6909   1.6909   1.6909   2.8817   3.2578   3.2578   3.2578   3.7199
     3.7199   3.7199   4.0941   4.9445   4.9445   4.9445   6.5040   6.5040
     6.5040   6.8469   6.8469   6.8469   6.8469   6.8469   6.8469   7.2289
     7.2289   7.2289   7.2289   7.2289   7.2289   8.2487   8.2487   8.2488
     8.2488   8.2488   8.2488   8.7635   8.7635   8.7635   9.1452   9.1452
     9.1452   9.1452

          k = 0.0455 0.0455 0.1366 ( 21093 PWs)   bands (ev):

    -3.1567  -1.5099  -1.1012  -1.1012  -0.6938  -0.6938  -0.2877   0.5222
     0.5222   0.9250   0.9250   0.9251   1.3268   1.3268   1.7271   1.7271
     1.7273   2.1264   2.1265   2.5242   2.9175   2.9175   3.2932   3.7561
     4.1299   4.1299   4.3953   4.5196   4.9791   4.9791   6.3187   6.3187
     6.5028   6.5028   6.5401   6.5401   6.6860   6.6861   6.8997   6.8997
     7.1182   7.2689   7.2689   7.6272   7.6272   8.0525   8.0526   8.2644
     8.4164   8.4164   8.4442   8.4442   8.6360   8.6360   8.6480   8.6480
     8.7981   8.7981

          k = 0.0455 0.0455 0.2277 ( 21096 PWs)   bands (ev):

    -3.0814  -1.8452  -1.0271  -1.0270  -0.6198  -0.6198   0.1906   0.1916
     0.1917   0.5954   0.5954   0.9983   1.3998   1.3998   1.8000   2.1985
     2.1985   2.1994   2.5962   2.5962   2.5964   2.5964   2.9892   3.7380
     4.2014   4.5907   4.5907   4.9819   5.0485   5.0485   5.6815   5.6815
     6.0627   6.0628   6.1917   6.1917   6.6121   6.6121   6.9604   6.9604
     7.3395   7.3395   7.6399   7.7278   7.7278   7.9056   8.0254   8.0254
     8.1041   8.1041   8.1336   8.1336   8.4104   8.4857   8.4857   8.5863
     8.5863   8.9061

          k = 0.0455 0.0455 0.3188 ( 21112 PWs)   bands (ev):

    -2.9686  -2.1439  -0.9158  -0.9158  -0.5089  -0.5089  -0.1029  -0.1028
     0.3017   0.3018   0.7034   1.1080   1.5091   1.5091   1.9091   1.9095
     2.3078   2.3078   2.7037   2.7038   2.7042   3.0788   3.1001   3.1001
     4.6968   5.0379   5.0379   5.0877   5.0877   5.1525   5.1525   5.4243
     5.4243   5.4787   5.9147   5.9147   6.7197   6.7197   7.0042   7.0635
     7.0635   7.3913   7.3913   7.4440   7.4440   7.4833   7.4834   7.7778
     7.8264   7.8264   8.2080   8.2080   8.6002   8.6002   8.7215   8.7215
     8.7598   9.0815

          k = 0.0455 0.0455 0.4099 ( 21105 PWs)   bands (ev):

    -2.8183  -2.4058  -0.7677  -0.7677  -0.3612  -0.3612  -0.3610  -0.3610
     0.0443   0.0443   1.2501   1.2541   1.6548   1.6548   1.6551   2.0543
     2.0544   2.0544   2.4402   2.4523   3.2421   3.2421   3.6366   3.6366
     4.4121   4.4121   4.8019   4.8019   5.2279   5.2911   5.2911   5.6184
     5.6184   5.6723   5.6723   6.0086   6.3849   6.7734   6.7734   6.8623
     6.8623   7.1613   7.2020   7.2020   7.2473   7.2473   7.5830   7.5830
     7.5835   7.5835   7.9650   7.9650   8.8774   8.8774   9.1163   9.1163
     9.2514   9.2514

          k = 0.0455 0.0455-0.5010 ( 21134 PWs)   bands (ev):

    -2.6306  -2.6306  -0.5827  -0.5827  -0.5827  -0.5827  -0.1768  -0.1768
    -0.1767  -0.1767   1.4365   1.4365   1.8296   1.8296   1.8366   1.8366
     1.8366   1.8366   2.2354   2.2354   3.8122   3.8122   3.8122   3.8122
     4.2046   4.2046   4.2046   4.2046   5.4644   5.4644   5.4644   5.4644
     5.7914   5.7914   6.1810   6.1810   6.1810   6.1810   6.5702   6.5702
     7.0388   7.0388   7.0388   7.0388   7.3753   7.3753   7.3753   7.3754
     7.7567   7.7567   7.7567   7.7567   9.0628   9.0628   9.0628   9.0628
     9.4425   9.4425

          k = 0.0455 0.1366 0.1366 ( 21106 PWs)   bands (ev):

    -3.1191  -1.4727  -1.4727  -1.0641  -0.6568  -0.2508  -0.2508   0.1549
     0.5589   0.5589   0.9616   0.9616   1.3630   1.3630   1.7635   1.7635
     2.1627   2.1627   2.1633   2.5602   2.5606   3.3285   3.3285   3.7924
     3.7924   4.4306   4.4306   4.5552   4.9466   5.0138   5.9728   5.9728
     6.3368   6.3368   6.5347   6.5347   6.5761   6.7702   6.7702   7.1066
     7.1066   7.1536   7.1536   7.6799   7.6799   7.9151   7.9152   8.0694
     8.1687   8.1687   8.2990   8.2990   8.5711   8.5711   8.9421   8.9422
     9.0659   9.0659

          k = 0.0455 0.1366 0.2277 ( 21103 PWs)   bands (ev):

    -3.0438  -1.8079  -1.3983  -0.9900  -0.5829  -0.1771  -0.1765   0.2273
     0.2284   0.6321   0.6322   1.0344   1.0348   1.8356   1.8362   1.8369
     2.2347   2.2352   2.2355   2.6325   3.0249   3.0289   3.3993   3.7736
     3.8646   4.2372   4.5010   5.0174   5.0831   5.3314   5.4086   5.6592
     5.7121   6.0722   6.2257   6.4557   6.4738   6.6333   6.6478   6.8320
     7.2243   7.2889   7.4734   7.6006   7.6747   7.7537   7.7571   7.9404
     7.9570   7.9846   8.1020   8.2664   8.3719   8.4450   8.8296   8.9021
     9.1173   9.1396

          k = 0.0455 0.1366 0.3188 ( 21102 PWs)   bands (ev):

    -2.9310  -2.1065  -1.2868  -0.8788  -0.4720  -0.4717  -0.0665  -0.0660
     0.3385   0.7400   0.7417   0.7422   1.1444   1.5460   1.9452   1.9457
     2.3423   2.3438   2.7398   2.7400   3.1147   3.1323   3.1360   3.5308
     4.3439   4.6067   4.6846   4.7325   5.0716   5.1871   5.3794   5.4545
     5.5140   5.8412   5.9045   5.9491   6.5568   6.6518   6.7188   6.7548
     6.9354   7.0392   7.3208   7.3298   7.4771   7.4796   7.7049   7.8126
     7.8593   8.0684   8.1657   8.1986   8.3840   8.6243   8.6416   8.7939
     9.1800   9.2891

          k = 0.0455 0.1366 0.4099 ( 21094 PWs)   bands (ev):

    -2.7807  -2.3683  -1.1383  -0.7307  -0.7306  -0.3243  -0.3241   0.0808
     0.0811   0.4850   0.8887   1.2866   1.2905   1.2908   1.6913   2.0903
     2.4763   2.4882   2.4884   2.8822   2.8839   3.2779   3.6722   4.0561
     4.0652   4.4470   4.7475   4.8356   4.8732   5.1340   5.2244   5.2634
     5.3257   5.7068   6.0314   6.0438   6.4201   6.4334   6.6928   6.8559
     6.8962   7.0750   7.0760   7.1962   7.2368   7.2716   7.4599   7.4695
     7.5835   7.8449   7.9988   8.3812   8.5322   8.6463   8.9298   9.1525
     9.4488   9.6456

          k = 0.0455 0.1366-0.5010 ( 21118 PWs)   bands (ev):

    -2.5931  -2.5931  -0.9528  -0.9528  -0.5457  -0.5457  -0.1399  -0.1399
     0.2646   0.2647   1.0716   1.0716   1.4728   1.4729   1.8659   1.8659
     2.2715   2.2715   2.6686   2.6686   3.4541   3.4541   3.8477   3.8477
     4.2396   4.2396   4.6306   4.6306   4.9233   4.9233   5.4370   5.4370
     5.4990   5.4990   5.8268   5.8268   6.6052   6.6052   6.8665   6.8665
     6.9937   6.9937   7.0288   7.0288   7.0701   7.0701   7.2499   7.2499
     7.6421   7.6421   8.1727   8.1728   8.7139   8.7139   9.1880   9.1880
     9.6346   9.6349

          k = 0.0455 0.2277 0.2277 ( 21111 PWs)   bands (ev):

    -2.9686  -1.7333  -1.7333  -0.9158  -0.5089  -0.5087   0.3008   0.3008
     0.3019   0.3020   0.7054   0.7054   1.5081   1.5082   1.5096   1.9094
     2.3071   2.3071   2.7046   2.7046   3.4698   3.4698   3.4955   3.8449
     3.8449   3.9371   3.9371   5.0147   5.0147   5.1524   5.4791   5.7565
     5.7565   5.8698   6.2268   6.2269   6.2919   6.2919   6.7187   6.9157
     6.9157   6.9727   6.9727   7.3587   7.3587   7.4449   7.9828   7.9828
     8.0097   8.0097   8.2004   8.2005   8.8985   8.8985   9.0539   9.0539
     9.1462   9.2825

          k = 0.0455 0.2277 0.3188 ( 21102 PWs)   bands (ev):

    -2.8559  -2.0318  -1.6216  -0.8047  -0.8046  -0.3981   0.0077   0.4110
     0.4120   0.4122   0.8133   0.8153   1.2164   1.2178   1.6186   2.0161
     2.4157   2.8119   2.8127   3.1865   3.2035   3.2076   3.5760   3.9517
     3.9952   4.0450   4.3652   4.4156   4.7322   5.1367   5.2564   5.4956
     5.9533   5.9748   6.0177   6.2643   6.3101   6.3344   6.3646   6.4309
     6.6915   6.7219   6.8243   7.0775   7.1675   7.2865   7.8181   8.0803
     8.1132   8.2677   8.3088   8.6524   8.6530   8.8618   8.8621   8.8814
     9.0752   9.3853

          k = 0.0455 0.2277 0.4099 ( 21109 PWs)   bands (ev):

    -2.7057  -2.2935  -1.4727  -1.0640  -0.6567  -0.2505  -0.2503   0.1547
     0.5578   0.5590   0.9606   0.9617   0.9620   1.3595   1.3636   2.5485
     2.5574   2.5601   2.9554   2.9564   3.3467   3.3495   3.7346   3.7431
     4.0939   4.4844   4.5161   4.5270   4.5569   4.9008   4.9445   5.3950
     5.6769   5.7132   5.7758   6.0659   6.1019   6.4458   6.4464   6.5033
     6.5459   6.8315   6.8922   6.9249   6.9625   7.2973   7.6529   8.0395
     8.0804   8.2204   8.2497   8.4491   8.6078   8.6126   8.8320   9.1582
     9.2283   9.7573

          k = 0.0455 0.2277-0.5010 ( 21096 PWs)   bands (ev):

    -2.5182  -2.5182  -1.2868  -1.2868  -0.4718  -0.4718  -0.0662  -0.0662
     0.7410   0.7410   0.7423   0.7423   1.1445   1.1445   1.9385   1.9385
     2.7403   2.7403   3.1308   3.1308   3.1350   3.1351   3.9184   3.9184
     4.2716   4.2716   4.3090   4.3090   5.0889   5.0889   5.1187   5.1187
     5.5079   5.5079   5.5682   5.5682   6.2364   6.2365   6.6209   6.6209
     6.7174   6.7174   7.0634   7.0634   7.1282   7.1282   7.4512   7.4512
     8.3984   8.3984   8.4170   8.4170   8.5886   8.5886   8.6234   8.6234
     9.7754   9.7754

          k = 0.0455 0.3188 0.3188 ( 21108 PWs)   bands (ev):

    -2.7432  -1.9198  -1.9198  -1.1011  -0.6936  -0.2874   0.1181   0.1181
     0.5221   0.5221   0.9230   0.9230   0.9254   1.3271   1.7254   1.7254
     2.9198   2.9198   3.2941   3.2941   3.3148   3.3148   3.6814   3.6814
     4.0805   4.0805   4.1535   4.1535   4.4924   5.2143   5.2143   5.3603
     5.6985   5.6985   6.0524   6.0525   6.1185   6.1185   6.4398   6.4398
     6.4692   6.7619   6.7619   6.8582   6.8902   6.9265   7.8260   7.8261
     8.5784   8.7560   8.7560   8.7904   8.7904   8.9627   8.9627   9.1406
     9.1406   9.1417

          k = 0.0455 0.3188 0.4099 ( 21107 PWs)   bands (ev):

    -2.5931  -2.1813  -1.7706  -1.3611  -0.5457  -0.1399  -0.1397   0.2650
     0.2652   0.6688   0.6691   1.0692   1.0715   1.4688   1.4706   2.2679
     2.6568   3.0633   3.4374   3.4481   3.4530   3.4565   3.4569   3.8229
     3.8308   3.8486   4.2963   4.6171   4.6642   4.9777   5.0206   5.4313
     5.4535   5.4988   5.8069   5.8121   5.8192   5.8790   6.1324   6.1933
     6.2950   6.6481   6.9964   7.0561   7.1538   7.3844   7.7053   7.9474
     8.1429   8.3302   8.5287   8.5464   8.9333   9.0946   9.2757   9.2768
     9.3173   9.4903

          k = 0.0455 0.3188-0.5010 ( 21104 PWs)   bands (ev):

    -2.4058  -2.4058  -1.5843  -1.5843  -0.3610  -0.3610   0.0443   0.0443
     0.4489   0.4490   0.8520   0.8520   1.2518   1.2518   2.0473   2.0473
     2.8428   2.8428   3.2418   3.2418   3.6164   3.6164   3.6317   3.6317
     4.0237   4.0237   4.4103   4.4103   4.8392   4.8392   5.2254   5.2254
     5.5766   5.5766   5.6006   5.6006   5.6718   5.6718   5.9832   5.9832
     6.4421   6.4421   7.1892   7.1893   7.5550   7.5550   7.9419   7.9419
     8.0090   8.0090   8.1188   8.1188   9.1083   9.1083   9.2509   9.2509
     9.8828   9.8855

          k = 0.0455 0.4099 0.4099 ( 21122 PWs)   bands (ev):

    -2.4432  -2.0318  -2.0318  -1.6216  -0.3979   0.0075   0.0077   0.0077
     0.4120   0.4120   0.4122   0.8154   1.6144   1.6145   2.0142   2.0142
     2.8010   2.8010   3.1968   3.1969   3.5983   3.5983   3.9627   3.9627
     3.9866   3.9866   4.4404   4.4404   4.7311   4.7311   5.1885   5.1885
     5.2174   5.2174   5.5429   5.5730   5.5730   5.6371   6.0144   6.0145
     6.4074   6.6659   6.6659   7.1532   7.5221   7.7271   7.7271   7.9091
     7.9830   8.0845   8.6653   8.6653   9.0503   9.0503   9.4497   9.4498
     9.8363   9.8368

          k = 0.0455 0.4099-0.5010 ( 21108 PWs)   bands (ev):

    -2.2561  -2.2561  -1.8452  -1.8452  -0.2134  -0.2134   0.1915   0.1915
     0.1917   0.1917   0.5955   0.5955   1.7963   1.7963   2.1923   2.1923
     2.5902   2.5902   2.9811   2.9811   3.7726   3.7726   4.1394   4.1394
     4.1612   4.1612   4.5247   4.5247   4.6170   4.6170   4.9818   4.9818
     5.0044   5.0044   5.3660   5.3660   5.8096   5.8096   6.0656   6.0656
     6.2267   6.2267   7.0862   7.0862   7.6450   7.6450   7.8794   7.8794
     8.0791   8.0791   8.4651   8.4651   9.2190   9.2190   9.6031   9.6031
     9.6272   9.6272

          k = 0.0455-0.5010-0.5010 ( 21132 PWs)   bands (ev):

    -2.0692  -2.0692  -2.0691  -2.0691  -0.0291  -0.0291  -0.0291  -0.0291
     0.3752   0.3753   0.3753   0.3753   2.3733   2.3733   2.3733   2.3733
     2.3733   2.3733   2.3733   2.3733   4.3130   4.3130   4.3130   4.3130
     4.3130   4.3130   4.3130   4.3130   4.7961   4.7961   4.7961   4.7961
     4.7961   4.7961   4.7961   4.7961   5.9797   5.9798   5.9798   5.9798
     6.6334   6.6334   6.6335   6.6335   7.6935   7.6935   7.6935   7.6935
     8.6344   8.6344   8.6344   8.6344   9.0195   9.0195   9.0195   9.0195
    10.1781  10.1781

          k = 0.1366 0.1366 0.1366 ( 21101 PWs)   bands (ev):

    -3.0814  -1.4355  -1.4355  -1.4355  -0.2140  -0.2139  -0.2139   0.1917
     0.1917   0.1917   1.3994   1.3994   1.3994   1.3995   1.3995   1.3995
     1.8007   2.5967   2.5967   2.5967   2.9890   2.9890   2.9891   4.2016
     4.2016   4.2016   4.4658   4.4658   4.4658   5.3734   6.0045   6.0045
     6.0045   6.0045   6.0045   6.0045   7.1660   7.1660   7.1660   7.1660
     7.1660   7.1661   7.1889   7.1889   7.1889   7.5658   7.5658   7.5658
     8.7159   8.7159   8.7159   8.7159   8.7172   8.7172   8.7172   8.7172
     8.7172   8.7172

          k = 0.1366 0.1366 0.2277 ( 21093 PWs)   bands (ev):

    -3.0062  -1.7706  -1.3612  -1.3611  -0.1402  -0.1402  -0.1396  -0.1396
     0.2641   0.2653   1.0709   1.0710   1.4724   1.4724   1.4732   1.8719
     1.8720   2.6680   2.6680   2.6688   3.0648   3.0648   3.4344   3.8093
     3.9011   4.5363   4.5363   4.6619   4.6619   5.3651   5.3651   5.6931
     5.6931   5.8347   6.0569   6.0569   6.5568   6.5568   6.9377   7.2434
     7.2434   7.2512   7.2512   7.2591   7.2591   7.5952   7.5952   7.9749
     8.0948   8.0948   8.4030   8.4030   8.4584   8.4585   8.8326   8.8326
     9.1694   9.1694

          k = 0.1366 0.1366 0.3188 ( 21086 PWs)   bands (ev):

    -2.8934  -2.0691  -1.2497  -1.2497  -0.4348  -0.4348  -0.0297  -0.0297
     0.3755   0.7766   0.7783   0.7783   1.1814   1.5817   1.5817   2.3785
     2.3785   2.3799   2.3799   2.7769   3.1506   3.5409   3.5664   3.5664
     4.0087   4.6419   4.6419   4.7193   4.7193   5.1586   5.1586   5.4140
     5.4140   5.8467   5.8467   6.2362   6.2362   6.2992   6.3297   6.9715
     6.9715   7.3510   7.3510   7.3638   7.3638   7.4610   7.4610   7.9418
     7.9418   8.1233   8.1233   8.3315   8.3315   8.6186   8.8276   8.9571
     8.9571   9.6553

          k = 0.1366 0.1366 0.4099 ( 21089 PWs)   bands (ev):

    -2.7432  -2.3309  -1.1012  -1.1012  -0.6936  -0.6936   0.1176   0.1176
     0.5217   0.5217   0.5224   0.9255   1.3230   1.7273   1.7273   2.1266
     2.1266   2.5124   2.9182   2.9182   2.9207   3.3112   4.0915   4.0915
     4.1002   4.1003   4.5211   4.7826   4.7826   5.1689   5.1689   5.2545
     5.2545   5.6778   5.6890   5.6890   6.3484   6.3485   6.7271   6.7271
     6.8434   6.8434   6.8574   7.4923   7.4923   7.5019   7.5019   7.8567
     7.8567   7.8783   7.8783   8.0050   8.6967   8.6967   9.1075   9.1075
     9.5038   9.5039

          k = 0.1366 0.1366-0.5010 ( 21100 PWs)   bands (ev):

    -2.5557  -2.5556  -0.9158  -0.9158  -0.9158  -0.9157   0.3014   0.3014
     0.3014   0.3014   0.7057   0.7058   1.9022   1.9022   1.9090   1.9090
     1.9090   1.9090   3.0994   3.0994   3.4898   3.4898   3.4899   3.4899
     4.6644   4.6644   4.6644   4.6645   4.9583   4.9583   4.9584   4.9584
     5.0831   5.0831   6.2514   6.2514   6.2514   6.2514   6.5187   6.5187
     6.5187   6.5187   7.4165   7.4165   7.6679   7.6679   7.6680   7.6680
     7.6701   7.6701   7.6701   7.6701   9.2272   9.2272   9.2272   9.2272
     9.2891   9.2891

          k = 0.1366 0.2277 0.2277 ( 21102 PWs)   bands (ev):

    -2.9310  -1.6961  -1.6961  -1.2868  -0.4717  -0.0665  -0.0659  -0.0659
     0.3375   0.3376   1.1440   1.1441   1.1449   1.5446   1.5446   1.9446
     1.9446   2.3437   3.1319   3.1319   3.1365   3.1366   3.5311   3.8805
     3.8805   4.3447   4.3447   4.6067   5.0493   5.0494   5.1236   5.4303
     5.4303   5.7593   5.7593   6.2950   6.6202   6.6202   6.6214   6.6214
     6.9366   6.9849   6.9849   7.3284   7.6880   7.6881   7.7790   7.7790
     8.0436   8.0436   8.5420   8.5420   8.5487   8.5487   8.8554   8.8554
     9.1826   9.1826

          k = 0.1366 0.2277 0.3188 ( 21100 PWs)   bands (ev):

    -2.8183  -1.9945  -1.5843  -1.1754  -0.7676  -0.3609   0.0440   0.0446
     0.4477   0.8498   0.8515   0.8524   1.2529   1.2536   2.0524   2.0535
     2.0542   2.4508   2.8475   3.2223   3.2438   3.6106   3.6374   3.9872
     4.0303   4.0819   4.4005   4.7122   4.7673   4.7883   4.8394   5.4827
     5.5106   5.6198   5.8468   5.9819   6.0083   6.3406   6.3734   6.6573
     6.7244   6.7889   7.1440   7.4311   7.4396   7.4980   7.8004   7.9166
     8.1457   8.1532   8.2978   8.5758   8.6532   8.8943   8.9555   9.0359
     9.0723   9.3414

          k = 0.1366 0.2277 0.4099 ( 21111 PWs)   bands (ev):

    -2.6682  -2.2561  -1.4355  -1.0270  -1.0269  -0.6196   0.1911   0.1918
     0.5944   0.5951   0.5958   0.9972   1.3959   1.3996   1.8001   2.1985
     2.5846   2.5935   2.5960   2.9901   3.3860   3.7528   3.7703   4.1294
     4.1620   4.1698   4.2241   4.5197   4.5609   4.8528   5.2385   5.2944
     5.3603   5.3697   5.6805   5.7449   6.0641   6.0960   6.1492   6.4139
     6.5254   6.8648   7.2518   7.3007   7.3153   7.5639   7.7774   7.9435
     8.2364   8.2786   8.3307   8.4601   8.5129   8.7975   8.8839   9.1894
     9.1985   9.5559

          k = 0.1366 0.2277-0.5010 ( 21090 PWs)   bands (ev):

    -2.4807  -2.4807  -1.2496  -1.2496  -0.8417  -0.8416   0.3749   0.3749
     0.3756   0.3756   0.7777   0.7777   1.5818   1.5818   1.9748   1.9748
     2.3794   2.3795   3.1667   3.1667   3.5610   3.5611   3.5612   3.5612
     4.3070   4.3070   4.7298   4.7298   4.7678   4.7678   5.0283   5.0283
     5.1190   5.1190   5.8904   5.8905   5.9326   5.9326   6.2090   6.2090
     6.7102   6.7102   7.0407   7.0407   7.7143   7.7143   7.8731   7.8731
     8.1200   8.1200   8.4328   8.4328   8.6416   8.6416   8.9761   8.9762
     9.3127   9.3127

          k = 0.1366 0.3188 0.3188 ( 21132 PWs)   bands (ev):

    -2.7057  -1.8825  -1.8825  -1.0641  -1.0640  -0.2502  -0.2502   0.1544
     0.5592   0.9596   0.9596   0.9613   0.9613   1.7618   1.7618   1.7637
     2.5592   2.5592   3.3299   3.3299   3.3457   3.3457   3.7431   3.7432
     4.1160   4.1160   4.5263   4.5587   4.5587   4.8176   4.8889   4.8889
     5.5839   5.5840   5.7009   5.7010   6.0922   6.0922   6.1149   6.3790
     6.8353   6.8353   6.8620   6.8620   7.2814   7.5284   8.2804   8.2804
     8.3860   8.3861   8.4056   8.4056   8.9919   8.9919   9.0619   9.0619
     9.1557   9.1823

          k = 0.1366 0.3188 0.4099 ( 21116 PWs)   bands (ev):

    -2.5557  -2.1439  -1.7333  -1.3239  -0.9157  -0.5087  -0.1027   0.3014
     0.3021   0.7051   1.1058   1.1076   1.5052   1.5070   1.5090   2.3041
     2.6929   2.7035   3.0978   3.0981   3.4732   3.4839   3.8566   3.8665
     3.8814   4.2670   4.2714   4.3339   4.9580   5.0031   5.0508   5.0818
     5.0868   5.3423   5.4591   5.4988   5.7068   6.1391   6.2289   6.2427
     6.2451   6.6152   6.6429   7.3202   7.6429   7.7913   7.8065   8.1749
     8.4274   8.5224   8.6002   8.7800   8.8166   8.9089   8.9270   8.9484
     9.1119   9.5810

          k = 0.1366 0.3188-0.5010 ( 21098 PWs)   bands (ev):

    -2.3684  -2.3683  -1.5471  -1.5471  -0.7306  -0.7306   0.0815   0.0815
     0.4850   0.4850   1.2883   1.2883   1.2902   1.2902   2.0836   2.0836
     2.8788   2.8788   2.8833   2.8833   3.6521   3.6521   3.6680   3.6680
     4.0348   4.0348   4.5092   4.5092   4.8067   4.8067   5.1331   5.1331
     5.2770   5.2770   5.5796   5.5796   5.6494   5.6494   5.9602   5.9603
     6.4039   6.4039   7.2024   7.2024   7.6751   7.6752   8.1615   8.1615
     8.3629   8.3629   8.6054   8.6054   8.6975   8.6975   9.1671   9.1671
     9.4799   9.4799

          k = 0.1366 0.4099 0.4099 ( 21124 PWs)   bands (ev):

    -2.4058  -1.9945  -1.9944  -1.5843  -0.7676  -0.3609  -0.3609   0.0447
     0.4483   0.8516   0.8516   1.2537   1.6508   1.6508   2.0504   2.0504
     2.8370   2.8370   3.2327   3.2327   3.2411   3.2411   3.6298   3.6298
     4.3864   4.3864   4.4039   4.4039   4.8427   4.8427   4.8617   4.8617
     5.0979   5.4787   5.4787   5.5457   5.6134   5.6134   5.9255   5.9956
     5.9956   6.7412   6.7412   7.1694   7.6408   8.1346   8.2873   8.2874
     8.3145   8.3145   8.3302   8.6637   8.9414   8.9414   9.3354   9.3354
     9.4528   9.4691

          k = 0.1366 0.4099-0.5010 ( 21128 PWs)   bands (ev):

    -2.2187  -2.2187  -1.8079  -1.8079  -0.5826  -0.5826  -0.1764  -0.1764
     0.6317   0.6318   1.0345   1.0345   1.8326   1.8326   2.2285   2.2285
     2.6263   2.6263   3.0170   3.0171   3.4191   3.4191   3.8094   3.8094
     4.1717   4.1717   4.5547   4.5547   4.6558   4.6558   5.0454   5.0454
     5.2720   5.2720   5.4027   5.4027   5.6367   5.6367   5.7849   5.7850
     6.1797   6.1797   7.2579   7.2579   7.7273   7.7273   8.1108   8.1108
     8.4552   8.4552   8.8690   8.8690   8.8851   8.8851   9.1229   9.1229
     9.4747   9.4747

          k = 0.1366-0.5010-0.5010 ( 21164 PWs)   bands (ev):

    -2.0318  -2.0318  -2.0318  -2.0318  -0.3979  -0.3978  -0.3978  -0.3978
     0.8149   0.8150   0.8150   0.8150   2.4094   2.4094   2.4094   2.4094
     2.4094   2.4095   2.4095   2.4095   3.9831   3.9831   3.9831   3.9831
     3.9831   3.9831   3.9831   3.9831   5.1952   5.1952   5.1952   5.1952
     5.1952   5.1952   5.1952   5.1952   5.4435   5.4436   5.4436   5.4436
     6.7093   6.7093   6.7093   6.7093   8.2539   8.2539   8.2539   8.2539
     8.2835   8.2835   8.2835   8.2835   9.4384   9.4384   9.4384   9.4384
     9.6698   9.6698

          k = 0.2277 0.2277 0.2277 ( 21107 PWs)   bands (ev):

    -2.8559  -1.6216  -1.6216  -1.6216  -0.3978  -0.3978  -0.3978   0.4110
     0.4110   0.4110   0.8158   1.6174   1.6174   1.6174   1.6174   1.6174
     1.6174   2.8115   2.8115   2.8115   3.6021   3.6021   3.6021   3.9517
     3.9517   3.9517   4.8043   4.8043   4.8043   5.1181   5.1181   5.1181
     5.1181   5.1181   5.1181   6.3054   6.3055   6.3055   6.7543   7.0659
     7.0659   7.0659   7.0659   7.0659   7.0659   8.1107   8.1107   8.1108
     8.2333   8.2333   8.2333   8.2333   8.2333   8.2333   9.2912   9.2913
     9.2913   9.2913

          k = 0.2277 0.2277 0.3188 ( 21110 PWs)   bands (ev):

    -2.7432  -1.9198  -1.5099  -1.5099  -0.6935  -0.6935  -0.2871   0.5211
     0.5211   0.5225   0.9230   1.3259   1.3259   1.7266   1.7266   2.1249
     2.1249   2.5238   2.5238   3.2941   3.3099   3.7079   4.0583   4.0583
     4.0999   4.0999   4.4707   4.4707   4.5235   4.8372   4.8372   5.2187
     5.2187   5.3003   5.3003   5.6656   6.0256   6.0257   6.4377   6.4377
     7.1754   7.1754   7.2470   7.5430   7.5430   7.6001   7.6001   7.9524
     7.9524   8.2085   8.2085   8.7209   8.7209   8.9573   9.0345   9.0345
     9.4120   9.4120

          k = 0.2277 0.2277 0.4099 ( 21119 PWs)   bands (ev):

    -2.5931  -2.1813  -1.3611  -1.3611  -0.9528  -0.9528  -0.1395   0.2654
     0.6677   0.6678   1.0703   1.0703   1.4688   1.8720   1.8720   2.2709
     2.2709   2.6568   2.6657   2.6657   3.8212   3.8414   3.8414   3.8462
     4.2004   4.2004   4.2983   4.5902   4.5902   4.6263   4.6264   5.0461
     5.3349   5.3349   5.7849   5.7849   5.8301   5.8301   5.8448   5.8448
     6.9832   6.9832   7.3180   7.3180   7.7062   7.7062   7.7723   8.0328
     8.0328   8.3268   8.3268   8.8265   8.8265   8.9144   9.2412   9.2412
     9.2871   9.2871

          k = 0.2277 0.2277-0.5010 ( 21100 PWs)   bands (ev):

    -2.4058  -2.4058  -1.1754  -1.1754  -1.1754  -1.1753   0.0447   0.0447
     0.8509   0.8509   0.8509   0.8509   2.0473   2.0473   2.0535   2.0535
     2.0535   2.0535   3.2385   3.2385   3.2385   3.2385   3.9999   3.9999
     4.3778   4.3778   4.3778   4.3778   4.4732   4.4732   5.1585   5.1585
     5.1585   5.1585   5.6048   5.6048   5.6048   5.6049   6.3918   6.3918
     6.3918   6.3918   7.4948   7.4948   7.4948   7.4948   8.3287   8.3287
     8.3807   8.3807   8.3807   8.3807   8.8242   8.8242   8.8242   8.8242
     9.7396   9.7396

          k = 0.2277 0.3188 0.3188 ( 21113 PWs)   bands (ev):

    -2.6306  -1.8079  -1.8079  -1.3983  -0.9898  -0.5826  -0.5825   0.2287
     0.6311   1.0327   1.0327   1.4353   1.4353   1.8345   1.8345   2.2336
     2.2336   2.2347   3.0262   3.0262   3.4016   3.4016   4.1649   4.1869
     4.1869   4.2016   4.2016   4.5753   4.5753   4.5918   4.9413   4.9414
     5.0171   5.0171   5.3882   5.3882   5.7496   5.7958   6.5423   6.5423
     6.9181   6.9181   7.3183   7.3183   7.6591   7.6591   7.7385   8.0895
     8.0895   8.2914   8.4402   8.4402   9.0417   9.0417   9.1433   9.1433
     9.2715   9.8578

          k = 0.2277 0.3188 0.4099 ( 21114 PWs)   bands (ev):

    -2.4807  -2.0692  -1.6588  -1.2496  -1.2496  -0.8416  -0.4347  -0.0289
     0.7777   1.1788   1.1799   1.5780   1.5799   1.5811   1.9810   2.3765
     2.3784   2.7650   2.7738   2.7752   3.5448   3.5554   3.5583   3.9376
     3.9478   4.3068   4.3170   4.6956   4.7035   4.7117   4.7728   4.7902
     5.0774   5.0902   5.1706   5.5345   5.5466   5.9293   6.3099   6.3243
     6.6832   6.7006   7.0714   7.4285   7.4743   7.8042   8.1709   8.1940
     8.2624   8.3125   8.6114   8.7814   8.9120   8.9607   9.0691   9.2858
     9.4017   9.4988

          k = 0.2277 0.3188-0.5010 ( 21130 PWs)   bands (ev):

    -2.2935  -2.2935  -1.4727  -1.4727  -1.0640  -1.0640  -0.2501  -0.2501
     0.9606   0.9607   1.3613   1.3613   1.7630   1.7630   2.1560   2.1560
     2.5590   2.5591   2.9508   2.9508   3.3459   3.3459   3.7235   3.7235
     4.1011   4.1011   4.4838   4.4838   4.5853   4.5853   4.8622   4.8622
     5.2294   5.2295   5.3630   5.3630   5.7447   5.7447   6.1086   6.1086
     6.8597   6.8597   6.8846   6.8846   7.9475   7.9475   7.9821   7.9821
     8.6941   8.6942   8.7377   8.7377   8.8175   8.8175   9.1648   9.1648
     9.4620   9.5124

          k = 0.2277 0.4099 0.4099 ( 21113 PWs)   bands (ev):

    -2.3309  -1.9198  -1.9198  -1.5099  -1.1011  -0.6935  -0.6935  -0.2870
     0.9241   1.3259   1.3260   1.7236   1.7236   1.7266   2.1230   2.1230
     2.9091   2.9091   2.9178   2.9178   3.3045   3.3045   3.3115   3.3115
     4.0887   4.0887   4.4483   4.4488   4.4489   4.8352   4.8352   4.9412
     4.9412   5.1943   5.2996   5.2996   5.7110   6.0662   6.0662   6.4533
     6.4533   6.8247   6.8247   6.8515   7.9177   7.9981   7.9981   8.3216
     8.3217   8.7070   8.7143   8.7143   8.7849   9.0467   9.0467   9.1376
     9.4219   9.4219

          k = 0.2277 0.4099-0.5010 ( 21142 PWs)   bands (ev):

    -2.1439  -2.1439  -1.7333  -1.7333  -0.9157  -0.9157  -0.5086  -0.5086
     1.1069   1.1069   1.5082   1.5082   1.9052   1.9053   2.3009   2.3009
     2.6984   2.6984   3.0889   3.0890   3.0973   3.0973   3.4888   3.4888
     3.8761   3.8761   4.2616   4.2617   4.6247   4.6247   5.0067   5.0067
     5.0917   5.0918   5.4783   5.4783   5.8612   5.8612   6.2416   6.2416
     6.2447   6.2447   7.3681   7.3681   7.4101   7.4101   8.5016   8.5016
     8.5532   8.5532   8.8476   8.8476   8.8662   8.8662   9.2201   9.2201
     9.2656   9.2656

          k = 0.2277-0.5010-0.5010 ( 21156 PWs)   bands (ev):

    -1.9572  -1.9571  -1.9571  -1.9571  -0.7305  -0.7305  -0.7305  -0.7305
     1.2894   1.2895   1.2895   1.2895   2.4817   2.4817   2.4817   2.4817
     2.4817   2.4818   2.4818   2.4818   3.6663   3.6663   3.6663   3.6663
     3.6663   3.6663   3.6663   3.6663   4.7998   4.7998   4.7998   4.7998
     5.6502   5.6502   5.6502   5.6502   5.6502   5.6502   5.6502   5.6502
     6.7930   6.7930   6.7930   6.7930   7.9670   7.9670   7.9670   7.9670
     9.0138   9.0138   9.0509   9.0511   9.0512   9.0513   9.0513   9.0513
     9.0513   9.0513

          k = 0.3188 0.3188 0.3188 ( 21140 PWs)   bands (ev):

    -2.5182  -1.6961  -1.6961  -1.6961  -0.8787  -0.8786  -0.8786  -0.0658
     1.1423   1.1423   1.1423   1.9435   1.9435   1.9435   1.9435   1.9435
     1.9435   2.7392   2.7392   2.7392   3.5090   3.5090   3.5090   4.2928
     4.2928   4.2928   4.2928   4.2928   4.2928   4.6690   4.6690   4.6690
     5.1351   5.1351   5.1351   5.5122   5.5122   5.5122   7.0285   7.0285
     7.0285   7.0285   7.0285   7.0285   7.8080   7.8080   7.8080   7.8080
     7.8080   7.8080   8.2287   9.0354   9.0354   9.0354   9.4826   9.4826
     9.4826   9.9765

          k = 0.3188 0.3188 0.4099 ( 21123 PWs)   bands (ev):

    -2.3683  -1.9571  -1.5471  -1.5471  -1.1382  -1.1382  -0.7305  -0.3239
     1.2883   1.2883   1.6872   1.6891   1.6891   2.0886   2.0886   2.4850
     2.4850   2.4868   2.4868   2.8730   3.2756   3.6520   3.6520   3.6625
     3.6625   4.0442   4.0442   4.4136   4.4331   4.4331   4.7917   4.7917
     4.9063   5.2651   5.2945   5.2945   6.0410   6.0410   6.4147   6.4147
     7.1717   7.1717   7.1921   7.1921   7.5463   7.5463   7.5612   7.5612
     8.3302   8.3302   8.6415   8.6415   8.7514   9.3991   9.4062   9.4062
     9.4667   9.4667

          k = 0.3188 0.3188-0.5010 ( 21118 PWs)   bands (ev):

    -2.1813  -2.1813  -1.3611  -1.3611  -1.3611  -1.3611  -0.5456  -0.5455
     1.4706   1.4706   1.4706   1.4707   2.2647   2.2647   2.2698   2.2698
     2.2698   2.2698   3.0586   3.0586   3.0586   3.0587   3.8305   3.8305
     3.8305   3.8305   3.8404   3.8404   4.6052   4.6052   4.6052   4.6053
     5.0571   5.0571   5.8295   5.8295   5.8295   5.8295   6.6017   6.6017
     6.6017   6.6017   7.3491   7.3491   7.3491   7.3491   8.0904   8.0904
     8.0904   8.0904   8.8838   8.8838   8.8838   8.8838   9.3051   9.3051
     9.5467   9.5469

          k = 0.3188 0.4099 0.4099 ( 21124 PWs)   bands (ev):

    -2.2187  -1.8079  -1.8079  -1.3983  -1.3983  -0.9898  -0.9898  -0.5825
     1.4342   1.8326   1.8326   1.8345   1.8345   2.2317   2.2317   2.2336
     2.6294   2.6295   3.0170   3.0170   3.0253   3.0253   3.4119   3.4120
     3.7948   3.8048   3.8048   4.1859   4.1859   4.1904   4.1905   4.5698
     5.4102   5.4102   5.7934   5.7934   5.7960   6.5559   6.5559   6.5685
     6.9355   6.9355   6.9448   6.9448   7.6923   7.6923   7.7162   7.7162
     8.0619   8.0834   8.0834   8.8177   8.8177   8.8565   9.2192   9.2193
     9.2726   9.5156

          k = 0.3188 0.4099-0.5010 ( 21128 PWs)   bands (ev):

    -2.0318  -2.0318  -1.6216  -1.6216  -1.2125  -1.2125  -0.8046  -0.8045
     1.6163   1.6163   2.0141   2.0142   2.0161   2.0161   2.4094   2.4094
     2.8066   2.8066   2.8097   2.8097   3.1967   3.1967   3.2022   3.2022
     3.5947   3.5947   3.9729   3.9729   3.9816   3.9816   4.3619   4.3620
     5.5822   5.5822   5.9666   5.9666   6.3497   6.3497   6.3542   6.3542
     6.7327   6.7327   7.1276   7.1276   7.4866   7.4866   7.8709   7.8709
     8.2427   8.2427   8.2717   8.2717   8.6369   8.6369   9.0042   9.0042
     9.6802   9.6803

          k = 0.3188-0.5010-0.5010 ( 21120 PWs)   bands (ev):

    -1.8452  -1.8452  -1.8452  -1.8452  -1.0269  -1.0269  -1.0269  -1.0269
     1.7981   1.7982   1.7982   1.7982   2.5901   2.5901   2.5901   2.5901
     2.5901   2.5901   2.5901   2.5901   3.3811   3.3811   3.3811   3.3811
     3.3811   3.3812   3.3812   3.3812   4.1503   4.1503   4.1503   4.1503
     6.1422   6.1422   6.1422   6.1422   6.1422   6.1422   6.1422   6.1422
     6.9039   6.9039   6.9039   6.9039   7.6850   7.6850   7.6850   7.6850
     8.4236   8.4236   8.4236   8.4236   8.4236   8.4236   8.4236   8.4236
     9.8519   9.8520

          k = 0.4099 0.4099 0.4099 ( 21104 PWs)   bands (ev):

    -2.0692  -1.6588  -1.6588  -1.6588  -1.2496  -1.2496  -1.2496  -0.8416
     1.9778   1.9779   1.9779   2.3765   2.3765   2.3765   2.3765   2.3765
     2.3765   2.7736   2.7736   2.7736   3.1607   3.1607   3.1608   3.5550
     3.5550   3.5550   3.5550   3.5550   3.5550   3.9459   3.9459   3.9459
     5.9331   5.9332   5.9332   6.3208   6.3208   6.3208   7.0789   7.0789
     7.0789   7.0790   7.0790   7.0790   7.4691   7.4691   7.4691   7.4691
     7.4691   7.4691   8.2148   8.2148   8.2148   8.6093   8.6094   8.6094
     9.7925  10.3955

          k = 0.4099 0.4099-0.5010 ( 21110 PWs)   bands (ev):

    -1.8825  -1.8825  -1.4727  -1.4727  -1.4727  -1.4726  -1.0640  -1.0640
     2.1592   2.1592   2.1592   2.1592   2.5540   2.5540   2.5572   2.5572
     2.5572   2.5572   2.9506   2.9506   2.9506   2.9506   3.3402   3.3402
     3.3402   3.3402   3.3452   3.3452   3.7332   3.7332   3.7332   3.7333
     6.1088   6.1088   6.4909   6.4910   6.4910   6.4910   6.8802   6.8802
     6.8802   6.8802   7.2567   7.2567   7.2567   7.2567   7.6330   7.6330
     7.6330   7.6330   8.0246   8.0246   8.0247   8.0247   8.3959   8.3959
    10.3434  10.3434

          k = 0.4099-0.5010-0.5010 ( 21108 PWs)   bands (ev):

    -1.6961  -1.6961  -1.6961  -1.6961  -1.2868  -1.2868  -1.2868  -1.2868
     2.3403   2.3403   2.3403   2.3403   2.7344   2.7344   2.7344   2.7344
     2.7345   2.7345   2.7345   2.7345   3.1303   3.1303   3.1303   3.1303
     3.1303   3.1303   3.1303   3.1303   3.5191   3.5191   3.5192   3.5192
     6.6679   6.6679   6.6679   6.6679   6.6679   6.6679   6.6679   6.6679
     7.0475   7.0475   7.0475   7.0475   7.4378   7.4378   7.4378   7.4378
     7.8119   7.8119   7.8119   7.8119   7.8119   7.8119   7.8119   7.8119
    10.7382  10.7383

          k =-0.5010-0.5010-0.5010 ( 21008 PWs)   bands (ev):

    -1.5099  -1.5099  -1.5099  -1.5099  -1.5099  -1.5098  -1.5098  -1.5098
     2.9145   2.9145   2.9145   2.9145   2.9145   2.9145   2.9146   2.9146
     2.9146   2.9146   2.9146   2.9146   2.9146   2.9146   2.9146   2.9146
     2.9146   2.9146   2.9146   2.9146   2.9146   2.9146   2.9146   2.9146
     7.2252   7.2252   7.2252   7.2252   7.2253   7.2253   7.2253   7.2253
     7.2253   7.2253   7.2253   7.2253   7.2253   7.2253   7.2253   7.2253
     7.2253   7.2253   7.2253   7.2253   7.2253   7.2253   7.2253   7.2253
    11.4409  11.6613

     the Fermi energy is     7.9909 ev

!    total energy              =   -1264.08713937 Ry
     Harris-Foulkes estimate   =   -1264.08713938 Ry
     estimated scf accuracy    <       0.00000013 Ry

     total all-electron energy =    -15540.656161 Ry

     The total energy is the sum of the following terms:

     one-electron contribution =     101.80086821 Ry
     hartree contribution      =       0.19804692 Ry
     xc contribution           =     -83.03729832 Ry
     ewald contribution        =    -173.34721255 Ry
     one-center paw contrib.   =   -1109.69889558 Ry
     smearing contrib. (-TS)   =      -0.00264804 Ry

     convergence has been achieved in   9 iterations

     Forces acting on atoms (cartesian axes, Ry/au):

     atom    1 type  1   force =     0.00000000    0.00000000    0.00000000
     atom    2 type  1   force =     0.00000248    0.00000248    0.00000000
     atom    3 type  1   force =     0.00000248    0.00000000    0.00000248
     atom    4 type  1   force =     0.00000000    0.00000248    0.00000248
     atom    5 type  1   force =     0.00000000    0.00000000   -0.00000000
     atom    6 type  1   force =     0.00000095    0.00000095    0.00000000
     atom    7 type  1   force =     0.00000248   -0.00000000   -0.00000248
     atom    8 type  1   force =    -0.00000000    0.00000248   -0.00000248
     atom    9 type  1   force =     0.00000000    0.00000000    0.00000000
     atom   10 type  1   force =     0.00000248   -0.00000248    0.00000000
     atom   11 type  1   force =     0.00000095    0.00000000    0.00000095
     atom   12 type  1   force =     0.00000000   -0.00000248    0.00000248
     atom   13 type  1   force =     0.00000000    0.00000000    0.00000000
     atom   14 type  1   force =     0.00000095   -0.00000095    0.00000000
     atom   15 type  1   force =     0.00000095    0.00000000   -0.00000095
     atom   16 type  1   force =     0.00000000   -0.00000248   -0.00000248
     atom   17 type  1   force =     0.00000000   -0.00000000    0.00000000
     atom   18 type  1   force =    -0.00000248    0.00000248   -0.00000000
     atom   19 type  1   force =    -0.00000248   -0.00000000    0.00000248
     atom   20 type  1   force =    -0.00000000    0.00000095    0.00000095
     atom   21 type  1   force =     0.00000000    0.00000000   -0.00000000
     atom   22 type  1   force =    -0.00000095    0.00000095    0.00000000
     atom   23 type  1   force =    -0.00000248    0.00000000   -0.00000248
     atom   24 type  1   force =    -0.00000000    0.00000095   -0.00000095
     atom   25 type  1   force =     0.00000000   -0.00000000    0.00000000
     atom   26 type  1   force =    -0.00000248   -0.00000248    0.00000000
     atom   27 type  1   force =    -0.00000095   -0.00000000    0.00000095
     atom   28 type  1   force =    -0.00000000   -0.00000095    0.00000095
     atom   29 type  1   force =     0.00000000    0.00000000    0.00000000
     atom   30 type  1   force =    -0.00000095   -0.00000095   -0.00000000
     atom   31 type  1   force =    -0.00000095    0.00000000   -0.00000095
     atom   32 type  1   force =     0.00000000   -0.00000095   -0.00000095

     Total force =     0.000013     Total SCF correction =     0.000056
     SCF correction compared to forces is large: reduce conv_thr to get better values


     Computing stress (Cartesian axis) and pressure

          total   stress  (Ry/bohr**3)                   (kbar)     P=    4.84
   0.00003292   0.00000000   0.00000000          4.84      0.00      0.00
   0.00000000   0.00003292   0.00000000          0.00      4.84      0.00
   0.00000000   0.00000000   0.00003292          0.00      0.00      4.84


     Writing output data file TmagaurDhhdbzzkr.save/
 
     init_run     :      6.47s CPU      6.67s WALL (       1 calls)
     electrons    :    103.25s CPU    105.20s WALL (       1 calls)
     forces       :      1.17s CPU      1.23s WALL (       1 calls)
     stress       :      5.90s CPU      5.93s WALL (       1 calls)

     Called by init_run:
     wfcinit      :      6.04s CPU      6.20s WALL (       1 calls)
     potinit      :      0.09s CPU      0.10s WALL (       1 calls)
     hinit0       :      0.22s CPU      0.25s WALL (       1 calls)

     Called by electrons:
     c_bands      :     90.34s CPU     91.90s WALL (      10 calls)
     sum_band     :     12.17s CPU     12.48s WALL (      10 calls)
     v_of_rho     :      0.12s CPU      0.13s WALL (      10 calls)
     newd         :      0.08s CPU      0.12s WALL (      10 calls)
     PAW_pot      :      0.57s CPU      0.59s WALL (      10 calls)
     mix_rho      :      0.02s CPU      0.03s WALL (      10 calls)

     Called by c_bands:
     init_us_2    :      1.88s CPU      1.91s WALL (    1288 calls)
     cegterg      :     85.24s CPU     86.75s WALL (     560 calls)

     Called by sum_band:
     sum_band:bec :      0.06s CPU      0.06s WALL (     560 calls)
     addusdens    :      0.05s CPU      0.10s WALL (      10 calls)

     Called by *egterg:
     h_psi        :     61.83s CPU     63.10s WALL (    2296 calls)
     s_psi        :      5.00s CPU      5.03s WALL (    2296 calls)
     g_psi        :      0.23s CPU      0.23s WALL (    1680 calls)
     cdiaghg      :     12.48s CPU     12.54s WALL (    2184 calls)

     Called by h_psi:
     h_psi:pot    :     61.45s CPU     62.72s WALL (    2296 calls)
     h_psi:calbec :      5.12s CPU      5.46s WALL (    2296 calls)
     vloc_psi     :     51.22s CPU     52.11s WALL (    2296 calls)
     add_vuspsi   :      5.10s CPU      5.13s WALL (    2296 calls)

     General routines
     calbec       :      8.55s CPU      9.06s WALL (    3136 calls)
     fft          :      0.30s CPU      0.34s WALL (     137 calls)
     ffts         :      0.01s CPU      0.01s WALL (      10 calls)
     fftw         :     56.19s CPU     57.14s WALL (  220800 calls)
 
     Parallel routines
     fft_scatt_xy :      5.20s CPU      5.29s WALL (  220947 calls)
     fft_scatt_yz :     33.42s CPU     34.03s WALL (  220947 calls)
 
     PWSCF        :  1m58.34s CPU     2m 4.18s WALL

 
   This run was terminated on:   3:18: 7  25Mar2020            

=------------------------------------------------------------------------------=
   JOB DONE.
=------------------------------------------------------------------------------=
