
     Program PWSCF v.6.3 starts on 25Mar2020 at  3:14: 6 

     This program is part of the open-source Quantum ESPRESSO suite
     for quantum simulation of materials; please cite
         "P. Giannozzi et al., J. Phys.:Condens. Matter 21 395502 (2009);
         "P. Giannozzi et al., J. Phys.:Condens. Matter 29 465901 (2017);
          URL http://www.quantum-espresso.org", 
     in publications or presentations arising from this work. More details at
     http://www.quantum-espresso.org/quote

     Parallel version (MPI & OpenMP), running on      20 processor cores
     Number of MPI processes:                20
     Threads/MPI process:                     1

     MPI processes distributed on     1 nodes
     R & G space division:  proc/nbgrp/npool/nimage =      20
     Reading input from /rds/homes/b/bxp912/jobs/20200324_al_eos_e/wd/pwscf_eos/eos_3.in
Warning: card &IONS ignored
Warning: card ION_DYNAMICS = 'BFGS', ignored
Warning: card / ignored
Warning: card &CELL ignored
Warning: card CELL_DYNAMICS = 'BFGS', ignored
Warning: card CELL_FACTOR = 2.0, ignored
Warning: card PRESS = 0.0, ignored
Warning: card / ignored

     Current dimensions of program PWSCF are:
     Max number of different atomic species (ntypx) = 10
     Max number of k-points (npk) =  40000
     Max angular momentum in pseudopotentials (lmaxx) =  3
     Message from routine read_upf::
     Pseudo file /rds/homes/b/bxp912/pp/Al.pbe-nl-kjpaw_psl.1.0.0.UPF has been successfully fixed on the fly.
To avoid this message in the future you can permanently fix 
 your pseudo files following instructions given in: 
https://gitlab.com/QEF/q-e/blob/master/upftools/how_to_fix_upf.md
               file Al.pbe-nl-kjpaw_psl.1.0.0.UPF: wavefunction(s)  3S 3P renormalized

     Subspace diagonalization in iterative solution of the eigenvalue problem:
     a serial algorithm will be used

     Found symmetry operation: I + (  0.2500  0.2500  0.0000)
     This is a supercell, fractional translations are disabled
 
     Parallelization info
     --------------------
     sticks:   dense  smooth     PW     G-vecs:    dense   smooth      PW
     Min         185     185     50                 8427     8427    1214
     Max         186     186     51                 8430     8430    1217
     Sum        3705    3705   1005               168573   168573   24303
 


     bravais-lattice index     =            0
     lattice parameter (alat)  =      15.2652  a.u.
     unit-cell volume          =    3525.2469 (a.u.)^3
     number of atoms/cell      =           32
     number of atomic types    =            1
     number of electrons       =        96.00
     number of Kohn-Sham states=           58
     kinetic-energy cutoff     =      50.0000  Ry
     charge density cutoff     =     200.0000  Ry
     convergence threshold     =      1.0E-06
     mixing beta               =       0.1000
     number of iterations used =           10  plain     mixing
     Exchange-correlation      = SLA PW PBX PBC ( 1  4  3  4 0 0)

     celldm(1)=  15.265160  celldm(2)=   0.000000  celldm(3)=   0.000000
     celldm(4)=   0.000000  celldm(5)=   0.000000  celldm(6)=   0.000000

     crystal axes: (cart. coord. in units of alat)
               a(1) = (   0.997000   0.000000   0.000000 )  
               a(2) = (   0.000000   0.997000   0.000000 )  
               a(3) = (   0.000000   0.000000   0.997000 )  

     reciprocal axes: (cart. coord. in units 2 pi/alat)
               b(1) = (  1.003009  0.000000  0.000000 )  
               b(2) = (  0.000000  1.003009  0.000000 )  
               b(3) = (  0.000000  0.000000  1.003009 )  


     PseudoPot. # 1 for Al read from file:
     /rds/homes/b/bxp912/pp/Al.pbe-nl-kjpaw_psl.1.0.0.UPF
     MD5 check sum: 339dbea23cf3ab9a065ad45c0f9085d7
     Pseudo is Projector augmented-wave + core cor, Zval =  3.0
     Generated using "atomic" code by A. Dal Corso v.5.1
     Shape of augmentation charge: PSQ
     Using radial grid of 1135 points,  4 beta functions with: 
                l(1) =   0
                l(2) =   0
                l(3) =   1
                l(4) =   1
     Q(r) pseudized with 0 coefficients 


     atomic species   valence    mass     pseudopotential
        Al             3.00    26.98200     Al( 1.00)

     48 Sym. Ops., with inversion, found



   Cartesian axes

     site n.     atom                  positions (alat units)
         1           Al  tau(   1) = (   0.0000000   0.0000000   0.0000000  )
         2           Al  tau(   2) = (   0.2492500   0.2492500   0.0000000  )
         3           Al  tau(   3) = (   0.2492500   0.0000000   0.2492500  )
         4           Al  tau(   4) = (   0.0000000   0.2492500   0.2492500  )
         5           Al  tau(   5) = (   0.0000000   0.0000000   0.4985000  )
         6           Al  tau(   6) = (   0.2492500   0.2492500   0.4985000  )
         7           Al  tau(   7) = (   0.2492500   0.0000000   0.7477500  )
         8           Al  tau(   8) = (   0.0000000   0.2492500   0.7477500  )
         9           Al  tau(   9) = (   0.0000000   0.4985000   0.0000000  )
        10           Al  tau(  10) = (   0.2492500   0.7477500   0.0000000  )
        11           Al  tau(  11) = (   0.2492500   0.4985000   0.2492500  )
        12           Al  tau(  12) = (   0.0000000   0.7477500   0.2492500  )
        13           Al  tau(  13) = (   0.0000000   0.4985000   0.4985000  )
        14           Al  tau(  14) = (   0.2492500   0.7477500   0.4985000  )
        15           Al  tau(  15) = (   0.2492500   0.4985000   0.7477500  )
        16           Al  tau(  16) = (   0.0000000   0.7477500   0.7477500  )
        17           Al  tau(  17) = (   0.4985000   0.0000000   0.0000000  )
        18           Al  tau(  18) = (   0.7477500   0.2492500   0.0000000  )
        19           Al  tau(  19) = (   0.7477500   0.0000000   0.2492500  )
        20           Al  tau(  20) = (   0.4985000   0.2492500   0.2492500  )
        21           Al  tau(  21) = (   0.4985000   0.0000000   0.4985000  )
        22           Al  tau(  22) = (   0.7477500   0.2492500   0.4985000  )
        23           Al  tau(  23) = (   0.7477500   0.0000000   0.7477500  )
        24           Al  tau(  24) = (   0.4985000   0.2492500   0.7477500  )
        25           Al  tau(  25) = (   0.4985000   0.4985000   0.0000000  )
        26           Al  tau(  26) = (   0.7477500   0.7477500   0.0000000  )
        27           Al  tau(  27) = (   0.7477500   0.4985000   0.2492500  )
        28           Al  tau(  28) = (   0.4985000   0.7477500   0.2492500  )
        29           Al  tau(  29) = (   0.4985000   0.4985000   0.4985000  )
        30           Al  tau(  30) = (   0.7477500   0.7477500   0.4985000  )
        31           Al  tau(  31) = (   0.7477500   0.4985000   0.7477500  )
        32           Al  tau(  32) = (   0.4985000   0.7477500   0.7477500  )

     number of k points=    56  Marzari-Vanderbilt smearing, width (Ry)=  0.0400
                       cart. coord. in units 2pi/alat
        k(    1) = (   0.0455913   0.0455913   0.0455913), wk =   0.0120210
        k(    2) = (   0.0455913   0.0455913   0.1367740), wk =   0.0360631
        k(    3) = (   0.0455913   0.0455913   0.2279566), wk =   0.0360631
        k(    4) = (   0.0455913   0.0455913   0.3191392), wk =   0.0360631
        k(    5) = (   0.0455913   0.0455913   0.4103219), wk =   0.0360631
        k(    6) = (   0.0455913   0.0455913  -0.5015045), wk =   0.0180316
        k(    7) = (   0.0455913   0.1367740   0.1367740), wk =   0.0360631
        k(    8) = (   0.0455913   0.1367740   0.2279566), wk =   0.0721262
        k(    9) = (   0.0455913   0.1367740   0.3191392), wk =   0.0721262
        k(   10) = (   0.0455913   0.1367740   0.4103219), wk =   0.0721262
        k(   11) = (   0.0455913   0.1367740  -0.5015045), wk =   0.0360631
        k(   12) = (   0.0455913   0.2279566   0.2279566), wk =   0.0360631
        k(   13) = (   0.0455913   0.2279566   0.3191392), wk =   0.0721262
        k(   14) = (   0.0455913   0.2279566   0.4103219), wk =   0.0721262
        k(   15) = (   0.0455913   0.2279566  -0.5015045), wk =   0.0360631
        k(   16) = (   0.0455913   0.3191392   0.3191392), wk =   0.0360631
        k(   17) = (   0.0455913   0.3191392   0.4103219), wk =   0.0721262
        k(   18) = (   0.0455913   0.3191392  -0.5015045), wk =   0.0360631
        k(   19) = (   0.0455913   0.4103219   0.4103219), wk =   0.0360631
        k(   20) = (   0.0455913   0.4103219  -0.5015045), wk =   0.0360631
        k(   21) = (   0.0455913  -0.5015045  -0.5015045), wk =   0.0090158
        k(   22) = (   0.1367740   0.1367740   0.1367740), wk =   0.0120210
        k(   23) = (   0.1367740   0.1367740   0.2279566), wk =   0.0360631
        k(   24) = (   0.1367740   0.1367740   0.3191392), wk =   0.0360631
        k(   25) = (   0.1367740   0.1367740   0.4103219), wk =   0.0360631
        k(   26) = (   0.1367740   0.1367740  -0.5015045), wk =   0.0180316
        k(   27) = (   0.1367740   0.2279566   0.2279566), wk =   0.0360631
        k(   28) = (   0.1367740   0.2279566   0.3191392), wk =   0.0721262
        k(   29) = (   0.1367740   0.2279566   0.4103219), wk =   0.0721262
        k(   30) = (   0.1367740   0.2279566  -0.5015045), wk =   0.0360631
        k(   31) = (   0.1367740   0.3191392   0.3191392), wk =   0.0360631
        k(   32) = (   0.1367740   0.3191392   0.4103219), wk =   0.0721262
        k(   33) = (   0.1367740   0.3191392  -0.5015045), wk =   0.0360631
        k(   34) = (   0.1367740   0.4103219   0.4103219), wk =   0.0360631
        k(   35) = (   0.1367740   0.4103219  -0.5015045), wk =   0.0360631
        k(   36) = (   0.1367740  -0.5015045  -0.5015045), wk =   0.0090158
        k(   37) = (   0.2279566   0.2279566   0.2279566), wk =   0.0120210
        k(   38) = (   0.2279566   0.2279566   0.3191392), wk =   0.0360631
        k(   39) = (   0.2279566   0.2279566   0.4103219), wk =   0.0360631
        k(   40) = (   0.2279566   0.2279566  -0.5015045), wk =   0.0180316
        k(   41) = (   0.2279566   0.3191392   0.3191392), wk =   0.0360631
        k(   42) = (   0.2279566   0.3191392   0.4103219), wk =   0.0721262
        k(   43) = (   0.2279566   0.3191392  -0.5015045), wk =   0.0360631
        k(   44) = (   0.2279566   0.4103219   0.4103219), wk =   0.0360631
        k(   45) = (   0.2279566   0.4103219  -0.5015045), wk =   0.0360631
        k(   46) = (   0.2279566  -0.5015045  -0.5015045), wk =   0.0090158
        k(   47) = (   0.3191392   0.3191392   0.3191392), wk =   0.0120210
        k(   48) = (   0.3191392   0.3191392   0.4103219), wk =   0.0360631
        k(   49) = (   0.3191392   0.3191392  -0.5015045), wk =   0.0180316
        k(   50) = (   0.3191392   0.4103219   0.4103219), wk =   0.0360631
        k(   51) = (   0.3191392   0.4103219  -0.5015045), wk =   0.0360631
        k(   52) = (   0.3191392  -0.5015045  -0.5015045), wk =   0.0090158
        k(   53) = (   0.4103219   0.4103219   0.4103219), wk =   0.0120210
        k(   54) = (   0.4103219   0.4103219  -0.5015045), wk =   0.0180316
        k(   55) = (   0.4103219  -0.5015045  -0.5015045), wk =   0.0090158
        k(   56) = (  -0.5015045  -0.5015045  -0.5015045), wk =   0.0015026

     Dense  grid:   168573 G-vectors     FFT dimensions: (  72,  72,  72)

     Estimated max dynamical RAM per process >      81.12 MB

     Estimated total dynamical RAM >       1.58 GB

     Initial potential from superposition of free atoms

     starting charge   95.92671, renormalised to   96.00000
     Starting wfcs are  128 randomized atomic wfcs
     Checking if some PAW data can be deallocated... 

     total cpu time spent up to now is        7.2 secs

     Self-consistent Calculation

     iteration #  1     ecut=    50.00 Ry     beta= 0.10
     Davidson diagonalization with overlap
     ethr =  1.00E-02,  avg # of iterations =  3.1

     Threshold (ethr) on eigenvalues was too large:
     Diagonalizing with lowered threshold

     Davidson diagonalization with overlap
     ethr =  1.90E-04,  avg # of iterations =  4.5

     total cpu time spent up to now is       31.6 secs

     total energy              =   -1264.12369979 Ry
     Harris-Foulkes estimate   =   -1264.13306533 Ry
     estimated scf accuracy    <       0.17927306 Ry

     iteration #  2     ecut=    50.00 Ry     beta= 0.10
     Davidson diagonalization with overlap
     ethr =  1.87E-04,  avg # of iterations =  1.0

     total cpu time spent up to now is       39.9 secs

     total energy              =   -1264.08327615 Ry
     Harris-Foulkes estimate   =   -1264.12447995 Ry
     estimated scf accuracy    <       0.14398512 Ry

     iteration #  3     ecut=    50.00 Ry     beta= 0.10
     Davidson diagonalization with overlap
     ethr =  1.50E-04,  avg # of iterations =  1.0

     total cpu time spent up to now is       47.3 secs

     total energy              =   -1264.08593934 Ry
     Harris-Foulkes estimate   =   -1264.08594139 Ry
     estimated scf accuracy    <       0.00023743 Ry

     iteration #  4     ecut=    50.00 Ry     beta= 0.10
     Davidson diagonalization with overlap
     c_bands:  1 eigenvalues not converged
     c_bands:  1 eigenvalues not converged
     c_bands:  1 eigenvalues not converged
     c_bands:  2 eigenvalues not converged
     c_bands:  1 eigenvalues not converged
     ethr =  2.47E-07,  avg # of iterations =  7.4

     total cpu time spent up to now is       64.8 secs

     total energy              =   -1264.08703469 Ry
     Harris-Foulkes estimate   =   -1264.08677749 Ry
     estimated scf accuracy    <       0.00021299 Ry

     iteration #  5     ecut=    50.00 Ry     beta= 0.10
     Davidson diagonalization with overlap
     ethr =  2.22E-07,  avg # of iterations =  1.5

     total cpu time spent up to now is       72.5 secs

     total energy              =   -1264.08667165 Ry
     Harris-Foulkes estimate   =   -1264.08704254 Ry
     estimated scf accuracy    <       0.00080491 Ry

     iteration #  6     ecut=    50.00 Ry     beta= 0.10
     Davidson diagonalization with overlap
     ethr =  2.22E-07,  avg # of iterations =  2.0

     total cpu time spent up to now is       81.8 secs

     total energy              =   -1264.08669837 Ry
     Harris-Foulkes estimate   =   -1264.08669827 Ry
     estimated scf accuracy    <       0.00000124 Ry

     iteration #  7     ecut=    50.00 Ry     beta= 0.10
     Davidson diagonalization with overlap
     ethr =  1.29E-09,  avg # of iterations =  5.5

     total cpu time spent up to now is       97.2 secs

     total energy              =   -1264.08670063 Ry
     Harris-Foulkes estimate   =   -1264.08670104 Ry
     estimated scf accuracy    <       0.00000147 Ry

     iteration #  8     ecut=    50.00 Ry     beta= 0.10
     Davidson diagonalization with overlap
     ethr =  1.29E-09,  avg # of iterations =  1.1

     total cpu time spent up to now is      104.6 secs

     End of self-consistent calculation

          k = 0.0456 0.0456 0.0456 ( 21025 PWs)   bands (ev):

    -3.1839  -1.1239  -1.1239  -1.1239  -0.7156  -0.7156  -0.7156   0.9068
     0.9068   0.9068   1.3093   1.3093   1.3093   1.3093   1.3093   1.3093
     1.7106   1.7106   1.7106   2.9031   3.2786   3.2787   3.2787   3.7455
     3.7455   3.7457   4.1193   4.9686   4.9686   4.9686   6.5347   6.5347
     6.5347   6.8740   6.8740   6.8740   6.8740   6.8740   6.8740   7.2566
     7.2566   7.2566   7.2567   7.2567   7.2567   8.2760   8.2760   8.2760
     8.2761   8.2761   8.2761   8.7942   8.7942   8.7942   9.1765   9.1765
     9.1766   9.1768

          k = 0.0456 0.0456 0.1368 ( 21027 PWs)   bands (ev):

    -3.1462  -1.4962  -1.0867  -1.0867  -0.6785  -0.6785  -0.2716   0.5398
     0.5398   0.9433   0.9433   0.9435   1.3459   1.3459   1.7469   1.7469
     1.7471   2.1470   2.1470   2.5452   2.9390   2.9390   3.3141   3.7819
     4.1551   4.1552   4.4193   4.5452   5.0034   5.0034   6.3455   6.3455
     6.5295   6.5295   6.5708   6.5708   6.7128   6.7128   6.9275   6.9275
     7.1492   7.2969   7.2969   7.6551   7.6551   8.0827   8.0828   8.2952
     8.4465   8.4465   8.4751   8.4751   8.6639   8.6639   8.6796   8.6796
     8.8289   8.8289

          k = 0.0456 0.0456 0.2280 ( 21046 PWs)   bands (ev):

    -3.0708  -1.8321  -1.0124  -1.0124  -0.6044  -0.6044   0.2075   0.2086
     0.2086   0.6131   0.6131   1.0168   1.4190   1.4190   1.8200   2.2191
     2.2191   2.2200   2.6173   2.6173   2.6177   2.6177   3.0108   3.7611
     4.2267   4.6164   4.6164   5.0082   5.0728   5.0728   5.7075   5.7075
     6.0892   6.0892   6.2178   6.2178   6.6429   6.6429   6.9880   6.9880
     7.3677   7.3677   7.6703   7.7574   7.7574   7.9375   8.0564   8.0564
     8.1336   8.1336   8.1642   8.1642   8.4421   8.5159   8.5159   8.6200
     8.6200   8.9379

          k = 0.0456 0.0456 0.3191 ( 21027 PWs)   bands (ev):

    -2.9577  -2.1314  -0.9010  -0.9009  -0.4933  -0.4933  -0.0864  -0.0864
     0.3189   0.3189   0.7213   1.1267   1.5285   1.5285   1.9292   1.9296
     2.3286   2.3286   2.7253   2.7253   2.7255   3.1009   3.1223   3.1223
     4.7228   5.0632   5.0632   5.1142   5.1142   5.1770   5.1770   5.4501
     5.4501   5.5058   5.9405   5.9405   6.7506   6.7506   7.0337   7.0913
     7.0913   7.4214   7.4215   7.4724   7.4724   7.5141   7.5141   7.8087
     7.8555   7.8555   8.2378   8.2378   8.6309   8.6309   8.7566   8.7566
     8.7930   9.1160

          k = 0.0456 0.0456 0.4103 ( 21050 PWs)   bands (ev):

    -2.8071  -2.3938  -0.7525  -0.7525  -0.3453  -0.3453  -0.3451  -0.3451
     0.0610   0.0610   1.2690   1.2730   1.6744   1.6745   1.6747   2.0746
     2.0748   2.0748   2.4612   2.4733   3.2645   3.2645   3.6597   3.6597
     4.4364   4.4364   4.8268   4.8268   5.2546   5.3158   5.3158   5.6457
     5.6458   5.6976   5.6976   6.0366   6.4135   6.8026   6.8026   6.8933
     6.8933   7.1912   7.2300   7.2300   7.2783   7.2783   7.6117   7.6117
     7.6122   7.6122   7.9943   7.9943   8.9134   8.9134   9.1478   9.1478
     9.2874   9.2875

          k = 0.0456 0.0456-0.5015 ( 21070 PWs)   bands (ev):

    -2.6191  -2.6191  -0.5672  -0.5672  -0.5672  -0.5671  -0.1605  -0.1605
    -0.1605  -0.1604   1.4558   1.4558   1.8495   1.8495   1.8566   1.8566
     1.8566   1.8566   2.2561   2.2561   3.8356   3.8356   3.8356   3.8356
     4.2286   4.2286   4.2286   4.2286   5.4894   5.4894   5.4894   5.4894
     5.8191   5.8191   6.2093   6.2093   6.2093   6.2094   6.5991   6.5992
     7.0698   7.0698   7.0699   7.0699   7.4036   7.4036   7.4036   7.4037
     7.7856   7.7856   7.7856   7.7857   9.0994   9.0994   9.0994   9.0994
     9.4795   9.4795

          k = 0.0456 0.1368 0.1368 ( 21034 PWs)   bands (ev):

    -3.1085  -1.4589  -1.4589  -1.0495  -0.6414  -0.2347  -0.2347   0.1718
     0.5765   0.5765   0.9800   0.9800   1.3821   1.3821   1.7833   1.7833
     2.1833   2.1833   2.1838   2.5813   2.5818   3.3495   3.3495   3.8182
     3.8183   4.4546   4.4546   4.5809   4.9728   5.0381   5.9991   5.9991
     6.3629   6.3629   6.5613   6.5613   6.6068   6.7988   6.7989   7.1341
     7.1341   7.1846   7.1846   7.7084   7.7084   7.9454   7.9454   8.0989
     8.2018   8.2018   8.3300   8.3300   8.5999   8.5999   8.9715   8.9716
     9.0982   9.0983

          k = 0.0456 0.1368 0.2280 ( 21041 PWs)   bands (ev):

    -3.0331  -1.7947  -1.3844  -0.9752  -0.5673  -0.1608  -0.1602   0.2444
     0.2455   0.6499   0.6500   1.0529   1.0533   1.8556   1.8562   1.8569
     2.2554   2.2559   2.2561   2.6539   3.0465   3.0510   3.4204   3.7968
     3.8906   4.2626   4.5252   5.0437   5.1075   5.3570   5.4356   5.6851
     5.7380   6.0977   6.2519   6.4819   6.5026   6.6610   6.6785   6.8604
     7.2553   7.3186   7.4999   7.6303   7.7051   7.7825   7.7861   7.9723
     7.9924   8.0150   8.1305   8.3009   8.4033   8.4768   8.8620   8.9330
     9.1462   9.1723

          k = 0.0456 0.1368 0.3191 ( 21024 PWs)   bands (ev):

    -2.9201  -2.0939  -1.2726  -0.8638  -0.4563  -0.4560  -0.0500  -0.0495
     0.3557   0.7580   0.7597   0.7602   1.1632   1.5654   1.9654   1.9658
     2.3632   2.3647   2.7614   2.7614   3.1368   3.1542   3.1582   3.5537
     4.3695   4.6310   4.7093   4.7585   5.0968   5.2117   5.4049   5.4801
     5.5412   5.8674   5.9324   5.9749   6.5850   6.6807   6.7461   6.7856
     6.9640   7.0688   7.3501   7.3609   7.5062   7.5080   7.7348   7.8435
     7.8884   8.0990   8.1993   8.2302   8.4192   8.6548   8.6727   8.8272
     9.2173   9.3238

          k = 0.0456 0.1368 0.4103 ( 21031 PWs)   bands (ev):

    -2.7695  -2.3563  -1.1238  -0.7154  -0.7153  -0.3083  -0.3081   0.0975
     0.0979   0.5025   0.9070   1.3056   1.3095   1.3098   1.7110   2.1108
     2.4974   2.5093   2.5095   2.9040   2.9056   3.3004   3.6953   4.0799
     4.0890   4.4713   4.7720   4.8605   4.8995   5.1592   5.2498   5.2902
     5.3505   5.7322   6.0594   6.0718   6.4487   6.4621   6.7211   6.8834
     6.9271   7.1038   7.1049   7.2262   7.2648   7.3021   7.4894   7.5007
     7.6142   7.8760   8.0281   8.4112   8.5680   8.6793   8.9666   9.1841
     9.4845   9.6812

          k = 0.0456 0.1368-0.5015 ( 21064 PWs)   bands (ev):

    -2.5815  -2.5815  -0.9380  -0.9380  -0.5302  -0.5301  -0.1235  -0.1235
     0.2817   0.2818   1.0902   1.0902   1.4922   1.4922   1.8859   1.8859
     2.2922   2.2922   2.6900   2.6900   3.4769   3.4769   3.8711   3.8711
     4.2636   4.2636   4.6552   4.6552   4.9481   4.9481   5.4641   5.4641
     5.5240   5.5241   5.8545   5.8545   6.6342   6.6342   6.8950   6.8951
     7.0234   7.0234   7.0565   7.0566   7.1010   7.1010   7.2790   7.2791
     7.6733   7.6733   8.2024   8.2024   8.7501   8.7502   9.2213   9.2213
     9.6711   9.6714

          k = 0.0456 0.2280 0.2280 ( 21034 PWs)   bands (ev):

    -2.9577  -1.7200  -1.7200  -0.9009  -0.4933  -0.4930   0.3180   0.3180
     0.3191   0.3191   0.7233   0.7233   1.5275   1.5275   1.5290   1.9295
     2.3279   2.3280   2.7261   2.7261   3.4910   3.4910   3.5183   3.8682
     3.8682   3.9632   3.9633   5.0399   5.0399   5.1769   5.5062   5.7814
     5.7815   5.8976   6.2558   6.2559   6.3181   6.3181   6.7496   6.9428
     6.9428   7.0019   7.0019   7.3885   7.3885   7.4733   8.0182   8.0183
     8.0417   8.0417   8.2299   8.2299   8.9310   8.9310   9.0840   9.0840
     9.1835   9.3158

          k = 0.0456 0.2280 0.3191 ( 21038 PWs)   bands (ev):

    -2.8448  -2.0191  -1.6080  -0.7896  -0.7895  -0.3823   0.0243   0.4284
     0.4293   0.4296   0.8314   0.8334   1.2353   1.2367   1.6382   2.0364
     2.4367   2.8335   2.8343   3.2088   3.2255   3.2300   3.5973   3.9752
     4.0189   4.0713   4.3895   4.4413   4.7569   5.1617   5.2811   5.5201
     5.9822   6.0027   6.0435   6.2900   6.3385   6.3628   6.3933   6.4585
     6.7203   6.7510   6.8551   7.1069   7.1954   7.3124   7.8553   8.1157
     8.1452   8.2994   8.3385   8.6819   8.6854   8.8951   8.8988   8.9138
     9.1064   9.4186

          k = 0.0456 0.2280 0.4103 ( 21044 PWs)   bands (ev):

    -2.6943  -2.2813  -1.4589  -1.0494  -0.6413  -0.2344  -0.2342   0.1716
     0.5754   0.5767   0.9790   0.9801   0.9804   1.3786   1.3827   2.5698
     2.5786   2.5814   2.9772   2.9782   3.3688   3.3720   3.7579   3.7662
     4.1177   4.5087   4.5405   4.5515   4.5829   4.9255   4.9708   5.4199
     5.7028   5.7407   5.8013   6.0940   6.1300   6.4742   6.4748   6.5322
     6.5729   6.8604   6.9217   6.9524   6.9933   7.3261   7.6836   8.0709
     8.1152   8.2561   8.2818   8.4791   8.6393   8.6489   8.8628   9.1924
     9.2602   9.7919

          k = 0.0456 0.2280-0.5015 ( 21030 PWs)   bands (ev):

    -2.5064  -2.5064  -1.2726  -1.2726  -0.4561  -0.4561  -0.0497  -0.0497
     0.7590   0.7590   0.7603   0.7603   1.1632   1.1633   1.9586   1.9586
     2.7617   2.7618   3.1531   3.1531   3.1571   3.1571   3.9419   3.9419
     4.2956   4.2956   4.3330   4.3330   5.1141   5.1141   5.1454   5.1454
     5.5351   5.5351   5.5933   5.5933   6.2645   6.2646   6.6495   6.6495
     6.7446   6.7446   7.0932   7.0932   7.1585   7.1586   7.4817   7.4817
     8.4343   8.4344   8.4490   8.4490   8.6225   8.6225   8.6537   8.6538
     9.8080   9.8080

          k = 0.0456 0.3191 0.3191 ( 21046 PWs)   bands (ev):

    -2.7319  -1.9069  -1.9069  -1.0866  -0.6783  -0.2713   0.1350   0.1350
     0.5397   0.5397   0.9413   0.9413   0.9438   1.3462   1.7452   1.7452
     2.9416   2.9416   3.3165   3.3165   3.3373   3.3373   3.7028   3.7029
     4.1043   4.1043   4.1800   4.1801   4.5168   5.2383   5.2383   5.3851
     5.7272   5.7273   6.0804   6.0804   6.1444   6.1444   6.4684   6.4684
     6.4980   6.7886   6.7886   6.8877   6.9177   6.9572   7.8622   7.8622
     8.6147   8.7886   8.7886   8.8209   8.8209   8.9959   8.9960   9.1739
     9.1739   9.1760

          k = 0.0456 0.3191 0.4103 ( 21058 PWs)   bands (ev):

    -2.5815  -2.1689  -1.7574  -1.3471  -0.5301  -0.1235  -0.1233   0.2821
     0.2824   0.6867   0.6869   1.0878   1.0901   1.4881   1.4899   2.2887
     2.6782   3.0853   3.4601   3.4709   3.4753   3.4792   3.4795   3.8446
     3.8542   3.8719   4.3231   4.6413   4.6904   5.0013   5.0458   5.4584
     5.4820   5.5239   5.8346   5.8400   5.8469   5.9046   6.1578   6.2215
     6.3224   6.6752   7.0261   7.0864   7.1793   7.4148   7.7430   7.9831
     8.1745   8.3661   8.5610   8.5805   8.9641   9.1277   9.3063   9.3103
     9.3489   9.5239

          k = 0.0456 0.3191-0.5015 ( 21050 PWs)   bands (ev):

    -2.3938  -2.3938  -1.5708  -1.5707  -0.3451  -0.3451   0.0610   0.0610
     0.4664   0.4664   0.8702   0.8702   1.2707   1.2708   2.0677   2.0677
     2.8645   2.8645   3.2640   3.2640   3.6394   3.6394   3.6543   3.6543
     4.0473   4.0473   4.4341   4.4342   4.8656   4.8657   5.2522   5.2522
     5.6023   5.6023   5.6282   5.6282   5.6971   5.6971   6.0111   6.0111
     6.4689   6.4690   7.2179   7.2179   7.5856   7.5856   7.9733   7.9733
     8.0442   8.0442   8.1545   8.1546   9.1395   9.1395   9.2835   9.2836
     9.9176   9.9184

          k = 0.0456 0.4103 0.4103 ( 21065 PWs)   bands (ev):

    -2.4313  -2.0191  -2.0191  -1.6080  -0.3821   0.0241   0.0243   0.0243
     0.4294   0.4294   0.4296   0.8335   1.6340   1.6340   2.0345   2.0345
     2.8227   2.8227   3.2192   3.2192   3.6211   3.6211   3.9846   3.9847
     4.0098   4.0098   4.4674   4.4675   4.7542   4.7543   5.2155   5.2155
     5.2456   5.2457   5.5686   5.6004   5.6004   5.6624   6.0402   6.0402
     6.4343   6.6924   6.6924   7.1818   7.5527   7.7635   7.7635   7.9404
     8.0183   8.1203   8.6978   8.6978   9.0835   9.0835   9.4814   9.4814
     9.8686   9.8693

          k = 0.0456 0.4103-0.5015 ( 21070 PWs)   bands (ev):

    -2.2438  -2.2438  -1.8321  -1.8321  -0.1972  -0.1972   0.2085   0.2085
     0.2087   0.2087   0.6132   0.6132   1.8162   1.8162   2.2129   2.2129
     2.6115   2.6115   3.0030   3.0031   3.7954   3.7955   4.1615   4.1616
     4.1847   4.1847   4.5476   4.5476   4.6443   4.6444   5.0085   5.0085
     5.0324   5.0324   5.3933   5.3933   5.8351   5.8351   6.0909   6.0909
     6.2541   6.2541   7.1116   7.1116   7.6829   7.6830   7.9151   7.9152
     8.1106   8.1106   8.4973   8.4973   9.2525   9.2525   9.6372   9.6373
     9.6592   9.6592

          k = 0.0456-0.5015-0.5015 ( 21068 PWs)   bands (ev):

    -2.0566  -2.0565  -2.0565  -2.0565  -0.0126  -0.0126  -0.0126  -0.0125
     0.3926   0.3926   0.3926   0.3926   2.3942   2.3942   2.3942   2.3942
     2.3942   2.3942   2.3942   2.3942   4.3354   4.3355   4.3355   4.3355
     4.3355   4.3356   4.3356   4.3356   4.8237   4.8237   4.8237   4.8237
     4.8238   4.8238   4.8238   4.8238   6.0054   6.0054   6.0054   6.0055
     6.6599   6.6599   6.6599   6.6599   7.7299   7.7300   7.7300   7.7300
     8.6669   8.6669   8.6669   8.6669   9.0527   9.0527   9.0527   9.0527
    10.2110  10.2111

          k = 0.1368 0.1368 0.1368 ( 21053 PWs)   bands (ev):

    -3.0708  -1.4216  -1.4216  -1.4216  -0.1977  -0.1977  -0.1977   0.2087
     0.2087   0.2087   1.4186   1.4186   1.4186   1.4186   1.4187   1.4187
     1.8206   2.6180   2.6180   2.6180   3.0106   3.0106   3.0106   4.2269
     4.2269   4.2270   4.4899   4.4899   4.4899   5.4004   6.0307   6.0307
     6.0307   6.0307   6.0307   6.0308   7.1945   7.1945   7.1945   7.1945
     7.1945   7.1945   7.2199   7.2199   7.2199   7.5955   7.5955   7.5955
     8.7478   8.7478   8.7478   8.7479   8.7489   8.7489   8.7489   8.7489
     8.7489   8.7489

          k = 0.1368 0.1368 0.2280 ( 21041 PWs)   bands (ev):

    -2.9954  -1.7574  -1.3471  -1.3471  -0.1238  -0.1238  -0.1233  -0.1233
     0.2812   0.2824   1.0896   1.0896   1.4917   1.4917   1.4925   1.8920
     1.8920   2.6893   2.6893   2.6903   3.0869   3.0869   3.4555   3.8325
     3.9272   4.5604   4.5604   4.6878   4.6878   5.3907   5.3907   5.7190
     5.7190   5.8625   6.0825   6.0825   6.5855   6.5855   6.9669   7.2722
     7.2722   7.2803   7.2803   7.2902   7.2902   7.6235   7.6235   8.0069
     8.1259   8.1259   8.4341   8.4341   8.4921   8.4921   8.8664   8.8664
     9.2019   9.2019

          k = 0.1368 0.1368 0.3191 ( 21019 PWs)   bands (ev):

    -2.8824  -2.0565  -1.2354  -1.2354  -0.4190  -0.4190  -0.0131  -0.0131
     0.3928   0.7947   0.7964   0.7964   1.2002   1.6012   1.6012   2.3994
     2.3994   2.4007   2.4008   2.7985   3.1728   3.5621   3.5893   3.5893
     4.0350   4.6662   4.6662   4.7441   4.7441   5.1852   5.1853   5.4395
     5.4395   5.8717   5.8717   6.2649   6.2649   6.3275   6.3583   7.0002
     7.0002   7.3802   7.3802   7.3949   7.3949   7.4912   7.4913   7.9693
     7.9693   8.1539   8.1539   8.3670   8.3671   8.6509   8.8608   8.9920
     8.9920   9.6887

          k = 0.1368 0.1368 0.4103 ( 21038 PWs)   bands (ev):

    -2.7319  -2.3188  -1.0866  -1.0866  -0.6783  -0.6783   0.1344   0.1344
     0.5393   0.5393   0.5400   0.9438   1.3421   1.7470   1.7470   2.1471
     2.1471   2.5336   2.9401   2.9401   2.9425   3.3333   4.1153   4.1153
     4.1240   4.1240   4.5470   4.8072   4.8072   5.1941   5.1941   5.2798
     5.2798   5.7052   5.7165   5.7165   6.3764   6.3764   6.7554   6.7554
     6.8727   6.8728   6.8869   7.5217   7.5217   7.5330   7.5330   7.8869
     7.8869   7.9084   7.9084   8.0364   8.7303   8.7303   9.1430   9.1431
     9.5404   9.5405

          k = 0.1368 0.1368-0.5015 ( 21030 PWs)   bands (ev):

    -2.5440  -2.5439  -0.9009  -0.9009  -0.9009  -0.9008   0.3185   0.3186
     0.3186   0.3186   0.7237   0.7237   1.9223   1.9223   1.9291   1.9291
     1.9291   1.9291   3.1214   3.1214   3.5127   3.5127   3.5127   3.5127
     4.6890   4.6890   4.6890   4.6890   4.9832   4.9832   4.9832   4.9832
     5.1097   5.1097   6.2798   6.2798   6.2798   6.2798   6.5467   6.5467
     6.5467   6.5468   7.4470   7.4470   7.6977   7.6977   7.6978   7.6978
     7.7011   7.7011   7.7011   7.7011   9.2608   9.2608   9.2608   9.2608
     9.3252   9.3252

          k = 0.1368 0.2280 0.2280 ( 21036 PWs)   bands (ev):

    -2.9201  -1.6827  -1.6827  -1.2726  -0.4560  -0.0500  -0.0494  -0.0494
     0.3548   0.3548   1.1628   1.1628   1.1636   1.5640   1.5640   1.9648
     1.9648   2.3645   3.1537   3.1537   3.1588   3.1588   3.5540   3.9038
     3.9038   4.3703   4.3703   4.6310   5.0745   5.0745   5.1502   5.4558
     5.4558   5.7851   5.7852   6.3236   6.6488   6.6488   6.6501   6.6501
     6.9653   7.0132   7.0132   7.3595   7.7173   7.7173   7.8096   7.8096
     8.0757   8.0757   8.5765   8.5765   8.5806   8.5806   8.8872   8.8873
     9.2154   9.2154

          k = 0.1368 0.2280 0.3191 ( 21049 PWs)   bands (ev):

    -2.8071  -1.9817  -1.5707  -1.1610  -0.7524  -0.3450   0.0607   0.0613
     0.4652   0.8680   0.8697   0.8706   1.2719   1.2725   2.0727   2.0739
     2.0745   2.4719   2.8691   3.2447   3.2662   3.6320   3.6604   4.0108
     4.0540   4.1083   4.4247   4.7367   4.7920   4.8130   4.8656   5.5083
     5.5352   5.6472   5.8722   6.0098   6.0372   6.3688   6.4019   6.6855
     6.7531   6.8183   7.1737   7.4621   7.4675   7.5281   7.8301   7.9477
     8.1777   8.1825   8.3332   8.6071   8.6881   8.9275   8.9899   9.0687
     9.1054   9.3741

          k = 0.1368 0.2280 0.4103 ( 21065 PWs)   bands (ev):

    -2.6567  -2.2438  -1.4216  -1.0123  -1.0123  -0.6041   0.2081   0.2088
     0.6122   0.6128   0.6136   1.0157   1.4151   1.4188   1.8200   2.2191
     2.6059   2.6148   2.6172   3.0121   3.4085   3.7744   3.7935   4.1532
     4.1859   4.1936   4.2507   4.5441   4.5853   4.8775   5.2637   5.3184
     5.3873   5.3967   5.7053   5.7736   6.0928   6.1239   6.1774   6.4418
     6.5543   6.8938   7.2815   7.3308   7.3456   7.5948   7.8045   7.9736
     8.2733   8.3105   8.3616   8.4923   8.5416   8.8328   8.9199   9.2255
     9.2330   9.5895

          k = 0.1368 0.2280-0.5015 ( 21022 PWs)   bands (ev):

    -2.4689  -2.4688  -1.2354  -1.2354  -0.8266  -0.8266   0.3922   0.3922
     0.3929   0.3929   0.7957   0.7957   1.6013   1.6013   1.9950   1.9950
     2.4003   2.4004   3.1890   3.1890   3.5835   3.5836   3.5841   3.5842
     4.3310   4.3311   4.7542   4.7542   4.7941   4.7941   5.0533   5.0533
     5.1441   5.1441   5.9183   5.9183   5.9605   5.9605   6.2367   6.2368
     6.7394   6.7394   7.0700   7.0700   7.7442   7.7443   7.9044   7.9044
     8.1505   8.1505   8.4640   8.4641   8.6762   8.6762   9.0119   9.0119
     9.3470   9.3470

          k = 0.1368 0.3191 0.3191 ( 21059 PWs)   bands (ev):

    -2.6943  -1.8695  -1.8695  -1.0495  -1.0494  -0.2341  -0.2341   0.1713
     0.5768   0.9780   0.9780   0.9797   0.9797   1.7816   1.7817   1.7836
     2.5804   2.5804   3.3524   3.3524   3.3678   3.3679   3.7662   3.7662
     4.1398   4.1398   4.5506   4.5847   4.5847   4.8423   4.9135   4.9135
     5.6095   5.6095   5.7284   5.7284   6.1204   6.1205   6.1431   6.4068
     6.8635   6.8635   6.8912   6.8912   7.3117   7.5592   8.3107   8.3107
     8.4212   8.4212   8.4375   8.4375   9.0250   9.0250   9.0941   9.0941
     9.1919   9.2169

          k = 0.1368 0.3191 0.4103 ( 21048 PWs)   bands (ev):

    -2.5440  -2.1314  -1.7200  -1.3098  -0.9009  -0.4930  -0.0863   0.3186
     0.3193   0.7230   1.1244   1.1262   1.5246   1.5264   1.5283   2.3249
     2.7143   2.7249   3.1200   3.1201   3.4960   3.5067   3.8784   3.8899
     3.9044   4.2909   4.2950   4.3607   4.9828   5.0267   5.0757   5.1086
     5.1134   5.3676   5.4865   5.5274   5.7318   6.1668   6.2571   6.2710
     6.2735   6.6440   6.6720   7.3479   7.6728   7.8223   7.8377   8.2109
     8.4582   8.5576   8.6351   8.8104   8.8483   8.9447   8.9598   8.9815
     9.1444   9.6141

          k = 0.1368 0.3191-0.5015 ( 21042 PWs)   bands (ev):

    -2.3563  -2.3563  -1.5335  -1.5334  -0.7154  -0.7153   0.0982   0.0983
     0.5025   0.5026   1.3073   1.3073   1.3091   1.3092   2.1040   2.1040
     2.9006   2.9006   2.9050   2.9051   3.6752   3.6752   3.6910   3.6910
     4.0568   4.0569   4.5364   4.5364   4.8299   4.8299   5.1581   5.1582
     5.3053   5.3054   5.6041   5.6041   5.6769   5.6769   5.9888   5.9888
     6.4324   6.4324   7.2325   7.2325   7.7020   7.7021   8.1988   8.1988
     8.3950   8.3950   8.6366   8.6367   8.7329   8.7329   9.1970   9.1971
     9.5136   9.5136

          k = 0.1368 0.4103 0.4103 ( 21065 PWs)   bands (ev):

    -2.3938  -1.9817  -1.9817  -1.5707  -0.7524  -0.3450  -0.3450   0.0614
     0.4658   0.8698   0.8698   1.2726   1.6705   1.6705   2.0708   2.0708
     2.8588   2.8588   3.2551   3.2551   3.2634   3.2634   3.6524   3.6524
     4.4090   4.4090   4.4278   4.4278   4.8692   4.8692   4.8895   4.8895
     5.1229   5.5041   5.5041   5.5702   5.6411   5.6411   5.9540   6.0235
     6.0235   6.7693   6.7693   7.1994   7.6676   8.1720   8.3227   8.3227
     8.3464   8.3464   8.3623   8.6991   8.9728   8.9728   9.3679   9.3679
     9.4865   9.5030

          k = 0.1368 0.4103-0.5015 ( 21072 PWs)   bands (ev):

    -2.2063  -2.2063  -1.7948  -1.7947  -0.5671  -0.5671  -0.1601  -0.1601
     0.6495   0.6496   1.0530   1.0530   1.8526   1.8526   2.2492   2.2492
     2.6476   2.6476   3.0391   3.0391   3.4416   3.4417   3.8326   3.8326
     4.1940   4.1940   4.5776   4.5776   4.6832   4.6832   5.0734   5.0734
     5.2972   5.2973   5.4299   5.4299   5.6617   5.6617   5.8126   5.8127
     6.2080   6.2080   7.2855   7.2855   7.7582   7.7582   8.1469   8.1470
     8.4905   8.4905   8.9018   8.9018   8.9181   8.9181   9.1549   9.1549
     9.5064   9.5064

          k = 0.1368-0.5015-0.5015 ( 21084 PWs)   bands (ev):

    -2.0191  -2.0191  -2.0191  -2.0191  -0.3820  -0.3820  -0.3820  -0.3819
     0.8331   0.8331   0.8331   0.8331   2.4304   2.4304   2.4304   2.4304
     2.4304   2.4305   2.4305   2.4305   4.0063   4.0063   4.0063   4.0063
     4.0063   4.0063   4.0063   4.0063   5.2222   5.2222   5.2222   5.2223
     5.2223   5.2223   5.2223   5.2223   5.4689   5.4689   5.4689   5.4689
     6.7373   6.7373   6.7373   6.7373   8.2892   8.2892   8.2892   8.2893
     8.3153   8.3153   8.3153   8.3153   9.4723   9.4723   9.4725   9.4725
     9.7026   9.7026

          k = 0.2280 0.2280 0.2280 ( 21035 PWs)   bands (ev):

    -2.8448  -1.6080  -1.6080  -1.6080  -0.3820  -0.3820  -0.3820   0.4284
     0.4284   0.4284   0.8339   1.6370   1.6370   1.6370   1.6370   1.6370
     1.6370   2.8330   2.8330   2.8330   3.6251   3.6251   3.6251   3.9751
     3.9751   3.9751   4.8304   4.8304   4.8304   5.1433   5.1433   5.1433
     5.1433   5.1433   5.1433   6.3336   6.3336   6.3336   6.7837   7.0948
     7.0948   7.0948   7.0949   7.0949   7.0949   8.1427   8.1427   8.1427
     8.2646   8.2646   8.2646   8.2646   8.2646   8.2646   9.3257   9.3257
     9.3257   9.3257

          k = 0.2280 0.2280 0.3191 ( 21055 PWs)   bands (ev):

    -2.7319  -1.9069  -1.4962  -1.4962  -0.6782  -0.6782  -0.2710   0.5387
     0.5387   0.5401   0.9413   1.3450   1.3450   1.7464   1.7464   2.1454
     2.1454   2.5449   2.5449   3.3165   3.3320   3.7309   4.0820   4.0820
     4.1236   4.1236   4.4950   4.4950   4.5494   4.8620   4.8620   5.2438
     5.2438   5.3272   5.3272   5.6930   6.0534   6.0534   6.4662   6.4662
     7.2047   7.2047   7.2772   7.5722   7.5723   7.6306   7.6306   7.9832
     7.9833   8.2403   8.2403   8.7531   8.7531   8.9903   9.0695   9.0695
     9.4474   9.4474

          k = 0.2280 0.2280 0.4103 ( 21068 PWs)   bands (ev):

    -2.5815  -2.1689  -1.3471  -1.3471  -0.9380  -0.9380  -0.1232   0.2825
     0.6856   0.6856   1.0889   1.0889   1.4881   1.8920   1.8920   2.2916
     2.2916   2.6782   2.6871   2.6871   3.8429   3.8648   3.8648   3.8692
     4.2243   4.2243   4.3251   4.6146   4.6146   4.6506   4.6506   5.0729
     5.3592   5.3592   5.8125   5.8125   5.8578   5.8578   5.8735   5.8735
     7.0127   7.0127   7.3476   7.3476   7.7366   7.7366   7.8034   8.0618
     8.0619   8.3579   8.3579   8.8624   8.8624   8.9474   9.2742   9.2742
     9.3224   9.3224

          k = 0.2280 0.2280-0.5015 ( 21048 PWs)   bands (ev):

    -2.3938  -2.3938  -1.1610  -1.1610  -1.1610  -1.1609   0.0614   0.0614
     0.8690   0.8691   0.8691   0.8691   2.0677   2.0677   2.0738   2.0738
     2.0739   2.0739   3.2609   3.2609   3.2609   3.2609   4.0219   4.0219
     4.4019   4.4019   4.4019   4.4019   4.5003   4.5003   5.1823   5.1823
     5.1823   5.1823   5.6334   5.6334   5.6334   5.6335   6.4204   6.4204
     6.4204   6.4205   7.5247   7.5247   7.5248   7.5248   8.3608   8.3608
     8.4091   8.4091   8.4091   8.4091   8.8614   8.8614   8.8614   8.8614
     9.7760   9.7761

          k = 0.2280 0.3191 0.3191 ( 21055 PWs)   bands (ev):

    -2.6191  -1.7947  -1.7947  -1.3843  -0.9751  -0.5670  -0.5670   0.2457
     0.6489   1.0512   1.0512   1.4546   1.4546   1.8545   1.8545   2.2543
     2.2543   2.2553   3.0481   3.0481   3.4242   3.4242   4.1887   4.2108
     4.2108   4.2252   4.2252   4.5997   4.5997   4.6160   4.9663   4.9663
     5.0436   5.0436   5.4155   5.4155   5.7773   5.8234   6.5709   6.5709
     6.9469   6.9470   7.3483   7.3483   7.6890   7.6890   7.7696   8.1208
     8.1208   8.3224   8.4719   8.4719   9.0741   9.0741   9.1787   9.1787
     9.3070  10.0328

          k = 0.2280 0.3191 0.4103 ( 21043 PWs)   bands (ev):

    -2.4689  -2.0565  -1.6454  -1.2354  -1.2354  -0.8266  -0.4189  -0.0124
     0.7957   1.1976   1.1987   1.5976   1.5994   1.6006   2.0012   2.3974
     2.3993   2.7866   2.7954   2.7968   3.5676   3.5783   3.5808   3.9612
     3.9713   4.3308   4.3395   4.7202   4.7266   4.7360   4.7992   4.8178
     5.1023   5.1139   5.1988   5.5631   5.5739   5.9573   6.3382   6.3529
     6.7121   6.7297   7.1010   7.4576   7.5047   7.8345   8.2012   8.2252
     8.2944   8.3408   8.6436   8.8190   8.9476   8.9932   9.0989   9.3215
     9.4356   9.5367

          k = 0.2280 0.3191-0.5015 ( 21060 PWs)   bands (ev):

    -2.2813  -2.2813  -1.4589  -1.4588  -1.0494  -1.0494  -0.2340  -0.2340
     0.9790   0.9791   1.3804   1.3804   1.7828   1.7829   2.1766   2.1766
     2.5802   2.5803   2.9727   2.9727   3.3685   3.3685   3.7467   3.7467
     4.1232   4.1232   4.5081   4.5081   4.6126   4.6126   4.8856   4.8856
     5.2535   5.2536   5.3914   5.3914   5.7733   5.7733   6.1368   6.1368
     6.8888   6.8889   6.9141   6.9141   7.9763   7.9763   8.0128   8.0129
     8.7244   8.7245   8.7742   8.7742   8.8504   8.8504   9.1979   9.1979
     9.5454   9.5459

          k = 0.2280 0.4103 0.4103 ( 21067 PWs)   bands (ev):

    -2.3188  -1.9069  -1.9069  -1.4961  -1.0866  -0.6782  -0.6782  -0.2709
     0.9424   1.3450   1.3450   1.7433   1.7433   1.7464   2.1435   2.1435
     2.9309   2.9309   2.9396   2.9396   3.3270   3.3270   3.3339   3.3339
     4.1123   4.1123   4.4716   4.4716   4.4725   4.8599   4.8599   4.9691
     4.9691   5.2183   5.3266   5.3266   5.7396   6.0943   6.0943   6.4820
     6.4820   6.8535   6.8535   6.8809   7.9465   8.0293   8.0294   8.3527
     8.3527   8.7436   8.7462   8.7463   8.8178   9.0823   9.0823   9.1707
     9.4534   9.4535

          k = 0.2280 0.4103-0.5015 ( 21058 PWs)   bands (ev):

    -2.1314  -2.1314  -1.7200  -1.7200  -0.9008  -0.9008  -0.4930  -0.4929
     1.1255   1.1256   1.5276   1.5276   1.9253   1.9254   2.3217   2.3217
     2.7199   2.7199   3.1111   3.1111   3.1193   3.1194   3.5115   3.5115
     3.8991   3.8991   4.2852   4.2853   4.6491   4.6492   5.0315   5.0315
     5.1186   5.1187   5.5058   5.5058   5.8889   5.8890   6.2699   6.2699
     6.2730   6.2730   7.3972   7.3972   7.4404   7.4404   8.5331   8.5331
     8.5853   8.5854   8.8833   8.8834   8.8978   8.8978   9.2559   9.2560
     9.2984   9.2985

          k = 0.2280-0.5015-0.5015 ( 21088 PWs)   bands (ev):

    -1.9443  -1.9443  -1.9443  -1.9442  -0.7153  -0.7153  -0.7153  -0.7152
     1.3084   1.3085   1.3085   1.3085   2.5028   2.5028   2.5028   2.5029
     2.5029   2.5029   2.5029   2.5029   3.6892   3.6892   3.6892   3.6892
     3.6892   3.6892   3.6892   3.6893   4.8244   4.8245   4.8245   4.8245
     5.6777   5.6777   5.6777   5.6777   5.6777   5.6778   5.6778   5.6778
     6.8217   6.8217   6.8217   6.8217   7.9982   7.9982   7.9982   7.9982
     9.0494   9.0494   9.0832   9.0834   9.0835   9.0835   9.0835   9.0835
     9.0835   9.0836

          k = 0.3191 0.3191 0.3191 ( 21056 PWs)   bands (ev):

    -2.5064  -1.6827  -1.6827  -1.6827  -0.8637  -0.8637  -0.8637  -0.0493
     1.1610   1.1610   1.1610   1.9636   1.9636   1.9636   1.9636   1.9637
     1.9637   2.7606   2.7607   2.7607   3.5318   3.5318   3.5318   4.3168
     4.3168   4.3168   4.3168   4.3169   4.3169   4.6920   4.6920   4.6920
     5.1632   5.1632   5.1632   5.5394   5.5394   5.5395   7.0577   7.0577
     7.0577   7.0577   7.0577   7.0577   7.8388   7.8388   7.8388   7.8388
     7.8388   7.8388   8.2607   9.0651   9.0651   9.0651   9.5208   9.5208
     9.5208  10.1089

          k = 0.3191 0.3191 0.4103 ( 21055 PWs)   bands (ev):

    -2.3563  -1.9443  -1.5334  -1.5334  -1.1238  -1.1238  -0.7153  -0.3079
     1.3073   1.3073   1.7069   1.7088   1.7088   2.1091   2.1091   2.5061
     2.5061   2.5079   2.5079   2.8948   3.2979   3.6750   3.6750   3.6855
     3.6855   4.0679   4.0679   4.4362   4.4572   4.4572   4.8150   4.8150
     4.9341   5.2920   5.3227   5.3227   6.0691   6.0691   6.4432   6.4432
     7.2012   7.2012   7.2220   7.2220   7.5761   7.5761   7.5915   7.5915
     8.3619   8.3619   8.6715   8.6716   8.7842   9.4306   9.4435   9.4435
     9.5002   9.5002

          k = 0.3191 0.3191-0.5015 ( 21062 PWs)   bands (ev):

    -2.1689  -2.1688  -1.3471  -1.3471  -1.3471  -1.3470  -0.5300  -0.5299
     1.4899   1.4899   1.4900   1.4900   2.2854   2.2854   2.2905   2.2905
     2.2906   2.2906   3.0807   3.0807   3.0807   3.0807   3.8538   3.8538
     3.8539   3.8539   3.8634   3.8634   4.6294   4.6294   4.6294   4.6294
     5.0839   5.0840   5.8574   5.8574   5.8575   5.8575   6.6307   6.6307
     6.6307   6.6307   7.3790   7.3790   7.3790   7.3790   8.1206   8.1206
     8.1206   8.1206   8.9164   8.9164   8.9164   8.9164   9.3389   9.3389
     9.5831   9.5832

          k = 0.3191 0.4103 0.4103 ( 21059 PWs)   bands (ev):

    -2.2063  -1.7947  -1.7947  -1.3844  -1.3843  -0.9751  -0.9751  -0.5670
     1.4534   1.8526   1.8526   1.8545   1.8545   2.2524   2.2524   2.2543
     2.6508   2.6508   3.0390   3.0390   3.0473   3.0473   3.4346   3.4346
     3.8180   3.8281   3.8281   4.2098   4.2098   4.2140   4.2140   4.5939
     5.4376   5.4376   5.8210   5.8211   5.8239   6.5847   6.5847   6.5974
     6.9646   6.9646   6.9743   6.9743   7.7226   7.7226   7.7470   7.7470
     8.0922   8.1146   8.1146   8.8493   8.8493   8.8890   9.2522   9.2522
     9.3063   9.5521

          k = 0.3191 0.4103-0.5015 ( 21058 PWs)   bands (ev):

    -2.0191  -2.0191  -1.6081  -1.6080  -1.1982  -1.1981  -0.7895  -0.7894
     1.6359   1.6359   2.0344   2.0345   2.0364   2.0364   2.4304   2.4304
     2.8283   2.8283   2.8313   2.8313   3.2190   3.2190   3.2245   3.2245
     3.6175   3.6175   3.9964   3.9964   4.0050   4.0051   4.3860   4.3860
     5.6096   5.6097   5.9946   5.9946   6.3781   6.3781   6.3827   6.3827
     6.7618   6.7618   7.1575   7.1575   7.5164   7.5164   7.9017   7.9017
     8.2737   8.2737   8.3033   8.3034   8.6689   8.6689   9.0365   9.0365
     9.7166   9.7167

          k = 0.3191-0.5015-0.5015 ( 21080 PWs)   bands (ev):

    -1.8321  -1.8321  -1.8321  -1.8321  -1.0123  -1.0122  -1.0122  -1.0122
     1.8180   1.8181   1.8181   1.8181   2.6114   2.6114   2.6114   2.6114
     2.6114   2.6114   2.6114   2.6114   3.4037   3.4037   3.4037   3.4037
     3.4037   3.4037   3.4037   3.4037   4.1740   4.1741   4.1741   4.1741
     6.1704   6.1704   6.1704   6.1704   6.1704   6.1704   6.1705   6.1705
     6.9330   6.9330   6.9330   6.9330   7.7157   7.7157   7.7157   7.7157
     8.4551   8.4551   8.4551   8.4551   8.4551   8.4551   8.4551   8.4551
     9.8885   9.8886

          k = 0.4103 0.4103 0.4103 ( 21032 PWs)   bands (ev):

    -2.0565  -1.6454  -1.6454  -1.6454  -1.2354  -1.2354  -1.2354  -0.8266
     1.9981   1.9981   1.9981   2.3974   2.3974   2.3974   2.3974   2.3974
     2.3974   2.7952   2.7952   2.7952   3.1830   3.1830   3.1830   3.5779
     3.5779   3.5779   3.5779   3.5779   3.5779   3.9693   3.9693   3.9693
     5.9611   5.9611   5.9611   6.3493   6.3493   6.3494   7.1084   7.1084
     7.1084   7.1085   7.1085   7.1085   7.4994   7.4994   7.4994   7.4994
     7.4994   7.4994   8.2458   8.2458   8.2458   8.6414   8.6414   8.6414
     9.8271  10.4329

          k = 0.4103 0.4103-0.5015 ( 21062 PWs)   bands (ev):

    -1.8695  -1.8695  -1.4589  -1.4589  -1.4589  -1.4588  -1.0494  -1.0494
     2.1797   2.1798   2.1798   2.1798   2.5752   2.5752   2.5784   2.5784
     2.5784   2.5784   2.9725   2.9725   2.9725   2.9725   3.3627   3.3627
     3.3627   3.3627   3.3677   3.3677   3.7563   3.7564   3.7564   3.7564
     6.1370   6.1370   6.5196   6.5196   6.5197   6.5197   6.9096   6.9096
     6.9096   6.9096   7.2865   7.2865   7.2866   7.2866   7.6632   7.6633
     7.6633   7.6633   8.0558   8.0558   8.0558   8.0558   8.4274   8.4274
    10.3790  10.3790

          k = 0.4103-0.5015-0.5015 ( 21028 PWs)   bands (ev):

    -1.6827  -1.6827  -1.6827  -1.6827  -1.2726  -1.2726  -1.2726  -1.2726
     2.3611   2.3611   2.3611   2.3612   2.7560   2.7560   2.7560   2.7560
     2.7560   2.7560   2.7560   2.7560   3.1524   3.1525   3.1525   3.1525
     3.1525   3.1525   3.1525   3.1525   3.5419   3.5420   3.5420   3.5420
     6.6969   6.6969   6.6969   6.6969   6.6969   6.6969   6.6969   6.6969
     7.0769   7.0769   7.0769   7.0769   7.4680   7.4680   7.4680   7.4680
     7.8426   7.8426   7.8426   7.8426   7.8426   7.8426   7.8426   7.8426
    10.7760  10.7761

          k =-0.5015-0.5015-0.5015 ( 21008 PWs)   bands (ev):

    -1.4962  -1.4962  -1.4962  -1.4962  -1.4961  -1.4961  -1.4961  -1.4961
     2.9363   2.9363   2.9364   2.9364   2.9364   2.9364   2.9364   2.9364
     2.9364   2.9364   2.9364   2.9364   2.9364   2.9364   2.9364   2.9365
     2.9365   2.9365   2.9365   2.9365   2.9365   2.9365   2.9365   2.9365
     7.2551   7.2551   7.2551   7.2551   7.2551   7.2551   7.2551   7.2551
     7.2551   7.2551   7.2551   7.2551   7.2551   7.2551   7.2551   7.2551
     7.2551   7.2551   7.2551   7.2551   7.2551   7.2552   7.2552   7.2552
    11.4785  11.7004

     the Fermi energy is     8.0223 ev

!    total energy              =   -1264.08670067 Ry
     Harris-Foulkes estimate   =   -1264.08670066 Ry
     estimated scf accuracy    <       0.00000031 Ry

     total all-electron energy =    -15540.655723 Ry

     The total energy is the sum of the following terms:

     one-electron contribution =     102.03422889 Ry
     hartree contribution      =       0.19867651 Ry
     xc contribution           =     -83.08881964 Ry
     ewald contribution        =    -173.52108137 Ry
     one-center paw contrib.   =   -1109.70710689 Ry
     smearing contrib. (-TS)   =      -0.00259816 Ry

     convergence has been achieved in   8 iterations

     Forces acting on atoms (cartesian axes, Ry/au):

     atom    1 type  1   force =     0.00000000    0.00000000    0.00000000
     atom    2 type  1   force =    -0.00000030   -0.00000030    0.00000000
     atom    3 type  1   force =    -0.00000030    0.00000000   -0.00000030
     atom    4 type  1   force =     0.00000000   -0.00000030   -0.00000030
     atom    5 type  1   force =     0.00000000    0.00000000    0.00000000
     atom    6 type  1   force =     0.00000046    0.00000046    0.00000000
     atom    7 type  1   force =    -0.00000030    0.00000000    0.00000030
     atom    8 type  1   force =    -0.00000000   -0.00000030    0.00000030
     atom    9 type  1   force =     0.00000000    0.00000000    0.00000000
     atom   10 type  1   force =    -0.00000030    0.00000030    0.00000000
     atom   11 type  1   force =     0.00000046    0.00000000    0.00000046
     atom   12 type  1   force =     0.00000000    0.00000030   -0.00000030
     atom   13 type  1   force =     0.00000000    0.00000000    0.00000000
     atom   14 type  1   force =     0.00000046   -0.00000046    0.00000000
     atom   15 type  1   force =     0.00000046    0.00000000   -0.00000046
     atom   16 type  1   force =    -0.00000000    0.00000030    0.00000030
     atom   17 type  1   force =     0.00000000    0.00000000    0.00000000
     atom   18 type  1   force =     0.00000030   -0.00000030    0.00000000
     atom   19 type  1   force =     0.00000030    0.00000000   -0.00000030
     atom   20 type  1   force =    -0.00000000    0.00000046    0.00000046
     atom   21 type  1   force =     0.00000000    0.00000000    0.00000000
     atom   22 type  1   force =    -0.00000046    0.00000046    0.00000000
     atom   23 type  1   force =     0.00000030   -0.00000000    0.00000030
     atom   24 type  1   force =    -0.00000000    0.00000046   -0.00000046
     atom   25 type  1   force =     0.00000000    0.00000000    0.00000000
     atom   26 type  1   force =     0.00000030    0.00000030    0.00000000
     atom   27 type  1   force =    -0.00000046   -0.00000000    0.00000046
     atom   28 type  1   force =    -0.00000000   -0.00000046    0.00000046
     atom   29 type  1   force =     0.00000000    0.00000000    0.00000000
     atom   30 type  1   force =    -0.00000046   -0.00000046    0.00000000
     atom   31 type  1   force =    -0.00000046    0.00000000   -0.00000046
     atom   32 type  1   force =    -0.00000000   -0.00000046   -0.00000046

     Total force =     0.000003     Total SCF correction =     0.000084
     SCF correction compared to forces is large: reduce conv_thr to get better values


     Computing stress (Cartesian axis) and pressure

          total   stress  (Ry/bohr**3)                   (kbar)     P=    7.25
   0.00004928   0.00000000   0.00000000          7.25      0.00      0.00
   0.00000000   0.00004928   0.00000000          0.00      7.25      0.00
   0.00000000   0.00000000   0.00004928          0.00      0.00      7.25


     Writing output data file FfIIXEoJHDYFbjXR.save/
 
     init_run     :      6.54s CPU      6.74s WALL (       1 calls)
     electrons    :     95.21s CPU     97.39s WALL (       1 calls)
     forces       :      1.15s CPU      1.21s WALL (       1 calls)
     stress       :      5.85s CPU      5.88s WALL (       1 calls)

     Called by init_run:
     wfcinit      :      6.10s CPU      6.25s WALL (       1 calls)
     potinit      :      0.10s CPU      0.10s WALL (       1 calls)
     hinit0       :      0.19s CPU      0.23s WALL (       1 calls)

     Called by electrons:
     c_bands      :     83.52s CPU     85.36s WALL (       9 calls)
     sum_band     :     11.02s CPU     11.29s WALL (       9 calls)
     v_of_rho     :      0.11s CPU      0.12s WALL (       9 calls)
     newd         :      0.07s CPU      0.11s WALL (       9 calls)
     PAW_pot      :      0.52s CPU      0.53s WALL (       9 calls)
     mix_rho      :      0.02s CPU      0.02s WALL (       9 calls)

     Called by c_bands:
     init_us_2    :      1.73s CPU      1.77s WALL (    1176 calls)
     cegterg      :     78.98s CPU     80.48s WALL (     504 calls)

     Called by sum_band:
     sum_band:bec :      0.05s CPU      0.05s WALL (     504 calls)
     addusdens    :      0.05s CPU      0.08s WALL (       9 calls)

     Called by *egterg:
     h_psi        :     57.87s CPU     59.08s WALL (    2072 calls)
     s_psi        :      4.46s CPU      4.49s WALL (    2072 calls)
     g_psi        :      0.21s CPU      0.21s WALL (    1512 calls)
     cdiaghg      :     11.48s CPU     11.54s WALL (    1960 calls)

     Called by h_psi:
     h_psi:pot    :     57.49s CPU     58.70s WALL (    2072 calls)
     h_psi:calbec :      4.66s CPU      4.98s WALL (    2072 calls)
     vloc_psi     :     48.12s CPU     48.97s WALL (    2072 calls)
     add_vuspsi   :      4.71s CPU      4.74s WALL (    2072 calls)

     General routines
     calbec       :      7.80s CPU      8.27s WALL (    2856 calls)
     fft          :      0.27s CPU      0.32s WALL (     126 calls)
     ffts         :      0.01s CPU      0.01s WALL (       9 calls)
     fftw         :     52.38s CPU     53.30s WALL (  203428 calls)
 
     Parallel routines
     fft_scatt_xy :      4.75s CPU      4.83s WALL (  203563 calls)
     fft_scatt_yz :     31.12s CPU     31.73s WALL (  203563 calls)
 
     PWSCF        :  1m50.21s CPU     1m56.33s WALL

 
   This run was terminated on:   3:16: 2  25Mar2020            

=------------------------------------------------------------------------------=
   JOB DONE.
=------------------------------------------------------------------------------=
