
     Program PWSCF v.6.3 starts on 25Mar2020 at  3: 9:55 

     This program is part of the open-source Quantum ESPRESSO suite
     for quantum simulation of materials; please cite
         "P. Giannozzi et al., J. Phys.:Condens. Matter 21 395502 (2009);
         "P. Giannozzi et al., J. Phys.:Condens. Matter 29 465901 (2017);
          URL http://www.quantum-espresso.org", 
     in publications or presentations arising from this work. More details at
     http://www.quantum-espresso.org/quote

     Parallel version (MPI & OpenMP), running on      20 processor cores
     Number of MPI processes:                20
     Threads/MPI process:                     1

     MPI processes distributed on     1 nodes
     R & G space division:  proc/nbgrp/npool/nimage =      20
     Reading input from /rds/homes/b/bxp912/jobs/20200324_al_eos_e/wd/pwscf_eos/eos_1.in
Warning: card &IONS ignored
Warning: card ION_DYNAMICS = 'BFGS', ignored
Warning: card / ignored
Warning: card &CELL ignored
Warning: card CELL_DYNAMICS = 'BFGS', ignored
Warning: card CELL_FACTOR = 2.0, ignored
Warning: card PRESS = 0.0, ignored
Warning: card / ignored

     Current dimensions of program PWSCF are:
     Max number of different atomic species (ntypx) = 10
     Max number of k-points (npk) =  40000
     Max angular momentum in pseudopotentials (lmaxx) =  3
     Message from routine read_upf::
     Pseudo file /rds/homes/b/bxp912/pp/Al.pbe-nl-kjpaw_psl.1.0.0.UPF has been successfully fixed on the fly.
To avoid this message in the future you can permanently fix 
 your pseudo files following instructions given in: 
https://gitlab.com/QEF/q-e/blob/master/upftools/how_to_fix_upf.md
               file Al.pbe-nl-kjpaw_psl.1.0.0.UPF: wavefunction(s)  3S 3P renormalized

     Subspace diagonalization in iterative solution of the eigenvalue problem:
     a serial algorithm will be used

     Found symmetry operation: I + (  0.2500  0.2500  0.0000)
     This is a supercell, fractional translations are disabled
 
     Parallelization info
     --------------------
     sticks:   dense  smooth     PW     G-vecs:    dense   smooth      PW
     Min         184     184     50                 8354     8354    1210
     Max         185     185     51                 8356     8356    1213
     Sum        3681    3681   1005               167085   167085   24207
 


     bravais-lattice index     =            0
     lattice parameter (alat)  =      15.2652  a.u.
     unit-cell volume          =    3504.0743 (a.u.)^3
     number of atoms/cell      =           32
     number of atomic types    =            1
     number of electrons       =        96.00
     number of Kohn-Sham states=           58
     kinetic-energy cutoff     =      50.0000  Ry
     charge density cutoff     =     200.0000  Ry
     convergence threshold     =      1.0E-06
     mixing beta               =       0.1000
     number of iterations used =           10  plain     mixing
     Exchange-correlation      = SLA PW PBX PBC ( 1  4  3  4 0 0)

     celldm(1)=  15.265160  celldm(2)=   0.000000  celldm(3)=   0.000000
     celldm(4)=   0.000000  celldm(5)=   0.000000  celldm(6)=   0.000000

     crystal axes: (cart. coord. in units of alat)
               a(1) = (   0.995000   0.000000   0.000000 )  
               a(2) = (   0.000000   0.995000   0.000000 )  
               a(3) = (   0.000000   0.000000   0.995000 )  

     reciprocal axes: (cart. coord. in units 2 pi/alat)
               b(1) = (  1.005025  0.000000  0.000000 )  
               b(2) = (  0.000000  1.005025  0.000000 )  
               b(3) = (  0.000000  0.000000  1.005025 )  


     PseudoPot. # 1 for Al read from file:
     /rds/homes/b/bxp912/pp/Al.pbe-nl-kjpaw_psl.1.0.0.UPF
     MD5 check sum: 339dbea23cf3ab9a065ad45c0f9085d7
     Pseudo is Projector augmented-wave + core cor, Zval =  3.0
     Generated using "atomic" code by A. Dal Corso v.5.1
     Shape of augmentation charge: PSQ
     Using radial grid of 1135 points,  4 beta functions with: 
                l(1) =   0
                l(2) =   0
                l(3) =   1
                l(4) =   1
     Q(r) pseudized with 0 coefficients 


     atomic species   valence    mass     pseudopotential
        Al             3.00    26.98200     Al( 1.00)

     48 Sym. Ops., with inversion, found



   Cartesian axes

     site n.     atom                  positions (alat units)
         1           Al  tau(   1) = (   0.0000000   0.0000000   0.0000000  )
         2           Al  tau(   2) = (   0.2487500   0.2487500   0.0000000  )
         3           Al  tau(   3) = (   0.2487500   0.0000000   0.2487500  )
         4           Al  tau(   4) = (   0.0000000   0.2487500   0.2487500  )
         5           Al  tau(   5) = (   0.0000000   0.0000000   0.4975000  )
         6           Al  tau(   6) = (   0.2487500   0.2487500   0.4975000  )
         7           Al  tau(   7) = (   0.2487500   0.0000000   0.7462500  )
         8           Al  tau(   8) = (   0.0000000   0.2487500   0.7462500  )
         9           Al  tau(   9) = (   0.0000000   0.4975000   0.0000000  )
        10           Al  tau(  10) = (   0.2487500   0.7462500   0.0000000  )
        11           Al  tau(  11) = (   0.2487500   0.4975000   0.2487500  )
        12           Al  tau(  12) = (   0.0000000   0.7462500   0.2487500  )
        13           Al  tau(  13) = (   0.0000000   0.4975000   0.4975000  )
        14           Al  tau(  14) = (   0.2487500   0.7462500   0.4975000  )
        15           Al  tau(  15) = (   0.2487500   0.4975000   0.7462500  )
        16           Al  tau(  16) = (   0.0000000   0.7462500   0.7462500  )
        17           Al  tau(  17) = (   0.4975000   0.0000000   0.0000000  )
        18           Al  tau(  18) = (   0.7462500   0.2487500   0.0000000  )
        19           Al  tau(  19) = (   0.7462500   0.0000000   0.2487500  )
        20           Al  tau(  20) = (   0.4975000   0.2487500   0.2487500  )
        21           Al  tau(  21) = (   0.4975000   0.0000000   0.4975000  )
        22           Al  tau(  22) = (   0.7462500   0.2487500   0.4975000  )
        23           Al  tau(  23) = (   0.7462500   0.0000000   0.7462500  )
        24           Al  tau(  24) = (   0.4975000   0.2487500   0.7462500  )
        25           Al  tau(  25) = (   0.4975000   0.4975000   0.0000000  )
        26           Al  tau(  26) = (   0.7462500   0.7462500   0.0000000  )
        27           Al  tau(  27) = (   0.7462500   0.4975000   0.2487500  )
        28           Al  tau(  28) = (   0.4975000   0.7462500   0.2487500  )
        29           Al  tau(  29) = (   0.4975000   0.4975000   0.4975000  )
        30           Al  tau(  30) = (   0.7462500   0.7462500   0.4975000  )
        31           Al  tau(  31) = (   0.7462500   0.4975000   0.7462500  )
        32           Al  tau(  32) = (   0.4975000   0.7462500   0.7462500  )

     number of k points=    56  Marzari-Vanderbilt smearing, width (Ry)=  0.0400
                       cart. coord. in units 2pi/alat
        k(    1) = (   0.0456830   0.0456830   0.0456830), wk =   0.0120210
        k(    2) = (   0.0456830   0.0456830   0.1370489), wk =   0.0360631
        k(    3) = (   0.0456830   0.0456830   0.2284148), wk =   0.0360631
        k(    4) = (   0.0456830   0.0456830   0.3197807), wk =   0.0360631
        k(    5) = (   0.0456830   0.0456830   0.4111466), wk =   0.0360631
        k(    6) = (   0.0456830   0.0456830  -0.5025126), wk =   0.0180316
        k(    7) = (   0.0456830   0.1370489   0.1370489), wk =   0.0360631
        k(    8) = (   0.0456830   0.1370489   0.2284148), wk =   0.0721262
        k(    9) = (   0.0456830   0.1370489   0.3197807), wk =   0.0721262
        k(   10) = (   0.0456830   0.1370489   0.4111466), wk =   0.0721262
        k(   11) = (   0.0456830   0.1370489  -0.5025126), wk =   0.0360631
        k(   12) = (   0.0456830   0.2284148   0.2284148), wk =   0.0360631
        k(   13) = (   0.0456830   0.2284148   0.3197807), wk =   0.0721262
        k(   14) = (   0.0456830   0.2284148   0.4111466), wk =   0.0721262
        k(   15) = (   0.0456830   0.2284148  -0.5025126), wk =   0.0360631
        k(   16) = (   0.0456830   0.3197807   0.3197807), wk =   0.0360631
        k(   17) = (   0.0456830   0.3197807   0.4111466), wk =   0.0721262
        k(   18) = (   0.0456830   0.3197807  -0.5025126), wk =   0.0360631
        k(   19) = (   0.0456830   0.4111466   0.4111466), wk =   0.0360631
        k(   20) = (   0.0456830   0.4111466  -0.5025126), wk =   0.0360631
        k(   21) = (   0.0456830  -0.5025126  -0.5025126), wk =   0.0090158
        k(   22) = (   0.1370489   0.1370489   0.1370489), wk =   0.0120210
        k(   23) = (   0.1370489   0.1370489   0.2284148), wk =   0.0360631
        k(   24) = (   0.1370489   0.1370489   0.3197807), wk =   0.0360631
        k(   25) = (   0.1370489   0.1370489   0.4111466), wk =   0.0360631
        k(   26) = (   0.1370489   0.1370489  -0.5025126), wk =   0.0180316
        k(   27) = (   0.1370489   0.2284148   0.2284148), wk =   0.0360631
        k(   28) = (   0.1370489   0.2284148   0.3197807), wk =   0.0721262
        k(   29) = (   0.1370489   0.2284148   0.4111466), wk =   0.0721262
        k(   30) = (   0.1370489   0.2284148  -0.5025126), wk =   0.0360631
        k(   31) = (   0.1370489   0.3197807   0.3197807), wk =   0.0360631
        k(   32) = (   0.1370489   0.3197807   0.4111466), wk =   0.0721262
        k(   33) = (   0.1370489   0.3197807  -0.5025126), wk =   0.0360631
        k(   34) = (   0.1370489   0.4111466   0.4111466), wk =   0.0360631
        k(   35) = (   0.1370489   0.4111466  -0.5025126), wk =   0.0360631
        k(   36) = (   0.1370489  -0.5025126  -0.5025126), wk =   0.0090158
        k(   37) = (   0.2284148   0.2284148   0.2284148), wk =   0.0120210
        k(   38) = (   0.2284148   0.2284148   0.3197807), wk =   0.0360631
        k(   39) = (   0.2284148   0.2284148   0.4111466), wk =   0.0360631
        k(   40) = (   0.2284148   0.2284148  -0.5025126), wk =   0.0180316
        k(   41) = (   0.2284148   0.3197807   0.3197807), wk =   0.0360631
        k(   42) = (   0.2284148   0.3197807   0.4111466), wk =   0.0721262
        k(   43) = (   0.2284148   0.3197807  -0.5025126), wk =   0.0360631
        k(   44) = (   0.2284148   0.4111466   0.4111466), wk =   0.0360631
        k(   45) = (   0.2284148   0.4111466  -0.5025126), wk =   0.0360631
        k(   46) = (   0.2284148  -0.5025126  -0.5025126), wk =   0.0090158
        k(   47) = (   0.3197807   0.3197807   0.3197807), wk =   0.0120210
        k(   48) = (   0.3197807   0.3197807   0.4111466), wk =   0.0360631
        k(   49) = (   0.3197807   0.3197807  -0.5025126), wk =   0.0180316
        k(   50) = (   0.3197807   0.4111466   0.4111466), wk =   0.0360631
        k(   51) = (   0.3197807   0.4111466  -0.5025126), wk =   0.0360631
        k(   52) = (   0.3197807  -0.5025126  -0.5025126), wk =   0.0090158
        k(   53) = (   0.4111466   0.4111466   0.4111466), wk =   0.0120210
        k(   54) = (   0.4111466   0.4111466  -0.5025126), wk =   0.0180316
        k(   55) = (   0.4111466  -0.5025126  -0.5025126), wk =   0.0090158
        k(   56) = (  -0.5025126  -0.5025126  -0.5025126), wk =   0.0015026

     Dense  grid:   167085 G-vectors     FFT dimensions: (  72,  72,  72)

     Estimated max dynamical RAM per process >      80.61 MB

     Estimated total dynamical RAM >       1.57 GB

     Initial potential from superposition of free atoms

     starting charge   95.92671, renormalised to   96.00000
     Starting wfcs are  128 randomized atomic wfcs
     Checking if some PAW data can be deallocated... 

     total cpu time spent up to now is        6.9 secs

     Self-consistent Calculation

     iteration #  1     ecut=    50.00 Ry     beta= 0.10
     Davidson diagonalization with overlap
     ethr =  1.00E-02,  avg # of iterations =  3.1

     Threshold (ethr) on eigenvalues was too large:
     Diagonalizing with lowered threshold

     Davidson diagonalization with overlap
     ethr =  1.90E-04,  avg # of iterations =  4.4

     total cpu time spent up to now is       30.7 secs

     total energy              =   -1264.12228727 Ry
     Harris-Foulkes estimate   =   -1264.13164841 Ry
     estimated scf accuracy    <       0.17914205 Ry

     iteration #  2     ecut=    50.00 Ry     beta= 0.10
     Davidson diagonalization with overlap
     ethr =  1.87E-04,  avg # of iterations =  1.1

     total cpu time spent up to now is       38.1 secs

     total energy              =   -1264.08189310 Ry
     Harris-Foulkes estimate   =   -1264.12308049 Ry
     estimated scf accuracy    <       0.14391651 Ry

     iteration #  3     ecut=    50.00 Ry     beta= 0.10
     Davidson diagonalization with overlap
     ethr =  1.50E-04,  avg # of iterations =  1.0

     total cpu time spent up to now is       45.4 secs

     total energy              =   -1264.08454291 Ry
     Harris-Foulkes estimate   =   -1264.08454774 Ry
     estimated scf accuracy    <       0.00023721 Ry

     iteration #  4     ecut=    50.00 Ry     beta= 0.10
     Davidson diagonalization with overlap
     c_bands:  1 eigenvalues not converged
     c_bands:  1 eigenvalues not converged
     c_bands:  2 eigenvalues not converged
     c_bands:  2 eigenvalues not converged
     ethr =  2.47E-07,  avg # of iterations =  7.5

     total cpu time spent up to now is       62.6 secs

     total energy              =   -1264.08555975 Ry
     Harris-Foulkes estimate   =   -1264.08536754 Ry
     estimated scf accuracy    <       0.00020887 Ry

     iteration #  5     ecut=    50.00 Ry     beta= 0.10
     Davidson diagonalization with overlap
     ethr =  2.18E-07,  avg # of iterations =  1.4

     total cpu time spent up to now is       70.2 secs

     total energy              =   -1264.08527026 Ry
     Harris-Foulkes estimate   =   -1264.08556509 Ry
     estimated scf accuracy    <       0.00064363 Ry

     iteration #  6     ecut=    50.00 Ry     beta= 0.10
     Davidson diagonalization with overlap
     ethr =  2.18E-07,  avg # of iterations =  2.0

     total cpu time spent up to now is       78.6 secs

     total energy              =   -1264.08529039 Ry
     Harris-Foulkes estimate   =   -1264.08529037 Ry
     estimated scf accuracy    <       0.00000114 Ry

     iteration #  7     ecut=    50.00 Ry     beta= 0.10
     Davidson diagonalization with overlap
     c_bands:  2 eigenvalues not converged
     c_bands:  1 eigenvalues not converged
     ethr =  1.19E-09,  avg # of iterations =  6.8

     total cpu time spent up to now is       95.1 secs

     total energy              =   -1264.08529378 Ry
     Harris-Foulkes estimate   =   -1264.08529387 Ry
     estimated scf accuracy    <       0.00000131 Ry

     iteration #  8     ecut=    50.00 Ry     beta= 0.10
     Davidson diagonalization with overlap
     ethr =  1.19E-09,  avg # of iterations =  1.4

     total cpu time spent up to now is      102.6 secs

     total energy              =   -1264.08529354 Ry
     Harris-Foulkes estimate   =   -1264.08529380 Ry
     estimated scf accuracy    <       0.00000148 Ry

     iteration #  9     ecut=    50.00 Ry     beta= 0.10
     Davidson diagonalization with overlap
     ethr =  1.19E-09,  avg # of iterations =  2.0

     total cpu time spent up to now is      110.5 secs

     End of self-consistent calculation

          k = 0.0457 0.0457 0.0457 ( 20866 PWs)   bands (ev):

    -3.1630  -1.0949  -1.0949  -1.0949  -0.6850  -0.6850  -0.6850   0.9434
     0.9434   0.9434   1.3474   1.3474   1.3474   1.3474   1.3474   1.3474
     1.7502   1.7502   1.7502   2.9460   3.3204   3.3205   3.3205   3.7972
     3.7972   3.7972   4.1698   5.0171   5.0171   5.0171   6.5961   6.5961
     6.5961   6.9284   6.9284   6.9284   6.9284   6.9284   6.9284   7.3124
     7.3124   7.3124   7.3124   7.3124   7.3124   8.3308   8.3308   8.3308
     8.3308   8.3308   8.3308   8.8557   8.8557   8.8557   9.2394   9.2394
     9.2397   9.2402

          k = 0.0457 0.0457 0.1370 ( 20869 PWs)   bands (ev):

    -3.1252  -1.4686  -1.0576  -1.0576  -0.6478  -0.6478  -0.2394   0.5751
     0.5751   0.9801   0.9801   0.9802   1.3841   1.3841   1.7866   1.7866
     1.7868   2.1881   2.1881   2.5874   2.9820   2.9820   3.3560   3.8336
     4.2058   4.2058   4.4673   4.5966   5.0519   5.0519   6.3991   6.3991
     6.5829   6.5829   6.6323   6.6323   6.7664   6.7664   6.9833   6.9833
     7.2112   7.3531   7.3531   7.7111   7.7111   8.1432   8.1432   8.3572
     8.5069   8.5069   8.5370   8.5370   8.7200   8.7200   8.7429   8.7429
     8.8905   8.8905

          k = 0.0457 0.0457 0.2284 ( 20903 PWs)   bands (ev):

    -3.0494  -1.8059  -0.9830  -0.9830  -0.5734  -0.5734   0.2416   0.2427
     0.2427   0.6487   0.6487   1.0538   1.4575   1.4575   1.8599   2.2605
     2.2605   2.2612   2.6597   2.6598   2.6605   2.6605   3.0540   3.8075
     4.2776   4.6681   4.6681   5.0611   5.1216   5.1216   5.7598   5.7598
     6.1422   6.1422   6.2703   6.2703   6.7045   6.7045   7.0435   7.0435
     7.4242   7.4242   7.7311   7.8167   7.8167   8.0015   8.1186   8.1186
     8.1929   8.1929   8.2255   8.2255   8.5057   8.5765   8.5765   8.6874
     8.6874   9.0016

          k = 0.0457 0.0457 0.3198 ( 20917 PWs)   bands (ev):

    -2.9359  -2.1063  -0.8711  -0.8711  -0.4619  -0.4619  -0.0535  -0.0535
     0.3534   0.3534   0.7573   1.1641   1.5674   1.5674   1.9695   1.9698
     2.3702   2.3702   2.7683   2.7684   2.7684   3.1452   3.1668   3.1668
     4.7748   5.1138   5.1138   5.1674   5.1674   5.2261   5.2261   5.5016
     5.5016   5.5603   5.9921   5.9921   6.8124   6.8124   7.0929   7.1470
     7.1470   7.4820   7.4820   7.5293   7.5293   7.5757   7.5757   7.8706
     7.9138   7.9138   8.2974   8.2974   8.6926   8.6926   8.8268   8.8268
     8.8597   9.1852

          k = 0.0457 0.0457 0.4111 ( 20913 PWs)   bands (ev):

    -2.7847  -2.3698  -0.7221  -0.7221  -0.3133  -0.3133  -0.3131  -0.3131
     0.0945   0.0945   1.3070   1.3110   1.7139   1.7139   1.7141   2.1154
     2.1155   2.1155   2.5034   2.5154   3.3095   3.3095   3.7060   3.7060
     4.4851   4.4851   4.8767   4.8767   5.3083   5.3654   5.3654   5.7007
     5.7007   5.7484   5.7484   6.0928   6.4709   6.8613   6.8613   6.9553
     6.9553   7.2512   7.2862   7.2862   7.3405   7.3405   7.6691   7.6691
     7.6696   7.6696   8.0531   8.0531   8.9854   8.9854   9.2109   9.2109
     9.3595   9.3596

          k = 0.0457 0.0457-0.5025 ( 20934 PWs)   bands (ev):

    -2.5960  -2.5959  -0.5361  -0.5361  -0.5360  -0.5360  -0.1278  -0.1278
    -0.1278  -0.1278   1.4944   1.4944   1.8896   1.8896   1.8966   1.8966
     1.8967   1.8967   2.2975   2.2975   3.8824   3.8824   3.8824   3.8824
     4.2767   4.2767   4.2767   4.2767   5.5395   5.5395   5.5396   5.5396
     5.8745   5.8745   6.2661   6.2661   6.2661   6.2661   6.6572   6.6573
     7.1320   7.1320   7.1320   7.1321   7.4604   7.4604   7.4604   7.4605
     7.8436   7.8436   7.8437   7.8437   9.1727   9.1727   9.1728   9.1728
     9.5535   9.5535

          k = 0.0457 0.1370 0.1370 ( 20890 PWs)   bands (ev):

    -3.0873  -1.4312  -1.4312  -1.0203  -0.6106  -0.2023  -0.2023   0.2057
     0.6120   0.6120   1.0169   1.0169   1.4205   1.4205   1.8232   1.8232
     2.2245   2.2245   2.2248   2.6235   2.6245   3.3915   3.3915   3.8701
     3.8701   4.5027   4.5027   4.6325   5.0256   5.0868   6.0519   6.0519
     6.4153   6.4153   6.6147   6.6147   6.6683   6.8563   6.8563   7.1892
     7.1892   7.2467   7.2467   7.7657   7.7657   8.0062   8.0062   8.1581
     8.2682   8.2682   8.3920   8.3920   8.6578   8.6578   9.0304   9.0304
     9.1630   9.1630

          k = 0.0457 0.1370 0.2284 ( 20906 PWs)   bands (ev):

    -3.0116  -1.7683  -1.3564  -0.9457  -0.5362  -0.1281  -0.1275   0.2785
     0.2797   0.6856   0.6857   1.0901   1.0905   1.8957   1.8963   1.8969
     2.2969   2.2974   2.2975   2.6968   3.0899   3.0952   3.4626   3.8433
     3.9428   4.3136   4.5735   5.0967   5.1564   5.4084   5.4898   5.7371
     5.7899   6.1489   6.3044   6.5343   6.5605   6.7166   6.7402   6.9176
     7.3175   7.3783   7.5532   7.6900   7.7661   7.8403   7.8441   8.0364
     8.0630   8.0760   8.1879   8.3701   8.4662   8.5405   8.9271   8.9950
     9.2042   9.2379

          k = 0.0457 0.1370 0.3198 ( 20902 PWs)   bands (ev):

    -2.8981  -2.0687  -1.2442  -0.8338  -0.4247  -0.4245  -0.0169  -0.0164
     0.3903   0.7941   0.7957   0.7963   1.2007   1.6044   2.0058   2.0062
     2.4050   2.4065   2.8043   2.8046   3.1813   3.1979   3.2028   3.5996
     4.4209   4.6797   4.7588   4.8107   5.1473   5.2609   5.4561   5.5313
     5.5958   5.9198   5.9883   6.0266   6.6417   6.7387   6.8009   6.8474
     7.0214   7.1281   7.4088   7.4232   7.5646   7.5652   7.7947   7.9055
     7.9467   8.1602   8.2667   8.2935   8.4899   8.7158   8.7349   8.8938
     9.2920   9.3932

          k = 0.0457 0.1370 0.4111 ( 20886 PWs)   bands (ev):

    -2.7470  -2.3321  -1.0948  -0.6849  -0.6848  -0.2762  -0.2760   0.1312
     0.1315   0.5377   0.9436   1.3436   1.3476   1.3479   1.7506   2.1517
     2.5397   2.5515   2.5518   2.9478   2.9490   3.3455   3.7416   4.1275
     4.1366   4.5201   4.8212   4.9103   4.9521   5.2095   5.3008   5.3440
     5.4002   5.7831   6.1155   6.1282   6.5062   6.5198   6.7779   6.9384
     6.9890   7.1616   7.1628   7.2863   7.3212   7.3633   7.5485   7.5632
     7.6756   7.9384   8.0869   8.4714   8.6397   8.7454   9.0402   9.2474
     9.5561   9.7525

          k = 0.0457 0.1370-0.5025 ( 20920 PWs)   bands (ev):

    -2.5583  -2.5582  -0.9083  -0.9083  -0.4989  -0.4988  -0.0908  -0.0907
     0.3160   0.3161   1.1275   1.1276   1.5309   1.5310   1.9261   1.9261
     2.3337   2.3338   2.7328   2.7329   3.5226   3.5226   3.9180   3.9180
     4.3117   4.3117   4.7046   4.7046   4.9978   4.9979   5.5184   5.5184
     5.5743   5.5743   5.9100   5.9100   6.6924   6.6925   6.9523   6.9523
     7.0830   7.0830   7.1121   7.1122   7.1628   7.1629   7.3374   7.3375
     7.7359   7.7359   8.2618   8.2618   8.8228   8.8229   9.2882   9.2883
     9.7441   9.7442

          k = 0.0457 0.2284 0.2284 ( 20926 PWs)   bands (ev):

    -2.9359  -1.6934  -1.6933  -0.8711  -0.4619  -0.4616   0.3524   0.3524
     0.3536   0.3536   0.7593   0.7593   1.5664   1.5665   1.5679   1.9698
     2.3697   2.3697   2.7692   2.7692   3.5334   3.5334   3.5641   3.9149
     3.9149   4.0157   4.0157   5.0903   5.0903   5.2261   5.5607   5.8316
     5.8316   5.9534   6.3140   6.3141   6.3706   6.3706   6.8113   6.9970
     6.9970   7.0605   7.0605   7.4484   7.4484   7.5303   8.0892   8.0892
     8.1059   8.1059   8.2889   8.2889   8.9963   8.9963   9.1442   9.1442
     9.2582   9.4458

          k = 0.0457 0.2284 0.3198 ( 20908 PWs)   bands (ev):

    -2.8225  -1.9936  -1.5809  -0.7593  -0.7592  -0.3504   0.0577   0.4632
     0.4642   0.4644   0.8677   0.8698   1.2731   1.2745   1.6775   2.0771
     2.4788   2.8770   2.8778   3.2535   3.2694   3.2748   3.6401   4.0223
     4.0663   4.1242   4.4380   4.4930   4.8065   5.2119   5.3305   5.5691
     6.0403   6.0589   6.0954   6.3415   6.3954   6.4197   6.4507   6.5138
     6.7779   6.8092   6.9169   7.1658   7.2515   7.3644   7.9295   8.1868
     8.2095   8.3630   8.3982   8.7411   8.7504   8.9617   8.9725   8.9787
     9.1690   9.4856

          k = 0.0457 0.2284 0.4111 ( 20907 PWs)   bands (ev):

    -2.6714  -2.2568  -1.4312  -1.0202  -0.6104  -0.2020  -0.2018   0.2055
     0.6108   0.6121   1.0159   1.0170   1.0173   1.4170   1.4210   2.6123
     2.6212   2.6239   3.0208   3.0220   3.4132   3.4173   3.8045   3.8127
     4.1652   4.5576   4.5892   4.6005   4.6351   4.9749   5.0237   5.4698
     5.7546   5.7958   5.8524   6.1503   6.1864   6.5311   6.5318   6.5901
     6.6272   6.9185   6.9810   7.0077   7.0548   7.3838   7.7453   8.1340
     8.1849   8.3275   8.3460   8.5394   8.7024   8.7217   8.9245   9.2609
     9.3242   9.8618

          k = 0.0457 0.2284-0.5025 ( 20920 PWs)   bands (ev):

    -2.4828  -2.4828  -1.2442  -1.2442  -0.4246  -0.4245  -0.0166  -0.0166
     0.7951   0.7952   0.7964   0.7965   1.2008   1.2009   1.9991   1.9991
     2.8048   2.8049   3.1977   3.1977   3.2013   3.2014   3.9889   3.9890
     4.3437   4.3437   4.3811   4.3811   5.1647   5.1647   5.1988   5.1988
     5.5897   5.5897   5.6437   5.6438   6.3209   6.3210   6.7069   6.7070
     6.7992   6.7993   7.1530   7.1530   7.2193   7.2194   7.5428   7.5429
     8.5063   8.5064   8.5130   8.5131   8.6904   8.6904   8.7146   8.7147
     9.8733   9.8733

          k = 0.0457 0.3198 0.3198 ( 20914 PWs)   bands (ev):

    -2.7092  -1.8809  -1.8809  -1.0575  -0.6477  -0.2391   0.1687   0.1687
     0.5750   0.5750   0.9781   0.9781   0.9805   1.3844   1.7849   1.7849
     2.9854   2.9854   3.3616   3.3616   3.3823   3.3823   3.7459   3.7459
     4.1520   4.1520   4.2333   4.2333   4.5657   5.2864   5.2864   5.4350
     5.7849   5.7850   6.1365   6.1365   6.1963   6.1963   6.5257   6.5257
     6.5559   6.8422   6.8422   6.9469   6.9729   7.0187   7.9346   7.9346
     8.6875   8.8538   8.8538   8.8820   8.8820   9.0626   9.0626   9.2405
     9.2405   9.2449

          k = 0.0457 0.3198 0.4111 ( 20943 PWs)   bands (ev):

    -2.5582  -2.1439  -1.7308  -1.3190  -0.4989  -0.0907  -0.0905   0.3165
     0.3167   0.7225   0.7228   1.1251   1.1274   1.5269   1.5287   2.3303
     2.7212   3.1295   3.5057   3.5165   3.5201   3.5247   3.5248   3.8880
     3.9011   3.9185   4.3769   4.6898   4.7430   5.0485   5.0961   5.5128
     5.5393   5.5741   5.8901   5.8960   5.9024   5.9560   6.2087   6.2780
     6.3774   6.7296   7.0857   7.1470   7.2306   7.4758   7.8185   8.0547
     8.2379   8.4382   8.6258   8.6491   9.0260   9.1941   9.3677   9.3773
     9.4122   9.5910

          k = 0.0457 0.3198-0.5025 ( 20940 PWs)   bands (ev):

    -2.3698  -2.3697  -1.5435  -1.5434  -0.3131  -0.3131   0.0945   0.0945
     0.5014   0.5015   0.9066   0.9067   1.3087   1.3088   2.1085   2.1085
     2.9081   2.9081   3.3085   3.3086   3.6855   3.6856   3.6996   3.6997
     4.0945   4.0945   4.4820   4.4820   4.9188   4.9188   5.3060   5.3060
     5.6539   5.6539   5.6835   5.6836   5.7479   5.7479   6.0671   6.0671
     6.5228   6.5229   7.2752   7.2753   7.6471   7.6471   8.0361   8.0361
     8.1147   8.1147   8.2261   8.2262   9.2020   9.2021   9.3490   9.3490
     9.9332   9.9847

          k = 0.0457 0.4111 0.4111 ( 20942 PWs)   bands (ev):

    -2.4074  -1.9936  -1.9936  -1.5809  -0.3502   0.0575   0.0577   0.0577
     0.4643   0.4643   0.4645   0.8699   1.6733   1.6733   2.0752   2.0752
     2.8661   2.8661   3.2640   3.2640   3.6669   3.6669   4.0285   4.0286
     4.0563   4.0563   4.5218   4.5218   4.8007   4.8007   5.2697   5.2697
     5.3023   5.3023   5.6201   5.6553   5.6553   5.7131   6.0918   6.0918
     6.4880   6.7456   6.7456   7.2390   7.6141   7.8364   7.8364   8.0032
     8.0891   8.1919   8.7630   8.7630   9.1501   9.1501   9.5447   9.5447
     9.9341   9.9343

          k = 0.0457 0.4111-0.5025 ( 20954 PWs)   bands (ev):

    -2.2192  -2.2191  -1.8059  -1.8058  -0.1647  -0.1646   0.2425   0.2426
     0.2427   0.2428   0.6487   0.6488   1.8561   1.8561   2.2542   2.2542
     2.6542   2.6542   3.0471   3.0472   3.8412   3.8413   4.2060   4.2061
     4.2318   4.2318   4.5933   4.5933   4.6993   4.6993   5.0621   5.0622
     5.0885   5.0885   5.4480   5.4481   5.8862   5.8863   6.1415   6.1415
     6.3088   6.3089   7.1626   7.1626   7.7588   7.7589   7.9868   7.9869
     8.1739   8.1739   8.5620   8.5620   9.3195   9.3195   9.7057   9.7057
     9.7234   9.7235

          k = 0.0457-0.5025-0.5025 ( 20964 PWs)   bands (ev):

    -2.0312  -2.0312  -2.0312  -2.0311   0.0206   0.0207   0.0207   0.0207
     0.4273   0.4273   0.4273   0.4274   2.4361   2.4361   2.4361   2.4362
     2.4362   2.4362   2.4362   2.4362   4.3805   4.3805   4.3805   4.3805
     4.3806   4.3806   4.3806   4.3806   4.8792   4.8792   4.8792   4.8792
     4.8792   4.8793   4.8793   4.8793   6.0568   6.0569   6.0569   6.0570
     6.7129   6.7129   6.7129   6.7129   7.8029   7.8030   7.8030   7.8030
     8.7320   8.7321   8.7321   8.7321   9.1192   9.1192   9.1192   9.1192
    10.2769  10.2770

          k = 0.1370 0.1370 0.1370 ( 20891 PWs)   bands (ev):

    -3.0494  -1.3938  -1.3938  -1.3938  -0.1652  -0.1652  -0.1652   0.2427
     0.2427   0.2427   1.4572   1.4572   1.4572   1.4572   1.4572   1.4572
     1.8604   2.6608   2.6608   2.6608   3.0538   3.0539   3.0539   4.2778
     4.2778   4.2779   4.5381   4.5381   4.5381   5.4545   6.0834   6.0834
     6.0834   6.0834   6.0834   6.0834   7.2515   7.2515   7.2515   7.2515
     7.2515   7.2515   7.2820   7.2820   7.2820   7.6550   7.6550   7.6550
     8.8118   8.8118   8.8118   8.8118   8.8124   8.8124   8.8124   8.8124
     8.8124   8.8124

          k = 0.1370 0.1370 0.2284 ( 20923 PWs)   bands (ev):

    -2.9738  -1.7308  -1.3190  -1.3190  -0.0911  -0.0911  -0.0905  -0.0905
     0.3155   0.3167   1.1269   1.1269   1.5305   1.5305   1.5313   1.9322
     1.9322   2.7319   2.7320   2.7333   3.1313   3.1313   3.4978   3.8791
     3.9795   4.6089   4.6089   4.7397   4.7398   5.4420   5.4420   5.7709
     5.7709   5.9181   6.1340   6.1340   6.6430   6.6430   7.0253   7.3301
     7.3301   7.3388   7.3388   7.3524   7.3524   7.6803   7.6804   8.0710
     8.1883   8.1883   8.4964   8.4964   8.5594   8.5594   8.9343   8.9343
     9.2669   9.2670

          k = 0.1370 0.1370 0.3198 ( 20912 PWs)   bands (ev):

    -2.8603  -2.0311  -1.2069  -1.2069  -0.3873  -0.3873   0.0201   0.0201
     0.4276   0.8309   0.8326   0.8326   1.2379   1.6404   1.6404   2.4414
     2.4414   2.4426   2.4426   2.8418   3.2174   3.6048   3.6353   3.6353
     4.0878   4.7151   4.7151   4.7937   4.7937   5.2387   5.2387   5.4907
     5.4907   5.9219   5.9219   6.3226   6.3226   6.3844   6.4156   7.0578
     7.0578   7.4386   7.4386   7.4573   7.4573   7.5520   7.5520   8.0245
     8.0245   8.2153   8.2153   8.4381   8.4381   8.7158   8.9275   9.0619
     9.0619   9.7554

          k = 0.1370 0.1370 0.4111 ( 20907 PWs)   bands (ev):

    -2.7092  -2.2944  -1.0575  -1.0575  -0.6476  -0.6476   0.1682   0.1682
     0.5746   0.5746   0.5753   0.9806   1.3803   1.7867   1.7867   2.1881
     2.1881   2.5760   2.9839   2.9839   2.9862   3.3776   4.1630   4.1630
     4.1717   4.1717   4.5991   4.8565   4.8565   5.2445   5.2445   5.3304
     5.3304   5.7603   5.7717   5.7717   6.4326   6.4326   6.8123   6.8123
     6.9316   6.9316   6.9461   7.5808   7.5808   7.5953   7.5953   7.9474
     7.9474   7.9689   7.9689   8.0993   8.7977   8.7977   9.2143   9.2143
     9.6138   9.6139

          k = 0.1370 0.1370-0.5025 ( 20942 PWs)   bands (ev):

    -2.5206  -2.5205  -0.8711  -0.8711  -0.8710  -0.8710   0.3530   0.3530
     0.3531   0.3531   0.7596   0.7597   1.9626   1.9626   1.9694   1.9694
     1.9694   1.9694   3.1655   3.1656   3.5585   3.5585   3.5585   3.5585
     4.7383   4.7383   4.7383   4.7383   5.0330   5.0330   5.0331   5.0331
     5.1630   5.1631   6.3368   6.3368   6.3368   6.3368   6.6030   6.6030
     6.6030   6.6031   7.5080   7.5080   7.7574   7.7574   7.7575   7.7575
     7.7631   7.7631   7.7632   7.7632   9.3282   9.3282   9.3282   9.3282
     9.3976   9.3976

          k = 0.1370 0.2284 0.2284 ( 20923 PWs)   bands (ev):

    -2.8981  -1.6559  -1.6559  -1.2442  -0.4244  -0.0169  -0.0163  -0.0163
     0.3894   0.3894   1.2004   1.2004   1.2012   1.6031   1.6031   2.0052
     2.0052   2.4063   3.1974   3.1974   3.2033   3.2033   3.5998   3.9507
     3.9507   4.4217   4.4217   4.6797   5.1250   5.1250   5.2035   5.5068
     5.5068   5.8370   5.8370   6.3808   6.7062   6.7062   6.7075   6.7075
     7.0228   7.0700   7.0700   7.4217   7.7760   7.7760   7.8709   7.8709
     8.1398   8.1398   8.6446   8.6446   8.6456   8.6456   8.9512   8.9512
     9.2811   9.2811

          k = 0.1370 0.2284 0.3198 ( 20935 PWs)   bands (ev):

    -2.7847  -1.9560  -1.5435  -1.1322  -0.7220  -0.3130   0.0942   0.0948
     0.5002   0.9045   0.9062   0.9071   1.3098   1.3105   2.1136   2.1147
     2.1153   2.5141   2.9123   3.2895   3.3110   3.6748   3.7066   4.0580
     4.1014   4.1613   4.4734   4.7857   4.8417   4.8626   4.9181   5.5596
     5.5845   5.7021   5.9229   6.0656   6.0951   6.4254   6.4591   6.7422
     6.8107   6.8772   7.2334   7.5236   7.5243   7.5884   7.8898   8.0100
     8.2413   8.2418   8.4042   8.6700   8.7582   8.9941   9.0586   9.1344
     9.1719   9.4397

          k = 0.1370 0.2284 0.4111 ( 20914 PWs)   bands (ev):

    -2.6337  -2.2192  -1.3938  -0.9829  -0.9828  -0.5731   0.2421   0.2428
     0.6477   0.6483   0.6491   1.0527   1.4536   1.4573   1.8599   2.2604
     2.6486   2.6575   2.6598   3.0562   3.4536   3.8177   3.8402   4.2009
     4.2337   4.2412   4.3043   4.5930   4.6343   4.9270   5.3144   5.3667
     5.4415   5.4509   5.7548   5.8313   6.1502   6.1799   6.2341   6.4978
     6.6120   6.9519   7.3409   7.3913   7.4064   7.6565   7.8589   8.0340
     8.3470   8.3743   8.4236   8.5569   8.5992   8.9037   8.9920   9.2980
     9.3020   9.6569

          k = 0.1370 0.2284-0.5025 ( 20926 PWs)   bands (ev):

    -2.4452  -2.4451  -1.2069  -1.2068  -0.7965  -0.7965   0.4269   0.4270
     0.4276   0.4277   0.8319   0.8320   1.6404   1.6405   2.0355   2.0356
     2.4422   2.4423   3.2337   3.2338   3.6286   3.6287   3.6301   3.6301
     4.3792   4.3793   4.8031   4.8031   4.8470   4.8470   5.1033   5.1033
     5.1943   5.1943   5.9741   5.9742   6.0164   6.0164   6.2925   6.2926
     6.7979   6.7979   7.1286   7.1287   7.8042   7.8043   7.9670   7.9670
     8.2116   8.2117   8.5266   8.5267   8.7457   8.7457   9.0835   9.0835
     9.4159   9.4159

          k = 0.1370 0.3198 0.3198 ( 20917 PWs)   bands (ev):

    -2.6714  -1.8434  -1.8434  -1.0202  -1.0201  -0.2017  -0.2017   0.2052
     0.6123   1.0149   1.0149   1.0166   1.0166   1.8215   1.8215   1.8233
     2.6230   2.6230   3.3976   3.3976   3.4122   3.4122   3.8125   3.8125
     4.1876   4.1876   4.5995   4.6369   4.6369   4.8916   4.9629   4.9629
     5.6608   5.6608   5.7836   5.7836   6.1771   6.1771   6.1997   6.4627
     6.9200   6.9200   6.9499   6.9499   7.3724   7.6208   8.3714   8.3714
     8.4916   8.4916   8.5015   8.5015   9.0912   9.0912   9.1586   9.1586
     9.2644   9.2864

          k = 0.1370 0.3198 0.4111 ( 20935 PWs)   bands (ev):

    -2.5205  -2.1063  -1.6933  -1.2816  -0.8710  -0.4616  -0.0533   0.3530
     0.3538   0.7589   1.1619   1.1637   1.5635   1.5653   1.5672   2.3667
     2.7574   2.7680   3.1642   3.1644   3.5416   3.5525   3.9220   3.9368
     3.9505   4.3388   4.3424   4.4147   5.0326   5.0742   5.1257   5.1625
     5.1668   5.4185   5.5414   5.5846   5.7821   6.2223   6.3138   6.3279
     6.3304   6.7018   6.7304   7.4034   7.7325   7.8844   7.9002   8.2831
     8.5200   8.6281   8.7053   8.8714   8.9119   9.0164   9.0256   9.0478
     9.2094   9.6803

          k = 0.1370 0.3198-0.5025 ( 20904 PWs)   bands (ev):

    -2.3321  -2.3321  -1.5061  -1.5060  -0.6848  -0.6847   0.1318   0.1319
     0.5377   0.5377   1.3454   1.3454   1.3472   1.3473   2.1449   2.1449
     2.9443   2.9443   2.9486   2.9487   3.7214   3.7215   3.7372   3.7373
     4.1010   4.1010   4.5909   4.5909   4.8766   4.8766   5.2084   5.2085
     5.3621   5.3622   5.6532   5.6532   5.7319   5.7319   6.0460   6.0460
     6.4895   6.4896   7.2927   7.2927   7.7560   7.7561   8.2735   8.2735
     8.4594   8.4594   8.6993   8.6993   8.8039   8.8040   9.2572   9.2573
     9.5812   9.5812

          k = 0.1370 0.4111 0.4111 ( 20942 PWs)   bands (ev):

    -2.3698  -1.9560  -1.9560  -1.5435  -0.7220  -0.3130  -0.3130   0.0949
     0.5008   0.9063   0.9063   1.3106   1.7099   1.7099   2.1116   2.1116
     2.9023   2.9023   3.3000   3.3000   3.3082   3.3082   3.6977   3.6977
     4.4542   4.4542   4.4756   4.4756   4.9224   4.9224   4.9452   4.9452
     5.1731   5.5550   5.5550   5.6192   5.6966   5.6966   6.0112   6.0796
     6.0796   6.8255   6.8255   7.2595   7.7215   8.2469   8.3935   8.3935
     8.4103   8.4103   8.4266   8.7702   9.0359   9.0359   9.4331   9.4331
     9.5542   9.5711

          k = 0.1370 0.4111-0.5025 ( 20944 PWs)   bands (ev):

    -2.1816  -2.1815  -1.7684  -1.7683  -0.5360  -0.5359  -0.1275  -0.1274
     0.6852   0.6853   1.0902   1.0902   1.8926   1.8927   2.2906   2.2906
     2.6905   2.6905   3.0832   3.0833   3.4868   3.4869   3.8790   3.8790
     4.2386   4.2386   4.6235   4.6235   4.7382   4.7383   5.1296   5.1296
     5.3478   5.3479   5.4843   5.4843   5.7117   5.7118   5.8682   5.8682
     6.2648   6.2648   7.3407   7.3407   7.8202   7.8202   8.2195   8.2196
     8.5612   8.5612   8.9675   8.9675   8.9842   8.9843   9.2191   9.2192
     9.5700   9.5700

          k = 0.1370-0.5025-0.5025 ( 20916 PWs)   bands (ev):

    -1.9937  -1.9936  -1.9936  -1.9935  -0.3502  -0.3501  -0.3501  -0.3501
     0.8694   0.8695   0.8695   0.8695   2.4725   2.4725   2.4725   2.4725
     2.4726   2.4726   2.4726   2.4726   4.0527   4.0527   4.0527   4.0527
     4.0528   4.0528   4.0528   4.0528   5.2765   5.2765   5.2765   5.2765
     5.2766   5.2766   5.2766   5.2766   5.5196   5.5197   5.5197   5.5198
     6.7934   6.7934   6.7934   6.7934   8.3601   8.3602   8.3602   8.3602
     8.3792   8.3792   8.3792   8.3792   9.5404   9.5404   9.5404   9.5405
     9.7682   9.7683

          k = 0.2284 0.2284 0.2284 ( 20909 PWs)   bands (ev):

    -2.8225  -1.5809  -1.5809  -1.5809  -0.3501  -0.3501  -0.3501   0.4632
     0.4632   0.4632   0.8703   1.6763   1.6763   1.6763   1.6763   1.6763
     1.6763   2.8762   2.8762   2.8762   3.6711   3.6711   3.6711   4.0222
     4.0222   4.0222   4.8828   4.8828   4.8828   5.1938   5.1938   5.1938
     5.1938   5.1938   5.1938   6.3901   6.3901   6.3901   6.8425   7.1528
     7.1528   7.1528   7.1528   7.1529   7.1529   8.2067   8.2067   8.2067
     8.3275   8.3275   8.3275   8.3275   8.3275   8.3275   9.3947   9.3948
     9.3948   9.3948

          k = 0.2284 0.2284 0.3198 ( 20914 PWs)   bands (ev):

    -2.7092  -1.8809  -1.4686  -1.4686  -0.6475  -0.6475  -0.2387   0.5740
     0.5740   0.5754   0.9781   1.3832   1.3832   1.7861   1.7861   2.1865
     2.1865   2.5872   2.5872   3.3616   3.3763   3.7771   4.1294   4.1294
     4.1710   4.1710   4.5438   4.5438   4.6014   4.9118   4.9119   5.2941
     5.2941   5.3811   5.3811   5.7480   6.1092   6.1092   6.5233   6.5233
     7.2634   7.2634   7.3378   7.6309   7.6309   7.6917   7.6918   8.0451
     8.0451   8.3039   8.3039   8.8176   8.8176   9.0564   9.1396   9.1396
     9.5181   9.5182

          k = 0.2284 0.2284 0.4111 ( 20929 PWs)   bands (ev):

    -2.5582  -2.1439  -1.3190  -1.3190  -0.9083  -0.9083  -0.0904   0.3169
     0.7214   0.7214   1.1262   1.1262   1.5269   1.9322   1.9322   2.3332
     2.3332   2.7211   2.7301   2.7301   3.8864   3.9117   3.9117   3.9152
     4.2722   4.2722   4.3789   4.6637   4.6637   4.6992   4.6992   5.1267
     5.4079   5.4079   5.8681   5.8681   5.9134   5.9134   5.9311   5.9311
     7.0721   7.0721   7.4069   7.4069   7.7975   7.7975   7.8658   8.1200
     8.1200   8.4201   8.4201   8.9344   8.9344   9.0136   9.3405   9.3405
     9.3932   9.3932

          k = 0.2284 0.2284-0.5025 ( 20942 PWs)   bands (ev):

    -2.3698  -2.3697  -1.1322  -1.1322  -1.1321  -1.1321   0.0948   0.0949
     0.9055   0.9055   0.9056   0.9056   2.1085   2.1085   2.1146   2.1146
     2.1147   2.1147   3.3058   3.3058   3.3058   3.3058   4.0659   4.0660
     4.4503   4.4503   4.4504   4.4504   4.5548   4.5548   5.2301   5.2301
     5.2301   5.2301   5.6908   5.6908   5.6909   5.6909   6.4779   6.4779
     6.4779   6.4779   7.5848   7.5848   7.5849   7.5849   8.4251   8.4251
     8.4662   8.4662   8.4662   8.4662   8.9359   8.9359   8.9359   8.9359
     9.8491   9.8502

          k = 0.2284 0.3198 0.3198 ( 20945 PWs)   bands (ev):

    -2.5960  -1.7683  -1.7683  -1.3564  -0.9455  -0.5359  -0.5359   0.2799
     0.6846   1.0884   1.0884   1.4932   1.4932   1.8946   1.8946   2.2958
     2.2958   2.2968   3.0920   3.0920   3.4696   3.4696   4.2365   4.2587
     4.2587   4.2724   4.2724   4.6486   4.6486   4.6644   5.0162   5.0162
     5.0968   5.0968   5.4702   5.4702   5.8327   5.8790   6.6283   6.6284
     7.0047   7.0047   7.4084   7.4084   7.7488   7.7488   7.8319   8.1836
     8.1836   8.3845   8.5353   8.5353   9.1389   9.1389   9.2495   9.2496
     9.3783   9.9651

          k = 0.2284 0.3198 0.4111 ( 20932 PWs)   bands (ev):

    -2.4451  -2.0311  -1.6184  -1.2068  -1.2068  -0.7965  -0.3872   0.0209
     0.8320   1.2353   1.2364   1.6367   1.6386   1.6397   2.0417   2.4394
     2.4413   2.8299   2.8388   2.8400   3.6135   3.6243   3.6259   4.0083
     4.0184   4.3790   4.3845   4.7695   4.7728   4.7848   4.8521   4.8733
     5.1522   5.1614   5.2554   5.6203   5.6286   6.0136   6.3951   6.4102
     6.7700   6.7880   7.1603   7.5160   7.5657   7.8953   8.2620   8.2877
     8.3585   8.3977   8.7082   8.8942   9.0189   9.0583   9.1587   9.3930
     9.5035   9.6128

          k = 0.2284 0.3198-0.5025 ( 20914 PWs)   bands (ev):

    -2.2568  -2.2568  -1.4312  -1.4311  -1.0202  -1.0201  -0.2016  -0.2016
     1.0159   1.0160   1.4187   1.4188   1.8226   1.8227   2.2178   2.2178
     2.6228   2.6228   3.0166   3.0167   3.4137   3.4137   3.7931   3.7932
     4.1676   4.1676   4.5568   4.5569   4.6673   4.6674   4.9325   4.9326
     5.3019   5.3020   5.4483   5.4483   5.8307   5.8307   6.1933   6.1933
     6.9473   6.9474   6.9731   6.9732   8.0340   8.0340   8.0744   8.0745
     8.7849   8.7849   8.8473   8.8473   8.9164   8.9164   9.2643   9.2643
     9.6127   9.6128

          k = 0.2284 0.4111 0.4111 ( 20923 PWs)   bands (ev):

    -2.2944  -1.8809  -1.8809  -1.4686  -1.0575  -0.6475  -0.6475  -0.2387
     0.9792   1.3832   1.3832   1.7830   1.7830   1.7861   2.1845   2.1845
     2.9747   2.9747   2.9834   2.9834   3.3721   3.3721   3.3787   3.3787
     4.1597   4.1597   4.5171   4.5171   4.5212   4.9095   4.9095   5.0249
     5.0249   5.2666   5.3807   5.3807   5.7969   6.1507   6.1507   6.5394
     6.5394   6.9111   6.9111   6.9399   8.0041   8.0921   8.0921   8.4148
     8.4148   8.8104   8.8104   8.8169   8.8837   9.1537   9.1537   9.2371
     9.5167   9.5168

          k = 0.2284 0.4111-0.5025 ( 20944 PWs)   bands (ev):

    -2.1064  -2.1063  -1.6934  -1.6933  -0.8710  -0.8709  -0.4616  -0.4615
     1.1630   1.1630   1.5665   1.5666   1.9656   1.9657   2.3634   2.3634
     2.7630   2.7630   3.1555   3.1556   3.1636   3.1637   3.5571   3.5571
     3.9452   3.9452   4.3326   4.3326   4.6982   4.6983   5.0811   5.0812
     5.1726   5.1727   5.5610   5.5610   5.9447   5.9447   6.3267   6.3268
     6.3297   6.3297   7.4554   7.4554   7.5013   7.5013   8.5962   8.5963
     8.6499   8.6499   8.9550   8.9550   8.9610   8.9610   9.3276   9.3277
     9.3643   9.3643

          k = 0.2284-0.5025-0.5025 ( 20884 PWs)   bands (ev):

    -1.9185  -1.9185  -1.9185  -1.9184  -0.6848  -0.6847  -0.6847  -0.6846
     1.3465   1.3466   1.3466   1.3466   2.5452   2.5452   2.5452   2.5452
     2.5452   2.5452   2.5453   2.5453   3.7352   3.7352   3.7352   3.7352
     3.7352   3.7352   3.7353   3.7353   4.8739   4.8739   4.8739   4.8740
     5.7329   5.7329   5.7329   5.7329   5.7330   5.7330   5.7330   5.7330
     6.8793   6.8793   6.8793   6.8793   8.0609   8.0609   8.0609   8.0609
     9.1209   9.1209   9.1481   9.1481   9.1482   9.1482   9.1482   9.1482
     9.1482   9.1482

          k = 0.3198 0.3198 0.3198 ( 20933 PWs)   bands (ev):

    -2.4828  -1.6559  -1.6559  -1.6559  -0.8337  -0.8337  -0.8337  -0.0162
     1.1986   1.1986   1.1986   2.0041   2.0041   2.0041   2.0041   2.0041
     2.0041   2.8037   2.8037   2.8037   3.5776   3.5776   3.5776   4.3650
     4.3650   4.3650   4.3650   4.3650   4.3650   4.7382   4.7382   4.7382
     5.2197   5.2197   5.2197   5.5940   5.5940   5.5941   7.1163   7.1163
     7.1163   7.1163   7.1163   7.1163   7.9006   7.9006   7.9006   7.9006
     7.9006   7.9006   8.3247   9.1248   9.1248   9.1248   9.5974   9.5974
     9.5974  10.0850

          k = 0.3198 0.3198 0.4111 ( 20912 PWs)   bands (ev):

    -2.3321  -1.9185  -1.5060  -1.5060  -1.0948  -1.0948  -0.6847  -0.2758
     1.3454   1.3454   1.7464   1.7483   1.7483   2.1500   2.1500   2.5485
     2.5485   2.5502   2.5502   2.9385   3.3426   3.7213   3.7213   3.7318
     3.7318   4.1154   4.1154   4.4817   4.5057   4.5057   4.8617   4.8617
     4.9899   5.3460   5.3795   5.3795   6.1254   6.1254   6.5004   6.5004
     7.2605   7.2605   7.2819   7.2819   7.6359   7.6359   7.6524   7.6524
     8.4254   8.4254   8.7319   8.7319   8.8500   9.4938   9.5181   9.5181
     9.5673   9.5673

          k = 0.3198 0.3198-0.5025 ( 20952 PWs)   bands (ev):

    -2.1440  -2.1439  -1.3190  -1.3190  -1.3189  -1.3189  -0.4987  -0.4987
     1.5287   1.5287   1.5287   1.5288   2.3270   2.3270   2.3321   2.3321
     2.3321   2.3322   3.1250   3.1250   3.1250   3.1250   3.9006   3.9006
     3.9007   3.9007   3.9093   3.9094   4.6778   4.6778   4.6779   4.6779
     5.1378   5.1379   5.9135   5.9135   5.9135   5.9135   6.6888   6.6888
     6.6888   6.6888   7.4390   7.4390   7.4391   7.4391   8.1813   8.1813
     8.1813   8.1813   8.9816   8.9816   8.9817   8.9817   9.4066   9.4066
     9.6560   9.6561

          k = 0.3198 0.4111 0.4111 ( 20951 PWs)   bands (ev):

    -2.1816  -1.7683  -1.7683  -1.3564  -1.3563  -0.9455  -0.9455  -0.5359
     1.4921   1.8926   1.8926   1.8946   1.8946   2.2938   2.2938   2.2957
     2.6936   2.6936   3.0832   3.0832   3.0913   3.0913   3.4801   3.4801
     3.8647   3.8747   3.8747   4.2576   4.2576   4.2611   4.2611   4.6422
     5.4925   5.4925   5.8766   5.8766   5.8799   6.6423   6.6423   6.6555
     7.0230   7.0230   7.0333   7.0333   7.7834   7.7834   7.8087   7.8087
     8.1528   8.1771   8.1771   8.9125   8.9125   8.9543   9.3181   9.3181
     9.3740   9.6253

          k = 0.3198 0.4111-0.5025 ( 20940 PWs)   bands (ev):

    -1.9936  -1.9935  -1.5810  -1.5809  -1.1695  -1.1694  -0.7592  -0.7591
     1.6751   1.6752   2.0751   2.0752   2.0770   2.0771   2.4725   2.4725
     2.8717   2.8717   2.8747   2.8748   3.2638   3.2638   3.2693   3.2693
     3.6632   3.6632   4.0436   4.0437   4.0520   4.0521   4.4341   4.4342
     5.6646   5.6647   6.0507   6.0507   6.4351   6.4352   6.4399   6.4400
     6.8200   6.8201   7.2173   7.2173   7.5760   7.5761   7.9633   7.9633
     8.3359   8.3359   8.3668   8.3668   8.7331   8.7332   9.1012   9.1013
     9.7896   9.7897

          k = 0.3198-0.5025-0.5025 ( 20932 PWs)   bands (ev):

    -1.8059  -1.8059  -1.8059  -1.8058  -0.9829  -0.9828  -0.9828  -0.9827
     1.8579   1.8580   1.8580   1.8581   2.6541   2.6541   2.6541   2.6541
     2.6542   2.6542   2.6542   2.6542   3.4489   3.4489   3.4489   3.4489
     3.4490   3.4490   3.4490   3.4490   4.2217   4.2218   4.2218   4.2219
     6.2270   6.2270   6.2270   6.2270   6.2270   6.2270   6.2270   6.2270
     6.9913   6.9914   6.9914   6.9914   7.7774   7.7774   7.7774   7.7774
     8.5183   8.5183   8.5183   8.5183   8.5184   8.5184   8.5184   8.5184
     9.9618   9.9619

          k = 0.4111 0.4111 0.4111 ( 20906 PWs)   bands (ev):

    -2.0312  -1.6184  -1.6184  -1.6184  -1.2068  -1.2068  -1.2068  -0.7964
     2.0387   2.0387   2.0387   2.4394   2.4394   2.4394   2.4394   2.4394
     2.4394   2.8385   2.8385   2.8385   3.2277   3.2277   3.2277   3.6238
     3.6238   3.6238   3.6238   3.6238   3.6238   4.0162   4.0162   4.0162
     6.0171   6.0171   6.0171   6.4065   6.4065   6.4065   7.1676   7.1676
     7.1676   7.1676   7.1676   7.1676   7.5601   7.5601   7.5601   7.5601
     7.5601   7.5601   8.3079   8.3079   8.3079   8.7057   8.7057   8.7057
     9.8966  10.5078

          k = 0.4111 0.4111-0.5025 ( 20904 PWs)   bands (ev):

    -1.8434  -1.8433  -1.4312  -1.4312  -1.4311  -1.4311  -1.0202  -1.0201
     2.2209   2.2209   2.2210   2.2210   2.6178   2.6178   2.6210   2.6210
     2.6210   2.6210   3.0164   3.0164   3.0165   3.0165   3.4079   3.4079
     3.4080   3.4080   3.4129   3.4129   3.8027   3.8028   3.8028   3.8028
     6.1934   6.1935   6.5772   6.5772   6.5772   6.5772   6.9685   6.9685
     6.9685   6.9685   7.3464   7.3464   7.3465   7.3465   7.7239   7.7239
     7.7239   7.7240   8.1183   8.1183   8.1183   8.1183   8.4906   8.4907
    10.4504  10.4504

          k = 0.4111-0.5025-0.5025 ( 20892 PWs)   bands (ev):

    -1.6559  -1.6559  -1.6559  -1.6558  -1.2443  -1.2442  -1.2442  -1.2441
     2.4029   2.4030   2.4030   2.4031   2.7992   2.7992   2.7992   2.7992
     2.7992   2.7992   2.7992   2.7992   3.1969   3.1969   3.1969   3.1969
     3.1970   3.1970   3.1970   3.1970   3.5877   3.5878   3.5878   3.5878
     6.7550   6.7550   6.7550   6.7550   6.7551   6.7551   6.7551   6.7551
     7.1360   7.1360   7.1360   7.1360   7.5287   7.5287   7.5287   7.5287
     7.9041   7.9041   7.9041   7.9042   7.9042   7.9042   7.9042   7.9042
    10.8518  10.8519

          k =-0.5025-0.5025-0.5025 ( 20840 PWs)   bands (ev):

    -1.4687  -1.4686  -1.4686  -1.4686  -1.4685  -1.4685  -1.4685  -1.4685
     2.9801   2.9801   2.9802   2.9802   2.9802   2.9802   2.9802   2.9802
     2.9802   2.9802   2.9802   2.9802   2.9802   2.9802   2.9802   2.9803
     2.9803   2.9803   2.9803   2.9803   2.9803   2.9803   2.9803   2.9803
     7.3149   7.3149   7.3149   7.3149   7.3149   7.3149   7.3149   7.3149
     7.3150   7.3150   7.3150   7.3150   7.3150   7.3150   7.3150   7.3150
     7.3150   7.3150   7.3150   7.3150   7.3150   7.3150   7.3150   7.3150
    11.5535  11.5535

     the Fermi energy is     8.0852 ev

!    total energy              =   -1264.08529352 Ry
     Harris-Foulkes estimate   =   -1264.08529365 Ry
     estimated scf accuracy    <       0.00000044 Ry

     total all-electron energy =    -15540.654316 Ry

     The total energy is the sum of the following terms:

     one-electron contribution =     102.50425373 Ry
     hartree contribution      =       0.20004397 Ry
     xc contribution           =     -83.19275613 Ry
     ewald contribution        =    -173.86986747 Ry
     one-center paw contrib.   =   -1109.72447230 Ry
     smearing contrib. (-TS)   =      -0.00249533 Ry

     convergence has been achieved in   9 iterations

     Forces acting on atoms (cartesian axes, Ry/au):

     atom    1 type  1   force =     0.00000000    0.00000000    0.00000000
     atom    2 type  1   force =     0.00001124    0.00001124   -0.00000000
     atom    3 type  1   force =     0.00001124   -0.00000000    0.00001124
     atom    4 type  1   force =     0.00000000    0.00001124    0.00001124
     atom    5 type  1   force =     0.00000000    0.00000000    0.00000000
     atom    6 type  1   force =     0.00000321    0.00000321   -0.00000000
     atom    7 type  1   force =     0.00001124    0.00000000   -0.00001124
     atom    8 type  1   force =    -0.00000000    0.00001124   -0.00001124
     atom    9 type  1   force =     0.00000000    0.00000000    0.00000000
     atom   10 type  1   force =     0.00001124   -0.00001124   -0.00000000
     atom   11 type  1   force =     0.00000321    0.00000000    0.00000321
     atom   12 type  1   force =    -0.00000000   -0.00001124    0.00001124
     atom   13 type  1   force =     0.00000000    0.00000000    0.00000000
     atom   14 type  1   force =     0.00000321   -0.00000321   -0.00000000
     atom   15 type  1   force =     0.00000321   -0.00000000   -0.00000321
     atom   16 type  1   force =     0.00000000   -0.00001124   -0.00001124
     atom   17 type  1   force =     0.00000000    0.00000000    0.00000000
     atom   18 type  1   force =    -0.00001124    0.00001124   -0.00000000
     atom   19 type  1   force =    -0.00001124    0.00000000    0.00001124
     atom   20 type  1   force =     0.00000000    0.00000321    0.00000321
     atom   21 type  1   force =     0.00000000    0.00000000    0.00000000
     atom   22 type  1   force =    -0.00000321    0.00000321    0.00000000
     atom   23 type  1   force =    -0.00001124    0.00000000   -0.00001124
     atom   24 type  1   force =    -0.00000000    0.00000321   -0.00000321
     atom   25 type  1   force =     0.00000000    0.00000000    0.00000000
     atom   26 type  1   force =    -0.00001124   -0.00001124   -0.00000000
     atom   27 type  1   force =    -0.00000321    0.00000000    0.00000321
     atom   28 type  1   force =    -0.00000000   -0.00000321    0.00000321
     atom   29 type  1   force =     0.00000000    0.00000000   -0.00000000
     atom   30 type  1   force =    -0.00000321   -0.00000321    0.00000000
     atom   31 type  1   force =    -0.00000321    0.00000000   -0.00000321
     atom   32 type  1   force =    -0.00000000   -0.00000321   -0.00000321

     Total force =     0.000057     Total SCF correction =     0.000367
     SCF correction compared to forces is large: reduce conv_thr to get better values


     Computing stress (Cartesian axis) and pressure

          total   stress  (Ry/bohr**3)                   (kbar)     P=   12.28
   0.00008345   0.00000000   0.00000000         12.28      0.00      0.00
   0.00000000   0.00008345   0.00000000          0.00     12.28      0.00
   0.00000000   0.00000000   0.00008345          0.00      0.00     12.28


     Writing output data file aqheSNoiRnXtiCXg.save/
 
     init_run     :      6.33s CPU      6.51s WALL (       1 calls)
     electrons    :    101.60s CPU    103.58s WALL (       1 calls)
     forces       :      1.14s CPU      1.19s WALL (       1 calls)
     stress       :      5.79s CPU      5.82s WALL (       1 calls)

     Called by init_run:
     wfcinit      :      6.02s CPU      6.17s WALL (       1 calls)
     potinit      :      0.08s CPU      0.09s WALL (       1 calls)
     hinit0       :      0.08s CPU      0.10s WALL (       1 calls)

     Called by electrons:
     c_bands      :     88.87s CPU     90.44s WALL (      10 calls)
     sum_band     :     12.00s CPU     12.33s WALL (      10 calls)
     v_of_rho     :      0.11s CPU      0.12s WALL (      10 calls)
     newd         :      0.07s CPU      0.11s WALL (      10 calls)
     PAW_pot      :      0.57s CPU      0.58s WALL (      10 calls)
     mix_rho      :      0.02s CPU      0.03s WALL (      10 calls)

     Called by c_bands:
     init_us_2    :      1.76s CPU      1.79s WALL (    1288 calls)
     cegterg      :     83.80s CPU     85.30s WALL (     560 calls)

     Called by sum_band:
     sum_band:bec :      0.06s CPU      0.06s WALL (     560 calls)
     addusdens    :      0.06s CPU      0.09s WALL (      10 calls)

     Called by *egterg:
     h_psi        :     60.97s CPU     62.23s WALL (    2332 calls)
     s_psi        :      4.81s CPU      4.84s WALL (    2332 calls)
     g_psi        :      0.23s CPU      0.23s WALL (    1716 calls)
     cdiaghg      :     12.08s CPU     12.13s WALL (    2220 calls)

     Called by h_psi:
     h_psi:pot    :     60.59s CPU     61.85s WALL (    2332 calls)
     h_psi:calbec :      5.06s CPU      5.40s WALL (    2332 calls)
     vloc_psi     :     50.47s CPU     51.36s WALL (    2332 calls)
     add_vuspsi   :      5.04s CPU      5.07s WALL (    2332 calls)

     General routines
     calbec       :      8.68s CPU      9.20s WALL (    3172 calls)
     fft          :      0.16s CPU      0.19s WALL (     137 calls)
     ffts         :      0.01s CPU      0.01s WALL (      10 calls)
     fftw         :     55.46s CPU     56.44s WALL (  220908 calls)
 
     Parallel routines
     fft_scatt_xy :      5.08s CPU      5.17s WALL (  221055 calls)
     fft_scatt_yz :     32.83s CPU     33.45s WALL (  221055 calls)
 
     PWSCF        :  1m56.27s CPU     2m 2.22s WALL

 
   This run was terminated on:   3:11:58  25Mar2020            

=------------------------------------------------------------------------------=
   JOB DONE.
=------------------------------------------------------------------------------=
