--------------------------------------------------------------------------
WARNING: There was an error initializing an OpenFabrics device.

  Local host:   bear-pg0211u08a
  Local device: mlx5_0
--------------------------------------------------------------------------

     Program PWSCF v.6.3 starts on 25Mar2020 at  3:26:12 

     This program is part of the open-source Quantum ESPRESSO suite
     for quantum simulation of materials; please cite
         "P. Giannozzi et al., J. Phys.:Condens. Matter 21 395502 (2009);
         "P. Giannozzi et al., J. Phys.:Condens. Matter 29 465901 (2017);
          URL http://www.quantum-espresso.org", 
     in publications or presentations arising from this work. More details at
     http://www.quantum-espresso.org/quote

     Parallel version (MPI & OpenMP), running on      20 processor cores
     Number of MPI processes:                20
     Threads/MPI process:                     1

     MPI processes distributed on     1 nodes
     R & G space division:  proc/nbgrp/npool/nimage =      20
     Reading input from /rds/homes/b/bxp912/jobs/20200324_al_eos_e/wd/pwscf_eos/eos_9.in
Warning: card &IONS ignored
Warning: card ION_DYNAMICS = 'BFGS', ignored
Warning: card / ignored
Warning: card &CELL ignored
Warning: card CELL_DYNAMICS = 'BFGS', ignored
Warning: card CELL_FACTOR = 2.0, ignored
Warning: card PRESS = 0.0, ignored
Warning: card / ignored

     Current dimensions of program PWSCF are:
     Max number of different atomic species (ntypx) = 10
     Max number of k-points (npk) =  40000
     Max angular momentum in pseudopotentials (lmaxx) =  3
     Message from routine read_upf::
     Pseudo file /rds/homes/b/bxp912/pp/Al.pbe-nl-kjpaw_psl.1.0.0.UPF has been successfully fixed on the fly.
To avoid this message in the future you can permanently fix 
 your pseudo files following instructions given in: 
https://gitlab.com/QEF/q-e/blob/master/upftools/how_to_fix_upf.md
               file Al.pbe-nl-kjpaw_psl.1.0.0.UPF: wavefunction(s)  3S 3P renormalized

     Subspace diagonalization in iterative solution of the eigenvalue problem:
     a serial algorithm will be used

     Found symmetry operation: I + (  0.2500  0.2500  0.0000)
     This is a supercell, fractional translations are disabled
 
     Parallelization info
     --------------------
     sticks:   dense  smooth     PW     G-vecs:    dense   smooth      PW
     Min         186     186     51                 8568     8568    1241
     Max         187     187     52                 8571     8571    1244
     Sum        3729    3729   1033               171405   171405   24837
 


     bravais-lattice index     =            0
     lattice parameter (alat)  =      15.2652  a.u.
     unit-cell volume          =    3589.2761 (a.u.)^3
     number of atoms/cell      =           32
     number of atomic types    =            1
     number of electrons       =        96.00
     number of Kohn-Sham states=           58
     kinetic-energy cutoff     =      50.0000  Ry
     charge density cutoff     =     200.0000  Ry
     convergence threshold     =      1.0E-06
     mixing beta               =       0.1000
     number of iterations used =           10  plain     mixing
     Exchange-correlation      = SLA PW PBX PBC ( 1  4  3  4 0 0)

     celldm(1)=  15.265160  celldm(2)=   0.000000  celldm(3)=   0.000000
     celldm(4)=   0.000000  celldm(5)=   0.000000  celldm(6)=   0.000000

     crystal axes: (cart. coord. in units of alat)
               a(1) = (   1.003000   0.000000   0.000000 )  
               a(2) = (   0.000000   1.003000   0.000000 )  
               a(3) = (   0.000000   0.000000   1.003000 )  

     reciprocal axes: (cart. coord. in units 2 pi/alat)
               b(1) = (  0.997009  0.000000  0.000000 )  
               b(2) = (  0.000000  0.997009  0.000000 )  
               b(3) = (  0.000000  0.000000  0.997009 )  


     PseudoPot. # 1 for Al read from file:
     /rds/homes/b/bxp912/pp/Al.pbe-nl-kjpaw_psl.1.0.0.UPF
     MD5 check sum: 339dbea23cf3ab9a065ad45c0f9085d7
     Pseudo is Projector augmented-wave + core cor, Zval =  3.0
     Generated using "atomic" code by A. Dal Corso v.5.1
     Shape of augmentation charge: PSQ
     Using radial grid of 1135 points,  4 beta functions with: 
                l(1) =   0
                l(2) =   0
                l(3) =   1
                l(4) =   1
     Q(r) pseudized with 0 coefficients 


     atomic species   valence    mass     pseudopotential
        Al             3.00    26.98200     Al( 1.00)

     48 Sym. Ops., with inversion, found



   Cartesian axes

     site n.     atom                  positions (alat units)
         1           Al  tau(   1) = (   0.0000000   0.0000000   0.0000000  )
         2           Al  tau(   2) = (   0.2507500   0.2507500   0.0000000  )
         3           Al  tau(   3) = (   0.2507500   0.0000000   0.2507500  )
         4           Al  tau(   4) = (   0.0000000   0.2507500   0.2507500  )
         5           Al  tau(   5) = (   0.0000000   0.0000000   0.5015000  )
         6           Al  tau(   6) = (   0.2507500   0.2507500   0.5015000  )
         7           Al  tau(   7) = (   0.2507500   0.0000000   0.7522500  )
         8           Al  tau(   8) = (   0.0000000   0.2507500   0.7522500  )
         9           Al  tau(   9) = (   0.0000000   0.5015000   0.0000000  )
        10           Al  tau(  10) = (   0.2507500   0.7522500   0.0000000  )
        11           Al  tau(  11) = (   0.2507500   0.5015000   0.2507500  )
        12           Al  tau(  12) = (   0.0000000   0.7522500   0.2507500  )
        13           Al  tau(  13) = (   0.0000000   0.5015000   0.5015000  )
        14           Al  tau(  14) = (   0.2507500   0.7522500   0.5015000  )
        15           Al  tau(  15) = (   0.2507500   0.5015000   0.7522500  )
        16           Al  tau(  16) = (   0.0000000   0.7522500   0.7522500  )
        17           Al  tau(  17) = (   0.5015000   0.0000000   0.0000000  )
        18           Al  tau(  18) = (   0.7522500   0.2507500   0.0000000  )
        19           Al  tau(  19) = (   0.7522500   0.0000000   0.2507500  )
        20           Al  tau(  20) = (   0.5015000   0.2507500   0.2507500  )
        21           Al  tau(  21) = (   0.5015000   0.0000000   0.5015000  )
        22           Al  tau(  22) = (   0.7522500   0.2507500   0.5015000  )
        23           Al  tau(  23) = (   0.7522500   0.0000000   0.7522500  )
        24           Al  tau(  24) = (   0.5015000   0.2507500   0.7522500  )
        25           Al  tau(  25) = (   0.5015000   0.5015000   0.0000000  )
        26           Al  tau(  26) = (   0.7522500   0.7522500   0.0000000  )
        27           Al  tau(  27) = (   0.7522500   0.5015000   0.2507500  )
        28           Al  tau(  28) = (   0.5015000   0.7522500   0.2507500  )
        29           Al  tau(  29) = (   0.5015000   0.5015000   0.5015000  )
        30           Al  tau(  30) = (   0.7522500   0.7522500   0.5015000  )
        31           Al  tau(  31) = (   0.7522500   0.5015000   0.7522500  )
        32           Al  tau(  32) = (   0.5015000   0.7522500   0.7522500  )

     number of k points=    56  Marzari-Vanderbilt smearing, width (Ry)=  0.0400
                       cart. coord. in units 2pi/alat
        k(    1) = (   0.0453186   0.0453186   0.0453186), wk =   0.0120210
        k(    2) = (   0.0453186   0.0453186   0.1359558), wk =   0.0360631
        k(    3) = (   0.0453186   0.0453186   0.2265929), wk =   0.0360631
        k(    4) = (   0.0453186   0.0453186   0.3172301), wk =   0.0360631
        k(    5) = (   0.0453186   0.0453186   0.4078673), wk =   0.0360631
        k(    6) = (   0.0453186   0.0453186  -0.4985045), wk =   0.0180316
        k(    7) = (   0.0453186   0.1359558   0.1359558), wk =   0.0360631
        k(    8) = (   0.0453186   0.1359558   0.2265929), wk =   0.0721262
        k(    9) = (   0.0453186   0.1359558   0.3172301), wk =   0.0721262
        k(   10) = (   0.0453186   0.1359558   0.4078673), wk =   0.0721262
        k(   11) = (   0.0453186   0.1359558  -0.4985045), wk =   0.0360631
        k(   12) = (   0.0453186   0.2265929   0.2265929), wk =   0.0360631
        k(   13) = (   0.0453186   0.2265929   0.3172301), wk =   0.0721262
        k(   14) = (   0.0453186   0.2265929   0.4078673), wk =   0.0721262
        k(   15) = (   0.0453186   0.2265929  -0.4985045), wk =   0.0360631
        k(   16) = (   0.0453186   0.3172301   0.3172301), wk =   0.0360631
        k(   17) = (   0.0453186   0.3172301   0.4078673), wk =   0.0721262
        k(   18) = (   0.0453186   0.3172301  -0.4985045), wk =   0.0360631
        k(   19) = (   0.0453186   0.4078673   0.4078673), wk =   0.0360631
        k(   20) = (   0.0453186   0.4078673  -0.4985045), wk =   0.0360631
        k(   21) = (   0.0453186  -0.4985045  -0.4985045), wk =   0.0090158
        k(   22) = (   0.1359558   0.1359558   0.1359558), wk =   0.0120210
        k(   23) = (   0.1359558   0.1359558   0.2265929), wk =   0.0360631
        k(   24) = (   0.1359558   0.1359558   0.3172301), wk =   0.0360631
        k(   25) = (   0.1359558   0.1359558   0.4078673), wk =   0.0360631
        k(   26) = (   0.1359558   0.1359558  -0.4985045), wk =   0.0180316
        k(   27) = (   0.1359558   0.2265929   0.2265929), wk =   0.0360631
        k(   28) = (   0.1359558   0.2265929   0.3172301), wk =   0.0721262
        k(   29) = (   0.1359558   0.2265929   0.4078673), wk =   0.0721262
        k(   30) = (   0.1359558   0.2265929  -0.4985045), wk =   0.0360631
        k(   31) = (   0.1359558   0.3172301   0.3172301), wk =   0.0360631
        k(   32) = (   0.1359558   0.3172301   0.4078673), wk =   0.0721262
        k(   33) = (   0.1359558   0.3172301  -0.4985045), wk =   0.0360631
        k(   34) = (   0.1359558   0.4078673   0.4078673), wk =   0.0360631
        k(   35) = (   0.1359558   0.4078673  -0.4985045), wk =   0.0360631
        k(   36) = (   0.1359558  -0.4985045  -0.4985045), wk =   0.0090158
        k(   37) = (   0.2265929   0.2265929   0.2265929), wk =   0.0120210
        k(   38) = (   0.2265929   0.2265929   0.3172301), wk =   0.0360631
        k(   39) = (   0.2265929   0.2265929   0.4078673), wk =   0.0360631
        k(   40) = (   0.2265929   0.2265929  -0.4985045), wk =   0.0180316
        k(   41) = (   0.2265929   0.3172301   0.3172301), wk =   0.0360631
        k(   42) = (   0.2265929   0.3172301   0.4078673), wk =   0.0721262
        k(   43) = (   0.2265929   0.3172301  -0.4985045), wk =   0.0360631
        k(   44) = (   0.2265929   0.4078673   0.4078673), wk =   0.0360631
        k(   45) = (   0.2265929   0.4078673  -0.4985045), wk =   0.0360631
        k(   46) = (   0.2265929  -0.4985045  -0.4985045), wk =   0.0090158
        k(   47) = (   0.3172301   0.3172301   0.3172301), wk =   0.0120210
        k(   48) = (   0.3172301   0.3172301   0.4078673), wk =   0.0360631
        k(   49) = (   0.3172301   0.3172301  -0.4985045), wk =   0.0180316
        k(   50) = (   0.3172301   0.4078673   0.4078673), wk =   0.0360631
        k(   51) = (   0.3172301   0.4078673  -0.4985045), wk =   0.0360631
        k(   52) = (   0.3172301  -0.4985045  -0.4985045), wk =   0.0090158
        k(   53) = (   0.4078673   0.4078673   0.4078673), wk =   0.0120210
        k(   54) = (   0.4078673   0.4078673  -0.4985045), wk =   0.0180316
        k(   55) = (   0.4078673  -0.4985045  -0.4985045), wk =   0.0090158
        k(   56) = (  -0.4985045  -0.4985045  -0.4985045), wk =   0.0015026

     Dense  grid:   171405 G-vectors     FFT dimensions: (  72,  72,  72)

     Estimated max dynamical RAM per process >      82.52 MB

     Estimated total dynamical RAM >       1.61 GB

     Initial potential from superposition of free atoms

     starting charge   95.92671, renormalised to   96.00000
     Starting wfcs are  128 randomized atomic wfcs
     Checking if some PAW data can be deallocated... 

     total cpu time spent up to now is        7.3 secs

     Self-consistent Calculation

     iteration #  1     ecut=    50.00 Ry     beta= 0.10
     Davidson diagonalization with overlap
     ethr =  1.00E-02,  avg # of iterations =  3.1

     Threshold (ethr) on eigenvalues was too large:
     Diagonalizing with lowered threshold

     Davidson diagonalization with overlap
     ethr =  1.91E-04,  avg # of iterations =  4.6

     total cpu time spent up to now is       32.0 secs

     total energy              =   -1264.12375182 Ry
     Harris-Foulkes estimate   =   -1264.13312467 Ry
     estimated scf accuracy    <       0.17954011 Ry

     iteration #  2     ecut=    50.00 Ry     beta= 0.10
     Davidson diagonalization with overlap
     ethr =  1.87E-04,  avg # of iterations =  1.0

     total cpu time spent up to now is       39.5 secs

     total energy              =   -1264.08323422 Ry
     Harris-Foulkes estimate   =   -1264.12452849 Ry
     estimated scf accuracy    <       0.14419086 Ry

     iteration #  3     ecut=    50.00 Ry     beta= 0.10
     Davidson diagonalization with overlap
     ethr =  1.50E-04,  avg # of iterations =  1.0

     total cpu time spent up to now is       47.0 secs

     total energy              =   -1264.08596763 Ry
     Harris-Foulkes estimate   =   -1264.08597317 Ry
     estimated scf accuracy    <       0.00024122 Ry

     iteration #  4     ecut=    50.00 Ry     beta= 0.10
     Davidson diagonalization with overlap
     c_bands:  1 eigenvalues not converged
     c_bands:  1 eigenvalues not converged
     c_bands:  1 eigenvalues not converged
     ethr =  2.51E-07,  avg # of iterations =  7.3

     total cpu time spent up to now is       64.8 secs

     total energy              =   -1264.08699249 Ry
     Harris-Foulkes estimate   =   -1264.08683824 Ry
     estimated scf accuracy    <       0.00021369 Ry

     iteration #  5     ecut=    50.00 Ry     beta= 0.10
     Davidson diagonalization with overlap
     ethr =  2.23E-07,  avg # of iterations =  1.2

     total cpu time spent up to now is       72.4 secs

     total energy              =   -1264.08673996 Ry
     Harris-Foulkes estimate   =   -1264.08699644 Ry
     estimated scf accuracy    <       0.00055192 Ry

     iteration #  6     ecut=    50.00 Ry     beta= 0.10
     Davidson diagonalization with overlap
     ethr =  2.23E-07,  avg # of iterations =  1.8

     total cpu time spent up to now is       80.4 secs

     total energy              =   -1264.08675669 Ry
     Harris-Foulkes estimate   =   -1264.08675684 Ry
     estimated scf accuracy    <       0.00000135 Ry

     iteration #  7     ecut=    50.00 Ry     beta= 0.10
     Davidson diagonalization with overlap
     c_bands:  1 eigenvalues not converged
     c_bands:  1 eigenvalues not converged
     ethr =  1.40E-09,  avg # of iterations =  6.4

     total cpu time spent up to now is       97.4 secs

     End of self-consistent calculation

          k = 0.0453 0.0453 0.0453 ( 21463 PWs)   bands (ev):

    -3.2456  -1.2095  -1.2095  -1.2095  -0.8059  -0.8059  -0.8058   0.7984
     0.7984   0.7984   1.1965   1.1965   1.1965   1.1965   1.1965   1.1966
     1.5935   1.5935   1.5935   2.7757   3.1540   3.1541   3.1541   3.5937
     3.5937   3.5939   3.9703   4.8253   4.8253   4.8253   6.3521   6.3521
     6.3521   6.7129   6.7129   6.7129   6.7130   6.7130   6.7130   7.0916
     7.0916   7.0916   7.0917   7.0917   7.0917   8.1132   8.1132   8.1132
     8.1133   8.1133   8.1133   8.6118   8.6118   8.6118   8.9922   9.0236
     9.0239   9.0240

          k = 0.0453 0.0453 0.1360 ( 21449 PWs)   bands (ev):

    -3.2083  -1.5775  -1.1728  -1.1728  -0.7692  -0.7692  -0.3669   0.4354
     0.4354   0.8345   0.8345   0.8346   1.2327   1.2327   1.6294   1.6294
     1.6296   2.0252   2.0252   2.4202   2.8112   2.8113   3.1892   3.6296
     4.0057   4.0058   4.2770   4.3932   4.8597   4.8597   6.1864   6.1865
     6.3713   6.3713   6.3879   6.3879   6.5537   6.5537   6.7623   6.7623
     6.9649   7.1304   7.1304   7.4890   7.4890   7.9020   7.9020   8.1116
     8.2678   8.2678   8.2900   8.2900   8.4920   8.4920   8.4976   8.4976
     8.6462   8.6462

          k = 0.0453 0.0453 0.2266 ( 21416 PWs)   bands (ev):

    -3.1338  -1.9096  -1.0993  -1.0993  -0.6960  -0.6959   0.1069   0.1079
     0.1079   0.5079   0.5080   0.9071   1.3050   1.3050   1.7017   2.0966
     2.0966   2.0978   2.4910   2.4911   2.4916   2.4916   2.8823   3.6238
     4.0765   4.4637   4.4637   4.8520   4.9284   4.9284   5.5525   5.5525
     5.9318   5.9318   6.0625   6.0625   6.4595   6.4596   6.8239   6.8239
     7.2002   7.2002   7.4899   7.5802   7.5802   7.7473   7.8720   7.8720
     7.9581   7.9581   7.9826   7.9826   8.2537   8.3365   8.3365   8.4190
     8.4190   8.7475

          k = 0.0453 0.0453 0.3172 ( 21446 PWs)   bands (ev):

    -3.0220  -2.2054  -0.9892  -0.9891  -0.5861  -0.5861  -0.1838  -0.1838
     0.2170   0.2170   0.6150   1.0158   1.4134   1.4134   1.8098   1.8103
     2.2053   2.2053   2.5975   2.5975   2.5986   2.9696   2.9904   2.9904
     4.5689   4.9131   4.9131   4.9568   4.9569   5.0316   5.0316   5.2969
     5.2970   5.3447   5.7878   5.7878   6.5666   6.5666   6.8584   6.9262
     6.9263   7.2421   7.2421   7.3038   7.3038   7.3302   7.3303   7.6253
     7.6828   7.6828   8.0612   8.0612   8.4484   8.4484   8.5475   8.5475
     8.5951   8.9098

          k = 0.0453 0.0453 0.4079 ( 21468 PWs)   bands (ev):

    -2.8732  -2.4647  -0.8424  -0.8424  -0.4398  -0.4398  -0.4396  -0.4395
    -0.0381  -0.0380   1.1567   1.1606   1.5578   1.5578   1.5580   1.9537
     1.9540   1.9540   2.3364   2.3485   3.1312   3.1312   3.5225   3.5225
     4.2918   4.2918   4.6787   4.6788   5.0959   5.1691   5.1691   5.4832
     5.4833   5.5472   5.5472   5.8702   6.2438   6.6289   6.6289   6.7086
     6.7086   7.0135   7.0636   7.0636   7.0931   7.0931   7.4416   7.4416
     7.4420   7.4420   7.8203   7.8203   8.6993   8.6993   8.9609   8.9609
     9.0728   9.0728

          k = 0.0453 0.0453-0.4985 ( 21440 PWs)   bands (ev):

    -2.6875  -2.6873  -0.6593  -0.6592  -0.6591  -0.6590  -0.2572  -0.2570
    -0.2570  -0.2569   1.3413   1.3415   1.7310   1.7311   1.7379   1.7379
     1.7381   1.7381   2.1333   2.1335   3.6966   3.6967   3.6967   3.6967
     4.0859   4.0860   4.0860   4.0860   5.3409   5.3409   5.3411   5.3411
     5.6549   5.6550   6.0413   6.0413   6.0413   6.0413   6.4271   6.4271
     6.8846   6.8846   6.8847   6.8847   7.2354   7.2355   7.2356   7.2357
     7.6137   7.6137   7.6138   7.6139   8.8814   8.8814   8.8816   8.8816
     9.2595   9.2595

          k = 0.0453 0.1360 0.1360 ( 21439 PWs)   bands (ev):

    -3.1710  -1.5407  -1.5407  -1.1360  -0.7326  -0.3304  -0.3304   0.0715
     0.4717   0.4718   0.8708   0.8708   1.2685   1.2685   1.6654   1.6655
     2.0611   2.0612   2.0620   2.4555   2.4558   3.2242   3.2243   3.6655
     3.6656   4.3120   4.3120   4.4285   4.8170   4.8941   5.8425   5.8426
     6.2073   6.2074   6.4034   6.4034   6.4237   6.6287   6.6288   6.9704
     6.9704   7.0001   7.0002   7.5388   7.5388   7.7654   7.7654   7.9237
     8.0038   8.0038   8.1460   8.1460   8.4276   8.4276   8.7963   8.7965
     8.9063   8.9063

          k = 0.0453 0.1360 0.2266 ( 21424 PWs)   bands (ev):

    -3.0965  -1.8727  -1.4670  -1.0626  -0.6593  -0.2573  -0.2568   0.1433
     0.1443   0.5443   0.5444   0.9429   0.9433   1.7369   1.7375   1.7384
     2.1325   2.1330   2.1336   2.5268   2.9178   2.9199   3.2946   3.6591
     3.7370   4.1121   4.3819   4.8871   4.9628   5.2047   5.2752   5.5311
     5.5837   5.9456   6.0963   6.3262   6.3314   6.4951   6.4964   6.6912
     7.0704   7.1419   7.3422   7.4535   7.5244   7.6113   7.6141   7.7815
     7.7819   7.8343   7.9607   8.0951   8.2157   8.2880   8.6692   8.7493
     8.9743   8.9768

          k = 0.0453 0.1360 0.3172 ( 21442 PWs)   bands (ev):

    -2.9848  -2.1684  -1.3566  -0.9524  -0.5495  -0.5492  -0.1478  -0.1473
     0.2534   0.6513   0.6529   0.6534   1.0519   1.4499   1.8456   1.8462
     2.2391   2.2407   2.6332   2.6342   3.0052   3.0243   3.0260   3.4176
     4.2178   4.4867   4.5623   4.6043   4.9469   5.0660   5.2534   5.3280
     5.3797   5.7117   5.7669   5.8219   6.4173   6.5089   6.5841   6.6017
     6.7940   6.8931   7.1755   7.1761   7.3317   7.3389   7.5570   7.6598
     7.7158   7.9165   8.0002   8.0424   8.2094   8.4740   8.4884   8.6291
     8.9957   9.1173

          k = 0.0453 0.1360 0.4079 ( 21433 PWs)   bands (ev):

    -2.8360  -2.4277  -1.2095  -0.8058  -0.8056  -0.4032  -0.4030  -0.0019
    -0.0016   0.3986   0.7986   1.1929   1.1967   1.1970   1.5940   1.9895
     2.3722   2.3841   2.3842   2.7744   2.7769   3.1668   3.5578   3.9386
     3.9477   4.3266   4.6264   4.7126   4.7438   5.0099   5.0984   5.1311
     5.2035   5.5815   5.8931   5.9050   6.2786   6.2913   6.5530   6.7203
     6.7427   6.9325   6.9334   7.0481   7.0981   7.1195   7.3142   7.3147
     7.4320   7.6903   7.8540   8.2330   8.3551   8.4838   8.7481   8.9965
     9.2719   9.4685

          k = 0.0453 0.1360-0.4985 ( 21424 PWs)   bands (ev):

    -2.6503  -2.6502  -1.0259  -1.0257  -0.6226  -0.6225  -0.2206  -0.2204
     0.1802   0.1803   0.9797   0.9799   1.3774   1.3775   1.7670   1.7670
     2.1690   2.1692   2.5629   2.5631   3.3415   3.3415   3.7319   3.7320
     4.1208   4.1209   4.5088   4.5088   4.8007   4.8009   5.3034   5.3034
     5.3753   5.3754   5.6900   5.6900   6.4618   6.4619   6.7254   6.7256
     6.8470   6.8470   6.8918   6.8919   6.9166   6.9168   7.1059   7.1061
     7.4870   7.4871   8.0263   8.0264   8.5344   8.5346   9.0231   9.0232
     9.4541   9.4544

          k = 0.0453 0.2266 0.2266 ( 21431 PWs)   bands (ev):

    -3.0220  -1.7988  -1.7988  -0.9891  -0.5861  -0.5858   0.2161   0.2161
     0.2172   0.2172   0.6169   0.6169   1.4124   1.4124   1.4139   1.8102
     2.2043   2.2043   2.5984   2.5984   3.3645   3.3646   3.3825   3.7298
     3.7298   3.8087   3.8089   4.8903   4.8903   5.0316   5.3451   5.6325
     5.6326   5.7324   6.0836   6.0838   6.1626   6.1626   6.5659   6.7816
     6.7816   6.8283   6.8283   7.2111   7.2111   7.3045   7.8074   7.8075
     7.8510   7.8510   8.0549   8.0550   8.7376   8.7376   8.9045   8.9046
     8.9620   9.1961

          k = 0.0453 0.2266 0.3172 ( 21418 PWs)   bands (ev):

    -2.9104  -2.0944  -1.6881  -0.8791  -0.8789  -0.4763  -0.0743   0.3253
     0.3262   0.3264   0.7238   0.7258   1.1233   1.1247   1.5219   1.9158
     2.3120   2.7047   2.7056   3.0764   3.0950   3.0972   3.4700   3.8357
     3.8782   3.9156   4.2455   4.2888   4.6100   5.0127   5.1347   5.3743
     5.8106   5.8366   5.8900   6.1369   6.1701   6.1941   6.2231   6.2948
     6.5495   6.5785   6.6713   6.9323   7.0293   7.1584   7.6342   7.9049
     7.9542   8.1109   8.1617   8.4928   8.5066   8.6803   8.6969   8.7203
     8.9210   9.2201

          k = 0.0453 0.2266 0.4079 ( 21416 PWs)   bands (ev):

    -2.7617  -2.3535  -1.5407  -1.1359  -0.7324  -0.3301  -0.3299   0.0713
     0.4707   0.4719   0.8698   0.8709   0.8712   1.2651   1.2691   2.4438
     2.4524   2.4553   2.8478   2.8483   3.2370   3.2378   3.6198   3.6284
     3.9768   4.3641   4.3957   4.4060   4.4289   4.7786   4.8145   5.2722
     5.5486   5.5774   5.6500   5.9273   5.9631   6.3057   6.3061   6.3607
     6.4125   6.6884   6.7462   6.7888   6.8098   7.1535   7.5008   7.8840
     7.9094   8.0442   8.0906   8.3006   8.4330   8.4512   8.6800   8.9897
     9.0706   9.8629

          k = 0.0453 0.2266-0.4985 ( 21442 PWs)   bands (ev):

    -2.5761  -2.5760  -1.3566  -1.3565  -0.5494  -0.5493  -0.1476  -0.1474
     0.6522   0.6523   0.6534   0.6536   1.0520   1.0521   1.8390   1.8390
     2.6340   2.6341   3.0209   3.0210   3.0258   3.0260   3.8023   3.8023
     4.1529   4.1530   4.1901   4.1902   4.9639   4.9640   4.9873   4.9873
     5.3736   5.3737   5.4439   5.4441   6.0975   6.0977   6.4793   6.4795
     6.5828   6.5829   6.9161   6.9161   6.9771   6.9772   7.3005   7.3005
     8.2207   8.2208   8.2582   8.2584   8.4217   8.4217   8.4731   8.4733
     9.6143   9.6143

          k = 0.0453 0.3172 0.3172 ( 21418 PWs)   bands (ev):

    -2.7989  -1.9835  -1.9835  -1.1727  -0.7691  -0.3666   0.0351   0.0351
     0.4353   0.4353   0.8326   0.8326   0.8350   1.2330   1.6277   1.6277
     2.8118   2.8118   3.1831   3.1831   3.2037   3.2037   3.5745   3.5746
     3.9630   3.9630   4.0230   4.0231   4.3716   5.0951   5.0953   5.2378
     5.5566   5.5568   5.9144   5.9144   5.9906   5.9906   6.2987   6.2988
     6.3268   6.6294   6.6294   6.7124   6.7544   6.7740   7.6475   7.6476
     8.3989   8.5951   8.5951   8.6399   8.6399   8.7979   8.7979   8.9722
     8.9762   8.9762

          k = 0.0453 0.3172 0.4079 ( 21408 PWs)   bands (ev):

    -2.6503  -2.2424  -1.8357  -1.4302  -0.6225  -0.2205  -0.2203   0.1806
     0.1808   0.5807   0.5809   0.9775   0.9797   1.3735   1.3752   2.1655
     2.5511   2.9543   3.3252   3.3356   3.3425   3.3442   3.3451   3.7150
     3.7153   3.7336   4.1645   4.4972   4.5353   4.8607   4.8962   5.2974
     5.3130   5.3752   5.6705   5.6745   5.6826   5.7525   6.0064   6.0541
     6.1596   6.5141   6.8495   6.9057   7.0274   7.2341   7.5186   7.7710
     7.9866   8.1525   8.3689   8.3781   8.7809   8.9302   9.1115   9.1244
     9.1612   9.3237

          k = 0.0453 0.3172-0.4985 ( 21434 PWs)   bands (ev):

    -2.4648  -2.4647  -1.6513  -1.6512  -0.4397  -0.4395  -0.0381  -0.0380
     0.3627   0.3629   0.7621   0.7622   1.1583   1.1585   1.9468   1.9468
     2.7353   2.7354   3.1317   3.1318   3.5026   3.5028   3.5196   3.5197
     3.9073   3.9073   4.2920   4.2920   4.7088   4.7088   5.0930   5.0930
     5.4490   5.4491   5.4645   5.4646   5.5468   5.5469   5.8453   5.8454
     6.3094   6.3095   7.0463   7.0464   7.4035   7.4035   7.7870   7.7870
     7.8361   7.8362   7.9422   7.9424   8.9541   8.9542   9.0885   9.0887
     9.6644   9.7224

          k = 0.0453 0.4079 0.4079 ( 21412 PWs)   bands (ev):

    -2.5018  -2.0944  -2.0944  -1.6881  -0.4762  -0.0745  -0.0743  -0.0743
     0.3262   0.3262   0.3265   0.7259   1.5178   1.5178   1.9139   1.9139
     2.6940   2.6940   3.0865   3.0865   3.4853   3.4853   3.8537   3.8538
     3.8717   3.8717   4.3073   4.3074   4.6160   4.6161   5.0553   5.0553
     5.0782   5.0784   5.4157   5.4380   5.4380   5.5125   5.8874   5.8874
     6.2751   6.5343   6.5344   7.0106   7.3707   7.5476   7.5476   7.7544
     7.8097   7.9080   8.5046   8.5046   8.8861   8.8861   9.2935   9.2935
     9.6759   9.6763

          k = 0.0453 0.4079-0.4985 ( 21406 PWs)   bands (ev):

    -2.3166  -2.3164  -1.9097  -1.9095  -0.2934  -0.2933   0.1077   0.1079
     0.1079   0.1081   0.5080   0.5081   1.6979   1.6981   2.0905   2.0905
     2.4849   2.4849   2.8725   2.8726   3.6594   3.6596   4.0290   4.0292
     4.0450   4.0450   4.4115   4.4115   4.4824   4.4824   4.8502   4.8502
     4.8667   4.8669   5.2313   5.2314   5.6836   5.6838   5.9404   5.9404
     6.0917   6.0918   6.9606   6.9606   7.4574   7.4575   7.7027   7.7028
     7.9231   7.9231   8.3057   8.3057   9.0536   9.0537   9.4342   9.4343
     9.4687   9.4688

          k = 0.0453-0.4985-0.4985 ( 21404 PWs)   bands (ev):

    -2.1315  -2.1314  -2.1314  -2.1312  -0.1109  -0.1108  -0.1108  -0.1106
     0.2897   0.2898   0.2898   0.2900   2.2698   2.2698   2.2698   2.2699
     2.2700   2.2700   2.2700   2.2700   4.2013   4.2013   4.2013   4.2013
     4.2014   4.2015   4.2015   4.2015   4.6599   4.6600   4.6600   4.6601
     4.6601   4.6602   4.6602   4.6602   5.8529   5.8530   5.8530   5.8532
     6.5022   6.5022   6.5022   6.5022   7.5137   7.5138   7.5138   7.5140
     8.4738   8.4738   8.4738   8.4738   8.8554   8.8554   8.8554   8.8554
    10.0156  10.0157

          k = 0.1360 0.1360 0.1360 ( 21407 PWs)   bands (ev):

    -3.1338  -1.5039  -1.5039  -1.5038  -0.2939  -0.2939  -0.2938   0.1080
     0.1080   0.1080   1.3046   1.3046   1.3047   1.3047   1.3047   1.3047
     1.7024   2.4913   2.4913   2.4914   2.8822   2.8822   2.8822   4.0767
     4.0767   4.0768   4.3469   4.3469   4.3469   5.2403   5.8746   5.8746
     5.8746   5.8747   5.8747   5.8747   7.0253   7.0253   7.0253   7.0254
     7.0254   7.0254   7.0352   7.0352   7.0352   7.4190   7.4190   7.4190
     8.5570   8.5570   8.5571   8.5571   8.5606   8.5606   8.5606   8.5606
     8.5606   8.5606

          k = 0.1360 0.1360 0.2266 ( 21413 PWs)   bands (ev):

    -3.0593  -1.8357  -1.4302  -1.4302  -0.2208  -0.2208  -0.2203  -0.2202
     0.1797   0.1808   0.9791   0.9792   1.3769   1.3769   1.3778   1.7729
     1.7730   2.5628   2.5628   2.5629   2.9555   2.9555   3.3294   3.6944
     3.7732   4.4168   4.4168   4.5343   4.5344   5.2385   5.2385   5.5650
     5.5650   5.6977   5.9298   5.9298   6.4151   6.4151   6.7936   7.1006
     7.1007   7.1052   7.1052   7.1070   7.1070   7.4548   7.4548   7.8164
     7.9408   7.9409   8.2491   8.2491   8.2916   8.2917   8.6645   8.6645
     9.0089   9.0090

          k = 0.1360 0.1360 0.3172 ( 21430 PWs)   bands (ev):

    -2.9476  -2.1314  -1.3198  -1.3198  -0.5127  -0.5126  -0.1113  -0.1113
     0.2901   0.6876   0.6891   0.6892   1.0886   1.4853   1.4853   2.2750
     2.2750   2.2767   2.2767   2.6702   3.0408   3.4351   3.4529   3.4530
     3.8797   4.5216   4.5216   4.5970   4.5970   5.0272   5.0272   5.2878
     5.2878   5.7224   5.7225   6.0942   6.0942   6.1592   6.1884   6.8296
     6.8297   7.2069   7.2069   7.2096   7.2096   7.3112   7.3113   7.8058
     7.8059   7.9720   7.9720   8.1555   8.1556   8.4587   8.6628   8.7844
     8.7844   9.4907

          k = 0.1360 0.1360 0.4079 ( 21420 PWs)   bands (ev):

    -2.7989  -2.3906  -1.1727  -1.1727  -0.7690  -0.7690   0.0345   0.0346
     0.4349   0.4349   0.4356   0.8350   1.2290   1.6296   1.6296   2.0255
     2.0255   2.4080   2.8101   2.8101   2.8129   3.2018   3.9738   3.9738
     3.9826   3.9826   4.3934   4.6612   4.6612   5.0445   5.0445   5.1294
     5.1295   5.5423   5.5533   5.5533   6.2103   6.2103   6.5871   6.5872
     6.6983   6.6984   6.7116   7.3467   7.3467   7.3475   7.3475   7.7063
     7.7063   7.7291   7.7291   7.8497   8.5311   8.5311   8.9316   8.9316
     9.3227   9.3228

          k = 0.1360 0.1360-0.4985 ( 21426 PWs)   bands (ev):

    -2.6132  -2.6131  -0.9892  -0.9891  -0.9890  -0.9889   0.2165   0.2167
     0.2167   0.2168   0.6172   0.6173   1.8030   1.8030   1.8096   1.8097
     1.8098   1.8098   2.9905   2.9906   3.3770   3.3770   3.3770   3.3770
     4.5427   4.5428   4.5428   4.5428   4.8355   4.8355   4.8357   4.8357
     4.9520   4.9520   6.1110   6.1111   6.1111   6.1111   6.3799   6.3801
     6.3801   6.3802   7.2661   7.2661   7.5163   7.5163   7.5164   7.5164
     7.5206   7.5206   7.5208   7.5208   9.0612   9.0613   9.0613   9.0613
     9.1106   9.1106

          k = 0.1360 0.2266 0.2266 ( 21435 PWs)   bands (ev):

    -2.9848  -1.7619  -1.7619  -1.3566  -0.5492  -0.1478  -0.1473  -0.1472
     0.2525   0.2525   1.0516   1.0516   1.0524   1.4485   1.4485   1.8450
     1.8450   2.2409   3.0239   3.0239   3.0267   3.0267   3.4179   3.7651
     3.7651   4.2185   4.2186   4.4867   4.9248   4.9248   4.9925   5.3043
     5.3043   5.6314   5.6314   6.1540   6.4789   6.4789   6.4799   6.4799
     6.7950   6.8445   6.8445   7.1744   7.5432   7.5432   7.6279   7.6279
     7.8850   7.8850   8.3713   8.3714   8.3909   8.3909   8.6977   8.6977
     9.0195   9.0195

          k = 0.1360 0.2266 0.3172 ( 21443 PWs)   bands (ev):

    -2.8732  -2.0574  -1.6513  -1.2462  -0.8423  -0.4395  -0.0384  -0.0378
     0.3616   0.7601   0.7617   0.7625   1.1595   1.1602   1.9518   1.9529
     1.9537   2.3468   2.7408   3.1120   3.1333   3.5043   3.5236   3.8710
     3.9132   3.9522   4.2805   4.5914   4.6448   4.6658   4.7102   5.3563
     5.3887   5.4846   5.7215   5.8444   5.8658   6.2012   6.2323   6.5179
     6.5824   6.6436   6.9971   7.2772   7.3010   7.3494   7.6533   7.7630
     7.9870   8.0079   8.1227   8.4207   8.4803   8.7297   8.7854   8.8740
     8.9084   9.1797

          k = 0.1360 0.2266 0.4079 ( 21415 PWs)   bands (ev):

    -2.7245  -2.3165  -1.5038  -1.0993  -1.0992  -0.6957   0.1074   0.1081
     0.5070   0.5076   0.5084   0.9061   1.3012   1.3048   1.7018   2.0967
     2.4795   2.4882   2.4910   2.8815   3.2748   3.6455   3.6552   4.0120
     4.0440   4.0521   4.0930   4.3991   4.4400   4.7309   5.1137   5.1749
     5.2271   5.2365   5.5579   5.6031   5.9229   5.9582   6.0096   6.2761
     6.3831   6.7217   7.1054   7.1517   7.1656   7.4109   7.6432   7.7946
     8.0542   8.1205   8.1778   8.3009   8.3708   8.6228   8.7057   9.0106
     9.0287   9.3895

          k = 0.1360 0.2266-0.4985 ( 21412 PWs)   bands (ev):

    -2.5390  -2.5388  -1.3199  -1.3197  -0.9158  -0.9156   0.2894   0.2895
     0.2901   0.2902   0.6885   0.6886   1.4853   1.4855   1.8749   1.8750
     2.2761   2.2762   3.0566   3.0566   3.4479   3.4479   3.4495   3.4497
     4.1880   4.1882   4.6089   4.6089   4.6379   4.6380   4.9050   4.9052
     4.9950   4.9950   5.7530   5.7532   5.7950   5.7950   6.0717   6.0719
     6.5660   6.5660   6.8960   6.8962   7.5651   7.5653   7.7187   7.7187
     7.9691   7.9693   8.2774   8.2776   8.4712   8.4712   8.7994   8.7996
     9.1433   9.1434

          k = 0.1360 0.3172 0.3172 ( 21398 PWs)   bands (ev):

    -2.7617  -1.9466  -1.9465  -1.1360  -1.1359  -0.3298  -0.3298   0.0710
     0.4720   0.8688   0.8688   0.8705   0.8705   1.6638   1.6638   1.6657
     2.4542   2.4543   3.2186   3.2186   3.2360   3.2360   3.6289   3.6289
     3.9982   3.9983   4.4057   4.4306   4.4307   4.6960   4.7669   4.7670
     5.4575   5.4575   5.5653   5.5653   5.9528   5.9529   5.9756   6.2415
     6.6958   6.6958   6.7175   6.7175   7.1319   7.3756   8.1305   8.1305
     8.2124   8.2125   8.2478   8.2478   8.8279   8.8280   8.9027   8.9028
     8.9769   9.0114

          k = 0.1360 0.3172 0.4079 ( 21444 PWs)   bands (ev):

    -2.6131  -2.2054  -1.7988  -1.3934  -0.9891  -0.5858  -0.1837   0.2167
     0.2174   0.6166   1.0137   1.0154   1.4096   1.4113   1.4132   2.2014
     2.5868   2.5974   2.9884   2.9893   3.3607   3.3711   3.7485   3.7507
     3.7673   4.1486   4.1542   4.2018   4.8353   4.8857   4.9273   4.9495
     4.9555   5.2170   5.3241   5.3582   5.5826   6.0024   6.0893   6.1027
     6.1048   6.4728   6.4992   7.1830   7.4945   7.6382   7.6525   7.9972
     8.2750   8.3485   8.4282   8.6291   8.6598   8.7322   8.7648   8.7850
     8.9506   9.4176

          k = 0.1360 0.3172-0.4985 ( 21440 PWs)   bands (ev):

    -2.4277  -2.4276  -1.6145  -1.6143  -0.8057  -0.8056  -0.0013  -0.0012
     0.3985   0.3987   1.1945   1.1946   1.1963   1.1965   1.9828   1.9828
     2.7710   2.7711   2.7758   2.7760   3.5380   3.5382   3.5540   3.5540
     3.9253   3.9255   4.3755   4.3755   4.6912   4.6912   5.0091   5.0092
     5.1375   5.1376   5.4579   5.4579   5.5140   5.5140   5.8195   5.8196
     6.2631   6.2632   7.0540   7.0541   7.5418   7.5419   7.9773   7.9773
     8.2042   8.2042   8.4507   8.4509   8.5223   8.5225   9.0184   9.0185
     9.3131   9.3131

          k = 0.1360 0.4079 0.4079 ( 21452 PWs)   bands (ev):

    -2.4647  -2.0574  -2.0574  -1.6512  -0.8423  -0.4395  -0.4395  -0.0377
     0.3622   0.7617   0.7618   1.1602   1.5538   1.5539   1.9499   1.9499
     2.7298   2.7298   3.1221   3.1221   3.1306   3.1306   3.5178   3.5178
     4.2742   4.2743   4.2858   4.2858   4.7122   4.7122   4.7252   4.7252
     4.9743   5.3531   5.3531   5.4244   5.4769   5.4770   5.7850   5.8576
     5.8576   6.6023   6.6023   7.0212   7.5078   7.9499   8.1130   8.1130
     8.1570   8.1570   8.1717   8.4886   8.7857   8.7857   9.1744   9.1744
     9.2859   9.3011

          k = 0.1360 0.4079-0.4985 ( 21438 PWs)   bands (ev):

    -2.2795  -2.2794  -1.8727  -1.8726  -0.6592  -0.6590  -0.2568  -0.2566
     0.5439   0.5440   0.9429   0.9431   1.7339   1.7341   2.1264   2.1264
     2.5207   2.5207   2.9081   2.9083   3.3076   3.3077   3.6947   3.6947
     4.0612   4.0612   4.4410   4.4412   4.5209   4.5210   4.9076   4.9076
     5.1472   5.1474   5.2689   5.2689   5.5130   5.5132   5.6482   5.6484
     6.0398   6.0398   7.1214   7.1214   7.5745   7.5745   7.9321   7.9323
     8.2810   8.2812   8.7068   8.7068   8.7219   8.7219   8.9643   8.9645
     9.3175   9.3176

          k = 0.1360-0.4985-0.4985 ( 21436 PWs)   bands (ev):

    -2.0946  -2.0944  -2.0944  -2.0942  -0.4762  -0.4761  -0.4761  -0.4759
     0.7253   0.7255   0.7255   0.7257   2.3057   2.3057   2.3057   2.3057
     2.3058   2.3058   2.3059   2.3059   3.8682   3.8682   3.8682   3.8682
     3.8683   3.8684   3.8684   3.8684   5.0617   5.0617   5.0617   5.0618
     5.0618   5.0619   5.0619   5.0619   5.3181   5.3183   5.3183   5.3185
     6.5705   6.5706   6.5706   6.5706   8.0792   8.0793   8.0793   8.0795
     8.1260   8.1261   8.1261   8.1261   9.2705   9.2706   9.2707   9.2715
     9.5078   9.5078

          k = 0.2266 0.2266 0.2266 ( 21416 PWs)   bands (ev):

    -2.9104  -1.6881  -1.6881  -1.6881  -0.4761  -0.4761  -0.4760   0.3253
     0.3253   0.3253   0.7263   1.5207   1.5207   1.5207   1.5207   1.5207
     1.5208   2.7051   2.7051   2.7051   3.4885   3.4885   3.4886   3.8357
     3.8357   3.8357   4.6754   4.6754   4.6755   4.9934   4.9934   4.9934
     4.9935   4.9935   4.9935   6.1664   6.1664   6.1664   6.6094   6.9228
     6.9229   6.9229   6.9229   6.9229   6.9229   7.9523   7.9523   7.9523
     8.0783   8.0783   8.0783   8.0783   8.0783   8.0783   9.1204   9.1204
     9.1204   9.1204

          k = 0.2266 0.2266 0.3172 ( 21432 PWs)   bands (ev):

    -2.7989  -1.9835  -1.5775  -1.5775  -0.7690  -0.7689  -0.3663   0.4343
     0.4344   0.4357   0.8326   1.2318   1.2318   1.6289   1.6289   2.0237
     2.0237   2.4194   2.4194   3.1831   3.2005   3.5940   3.9415   3.9415
     3.9827   3.9828   4.3504   4.3504   4.3957   4.7144   4.7144   5.0943
     5.0944   5.1677   5.1677   5.5302   5.8884   5.8884   6.2969   6.2969
     7.0306   7.0306   7.0978   7.3982   7.3983   7.4493   7.4493   7.8000
     7.8000   8.0509   8.0509   8.5618   8.5618   8.7935   8.8614   8.8614
     9.2371   9.2372

          k = 0.2266 0.2266 0.4079 ( 21404 PWs)   bands (ev):

    -2.6503  -2.2424  -1.4302  -1.4302  -1.0258  -1.0257  -0.2202   0.1810
     0.5796   0.5797   0.9785   0.9786   1.3735   1.7730   1.7730   2.1685
     2.1685   2.5511   2.5598   2.5598   3.7134   3.7258   3.7258   3.7325
     4.0824   4.0824   4.1665   4.4691   4.4691   4.5063   4.5063   4.9142
     5.2144   5.2145   5.6483   5.6483   5.6932   5.6932   5.7031   5.7031
     6.8370   6.8370   7.1716   7.1716   7.5561   7.5561   7.6185   7.8890
     7.8891   8.1724   8.1724   8.6489   8.6489   8.7512   9.0778   9.0778
     9.1132   9.1132

          k = 0.2266 0.2266-0.4985 ( 21460 PWs)   bands (ev):

    -2.4648  -2.4647  -1.2464  -1.2462  -1.2462  -1.2461  -0.0378  -0.0376
     0.7610   0.7611   0.7611   0.7612   1.9468   1.9468   1.9529   1.9529
     1.9531   1.9531   3.1277   3.1278   3.1278   3.1278   3.8907   3.8909
     4.2583   4.2583   4.2584   4.2585   4.3399   4.3399   5.0402   5.0402
     5.0402   5.0402   5.4637   5.4638   5.4639   5.4640   6.2503   6.2504
     6.2504   6.2504   7.3466   7.3466   7.3467   7.3467   8.1703   8.1703
     8.2396   8.2397   8.2397   8.2398   8.6404   8.6404   8.6404   8.6404
     9.5595   9.6197

          k = 0.2266 0.3172 0.3172 ( 21437 PWs)   bands (ev):

    -2.6874  -1.8727  -1.8726  -1.4670  -1.0625  -0.6591  -0.6590   0.1446
     0.5433   0.9413   0.9413   1.3402   1.3402   1.7359   1.7359   2.1315
     2.1315   2.1327   2.9180   2.9180   3.2897   3.2897   4.0472   4.0686
     4.0686   4.0850   4.0850   4.4546   4.4546   4.4720   4.8181   4.8181
     4.8864   4.8865   5.2538   5.2538   5.6133   5.6591   6.4008   6.4008
     6.7755   6.7755   7.1700   7.1700   7.5113   7.5114   7.5850   7.9346
     7.9346   8.1373   8.2838   8.2838   8.8810   8.8810   8.9684   8.9684
     9.0965   9.7245

          k = 0.2266 0.3172 0.4079 ( 21427 PWs)   bands (ev):

    -2.5389  -2.1314  -1.7250  -1.3198  -1.3197  -0.9156  -0.5126  -0.1106
     0.6886   1.0861   1.0872   1.4817   1.4835   1.4847   1.8811   2.2731
     2.2750   2.6583   2.6671   2.6687   3.4317   3.4421   3.4469   3.8214
     3.8316   4.1879   4.2054   4.5739   4.5889   4.5912   4.6429   4.6542
     4.9543   4.9725   5.0319   5.3940   5.4120   5.7908   6.1697   6.1834
     6.5405   6.5569   6.9254   7.2842   7.3241   7.6543   8.0208   8.0399
     8.1044   8.1721   8.4522   8.5959   8.7363   8.8000   8.9212   9.1092
     9.2343   9.3112

          k = 0.2266 0.3172-0.4985 ( 21436 PWs)   bands (ev):

    -2.3536  -2.3535  -1.5408  -1.5406  -1.1360  -1.1359  -0.3298  -0.3297
     0.8698   0.8699   1.2668   1.2669   1.6649   1.6651   2.0546   2.0546
     2.4541   2.4543   2.8425   2.8425   3.2344   3.2344   3.6089   3.6090
     3.9910   3.9911   4.3635   4.3637   4.4510   4.4511   4.7458   4.7460
     5.1098   5.1099   5.2233   5.2233   5.6036   5.6036   5.9696   5.9696
     6.7154   6.7155   6.7390   6.7390   7.8047   7.8047   7.8301   7.8303
     8.5445   8.5446   8.5577   8.5578   8.6548   8.6548   9.0010   9.0010
     9.3472   9.3474

          k = 0.2266 0.4079 0.4079 ( 21448 PWs)   bands (ev):

    -2.3906  -1.9835  -1.9835  -1.5775  -1.1727  -0.7690  -0.7689  -0.3663
     0.8336   1.2318   1.2319   1.6259   1.6259   1.6290   2.0218   2.0218
     2.8012   2.8012   2.8099   2.8099   3.1932   3.1933   3.2009   3.2009
     3.9718   3.9718   4.3284   4.3360   4.3361   4.7128   4.7129   4.8042
     4.8042   5.0750   5.1666   5.1666   5.5702   5.9274   5.9275   6.3117
     6.3117   6.6826   6.6826   6.7061   7.7753   7.8434   7.8434   8.1683
     8.1683   8.5264   8.5560   8.5561   8.6224   8.8708   8.8709   8.9737
     9.2654   9.2654

          k = 0.2266 0.4079-0.4985 ( 21456 PWs)   bands (ev):

    -2.2055  -2.2053  -1.7989  -1.7987  -0.9891  -0.9890  -0.5859  -0.5857
     1.0147   1.0148   1.4124   1.4126   1.8059   1.8061   2.1982   2.1982
     2.5923   2.5923   2.9794   2.9796   2.9880   2.9881   3.3763   3.3763
     3.7622   3.7622   4.1446   4.1447   4.5035   4.5037   4.8841   4.8842
     4.9591   4.9592   5.3428   5.3428   5.7240   5.7241   6.1016   6.1018
     6.1049   6.1049   7.2242   7.2242   7.2601   7.2601   8.3457   8.3459
     8.3939   8.3940   8.6712   8.6713   8.7100   8.7100   9.0431   9.0433
     9.1032   9.1032

          k = 0.2266-0.4985-0.4985 ( 21436 PWs)   bands (ev):

    -2.0206  -2.0205  -2.0205  -2.0203  -0.8057  -0.8056  -0.8056  -0.8054
     1.1955   1.1957   1.1957   1.1959   2.3774   2.3774   2.3774   2.3774
     2.3775   2.3775   2.3776   2.3776   3.5527   3.5527   3.5527   3.5528
     3.5529   3.5529   3.5529   3.5529   4.6776   4.6777   4.6777   4.6779
     5.5143   5.5143   5.5143   5.5144   5.5145   5.5145   5.5145   5.5145
     6.6510   6.6510   6.6510   6.6511   7.8124   7.8124   7.8124   7.8125
     8.8377   8.8377   8.8377   8.8914   8.8915   8.8915   8.8915   8.8916
     8.8916   8.8917

          k = 0.3172 0.3172 0.3172 ( 21458 PWs)   bands (ev):

    -2.5760  -1.7619  -1.7619  -1.7619  -0.9523  -0.9523  -0.9523  -0.1471
     1.0499   1.0499   1.0499   1.8439   1.8439   1.8439   1.8439   1.8439
     1.8439   2.6330   2.6330   2.6330   3.3962   3.3962   3.3962   4.1739
     4.1739   4.1739   4.1739   4.1739   4.1740   4.5547   4.5547   4.5547
     4.9966   4.9966   4.9967   5.3778   5.3778   5.3778   6.8840   6.8840
     6.8840   6.8840   6.8840   6.8840   7.6556   7.6556   7.6556   7.6557
     7.6557   7.6557   8.0710   8.8878   8.8878   8.8879   9.2938   9.2938
     9.2938   9.7980

          k = 0.3172 0.3172 0.4079 ( 21429 PWs)   bands (ev):

    -2.4277  -2.0205  -1.6144  -1.6144  -1.2094  -1.2094  -0.8056  -0.4028
     1.1946   1.1946   1.5899   1.5917   1.5917   1.9878   1.9878   2.3807
     2.3807   2.3826   2.3826   2.7655   3.1654   3.5380   3.5380   3.5484
     3.5484   3.9272   3.9272   4.3010   4.3136   4.3136   4.6760   4.6760
     4.7696   5.1323   5.1552   5.1552   5.9024   5.9024   6.2738   6.2739
     7.0255   7.0255   7.0443   7.0444   7.3987   7.3988   7.4111   7.4112
     8.1736   8.1736   8.4923   8.4924   8.5891   9.2223   9.2223   9.2430
     9.3011   9.3011

          k = 0.3172 0.3172-0.4985 ( 21432 PWs)   bands (ev):

    -2.2425  -2.2424  -1.4303  -1.4302  -1.4301  -1.4301  -0.6225  -0.6223
     1.3751   1.3752   1.3753   1.3754   2.1623   2.1623   2.1673   2.1673
     2.1675   2.1675   2.9494   2.9495   2.9495   2.9495   3.7150   3.7150
     3.7152   3.7152   3.7268   3.7268   4.4855   4.4856   4.4857   4.4857
     4.9247   4.9249   5.6915   5.6916   5.6916   5.6916   6.4586   6.4586
     6.4587   6.4587   7.2010   7.2010   7.2012   7.2012   7.9404   7.9404
     7.9404   7.9405   8.7227   8.7228   8.7228   8.7228   9.1381   9.1381
     9.3668   9.3669

          k = 0.3172 0.4079 0.4079 ( 21436 PWs)   bands (ev):

    -2.2795  -1.8727  -1.8727  -1.4671  -1.4669  -1.0625  -1.0624  -0.6590
     1.3391   1.7340   1.7340   1.7359   1.7359   2.1296   2.1296   2.1315
     2.5239   2.5239   2.9082   2.9082   2.9167   2.9167   3.2999   3.2999
     3.6797   3.6898   3.6898   4.0679   4.0680   4.0740   4.0741   4.4504
     5.2751   5.2751   5.6567   5.6567   5.6583   6.4138   6.4139   6.4256
     6.7914   6.7914   6.7993   6.7993   7.5425   7.5425   7.5642   7.5642
     7.9121   7.9292   7.9293   8.6615   8.6615   8.6954   9.0564   9.0564
     9.1058   9.3352

          k = 0.3172 0.4079-0.4985 ( 21450 PWs)   bands (ev):

    -2.0945  -2.0943  -1.6882  -1.6881  -1.2831  -1.2829  -0.8790  -0.8789
     1.5195   1.5197   1.9139   1.9140   1.9158   1.9159   2.3058   2.3058
     2.6995   2.6995   2.7026   2.7028   3.0863   3.0865   3.0919   3.0919
     3.4818   3.4818   3.8563   3.8565   3.8655   3.8657   4.2429   4.2431
     5.4468   5.4470   5.8285   5.8285   6.2091   6.2091   6.2132   6.2132
     6.5890   6.5892   6.9802   6.9803   7.3392   7.3393   7.7189   7.7190
     8.0893   8.0893   8.1152   8.1152   8.4784   8.4784   8.8442   8.8443
     9.5002   9.5003

          k = 0.3172-0.4985-0.4985 ( 21428 PWs)   bands (ev):

    -1.9097  -1.9096  -1.9096  -1.9094  -1.0993  -1.0992  -1.0992  -1.0990
     1.6997   1.6998   1.6998   1.7000   2.4848   2.4848   2.4848   2.4849
     2.4850   2.4850   2.4850   2.4850   3.2695   3.2695   3.2695   3.2695
     3.2696   3.2696   3.2697   3.2697   4.0325   4.0326   4.0326   4.0328
     6.0028   6.0028   6.0028   6.0029   6.0030   6.0030   6.0030   6.0030
     6.7599   6.7599   6.7599   6.7599   7.5331   7.5331   7.5331   7.5331
     8.2674   8.2674   8.2674   8.2675   8.2676   8.2676   8.2676   8.2676
     9.6710   9.6712

          k = 0.4079 0.4079 0.4079 ( 21425 PWs)   bands (ev):

    -2.1314  -1.7250  -1.7250  -1.7250  -1.3198  -1.3198  -1.3197  -0.9156
     1.8780   1.8780   1.8780   2.2731   2.2731   2.2731   2.2731   2.2731
     2.2732   2.6669   2.6669   2.6669   3.0507   3.0507   3.0508   3.4418
     3.4418   3.4418   3.4418   3.4418   3.4419   3.8302   3.8302   3.8302
     5.7952   5.7952   5.7953   6.1800   6.1800   6.1801   6.9331   6.9331
     6.9331   6.9332   6.9332   6.9332   7.3193   7.3193   7.3193   7.3194
     7.3194   7.3194   8.0614   8.0614   8.0614   8.4508   8.4508   8.4509
     9.6212  10.2104

          k = 0.4079 0.4079-0.4985 ( 21436 PWs)   bands (ev):

    -1.9466  -1.9465  -1.5408  -1.5407  -1.5406  -1.5406  -1.1360  -1.1358
     2.0576   2.0577   2.0578   2.0578   2.4491   2.4491   2.4522   2.4522
     2.4524   2.4524   2.8423   2.8424   2.8424   2.8424   3.2286   3.2286
     3.2288   3.2288   3.2340   3.2340   3.6187   3.6188   3.6188   3.6189
     5.9697   5.9698   6.3492   6.3492   6.3493   6.3493   6.7350   6.7350
     6.7350   6.7350   7.1089   7.1090   7.1091   7.1091   7.4833   7.4833
     7.4833   7.4833   7.8705   7.8706   7.8706   7.8706   8.2398   8.2399
    10.1674  10.3779

          k = 0.4079-0.4985-0.4985 ( 21484 PWs)   bands (ev):

    -1.7621  -1.7619  -1.7619  -1.7618  -1.3567  -1.3566  -1.3566  -1.3564
     2.2371   2.2372   2.2372   2.2374   2.6279   2.6279   2.6279   2.6280
     2.6281   2.6281   2.6281   2.6281   3.0205   3.0205   3.0205   3.0206
     3.0207   3.0207   3.0207   3.0207   3.4061   3.4063   3.4063   3.4064
     6.5245   6.5245   6.5245   6.5246   6.5247   6.5247   6.5247   6.5247
     6.9017   6.9018   6.9018   6.9018   7.2881   7.2882   7.2882   7.2882
     7.6599   7.6600   7.6600   7.6600   7.6601   7.6601   7.6601   7.6601
    10.5510  10.5512

          k =-0.4985-0.4985-0.4985 ( 21584 PWs)   bands (ev):

    -1.5777  -1.5777  -1.5777  -1.5777  -1.5774  -1.5774  -1.5774  -1.5773
     2.8064   2.8064   2.8065   2.8065   2.8065   2.8066   2.8066   2.8066
     2.8066   2.8066   2.8066   2.8067   2.8067   2.8067   2.8067   2.8067
     2.8067   2.8067   2.8067   2.8068   2.8068   2.8068   2.8069   2.8069
     7.0776   7.0776   7.0776   7.0776   7.0776   7.0776   7.0777   7.0777
     7.0777   7.0777   7.0777   7.0777   7.0778   7.0778   7.0778   7.0778
     7.0778   7.0778   7.0778   7.0778   7.0778   7.0779   7.0779   7.0779
    11.2554  11.4674

     the Fermi energy is     7.8356 ev

!    total energy              =   -1264.08676055 Ry
     Harris-Foulkes estimate   =   -1264.08676091 Ry
     estimated scf accuracy    <       0.00000087 Ry

     total all-electron energy =    -15540.655783 Ry

     The total energy is the sum of the following terms:

     one-electron contribution =     100.64289522 Ry
     hartree contribution      =       0.19539273 Ry
     xc contribution           =     -82.78136021 Ry
     ewald contribution        =    -172.48306892 Ry
     one-center paw contrib.   =   -1109.65774401 Ry
     smearing contrib. (-TS)   =      -0.00287536 Ry

     convergence has been achieved in   7 iterations

     Forces acting on atoms (cartesian axes, Ry/au):

     atom    1 type  1   force =     0.00000000    0.00000000   -0.00000000
     atom    2 type  1   force =     0.00000978    0.00000978    0.00000000
     atom    3 type  1   force =     0.00000978   -0.00000000    0.00000978
     atom    4 type  1   force =    -0.00000000    0.00000978    0.00000978
     atom    5 type  1   force =     0.00000000    0.00000000    0.00000000
     atom    6 type  1   force =     0.00000691    0.00000691    0.00000000
     atom    7 type  1   force =     0.00000978   -0.00000000   -0.00000978
     atom    8 type  1   force =     0.00000000    0.00000978   -0.00000978
     atom    9 type  1   force =     0.00000000    0.00000000    0.00000000
     atom   10 type  1   force =     0.00000978   -0.00000978    0.00000000
     atom   11 type  1   force =     0.00000691   -0.00000000    0.00000691
     atom   12 type  1   force =     0.00000000   -0.00000978    0.00000978
     atom   13 type  1   force =     0.00000000    0.00000000    0.00000000
     atom   14 type  1   force =     0.00000691   -0.00000691    0.00000000
     atom   15 type  1   force =     0.00000691   -0.00000000   -0.00000691
     atom   16 type  1   force =    -0.00000000   -0.00000978   -0.00000978
     atom   17 type  1   force =     0.00000000    0.00000000    0.00000000
     atom   18 type  1   force =    -0.00000978    0.00000978   -0.00000000
     atom   19 type  1   force =    -0.00000978   -0.00000000    0.00000978
     atom   20 type  1   force =    -0.00000000    0.00000691    0.00000691
     atom   21 type  1   force =     0.00000000    0.00000000    0.00000000
     atom   22 type  1   force =    -0.00000691    0.00000691    0.00000000
     atom   23 type  1   force =    -0.00000978   -0.00000000   -0.00000978
     atom   24 type  1   force =     0.00000000    0.00000691   -0.00000691
     atom   25 type  1   force =     0.00000000    0.00000000    0.00000000
     atom   26 type  1   force =    -0.00000978   -0.00000978    0.00000000
     atom   27 type  1   force =    -0.00000691    0.00000000    0.00000691
     atom   28 type  1   force =     0.00000000   -0.00000691    0.00000691
     atom   29 type  1   force =     0.00000000    0.00000000    0.00000000
     atom   30 type  1   force =    -0.00000691   -0.00000691   -0.00000000
     atom   31 type  1   force =    -0.00000691   -0.00000000   -0.00000691
     atom   32 type  1   force =    -0.00000000   -0.00000691   -0.00000691

     Total force =     0.000059     Total SCF correction =     0.000580
     SCF correction compared to forces is large: reduce conv_thr to get better values


     Computing stress (Cartesian axis) and pressure

          total   stress  (Ry/bohr**3)                   (kbar)     P=   -6.83
  -0.00004646   0.00000000   0.00000000         -6.83      0.00      0.00
   0.00000000  -0.00004646   0.00000000          0.00     -6.83      0.00
   0.00000000   0.00000000  -0.00004646          0.00      0.00     -6.83


     Writing output data file nLbvDweUcsMIleos.save/
 
     init_run     :      6.58s CPU      6.77s WALL (       1 calls)
     electrons    :     88.44s CPU     90.11s WALL (       1 calls)
     forces       :      1.17s CPU      1.23s WALL (       1 calls)
     stress       :      6.15s CPU      6.19s WALL (       1 calls)

     Called by init_run:
     wfcinit      :      6.20s CPU      6.35s WALL (       1 calls)
     potinit      :      0.09s CPU      0.09s WALL (       1 calls)
     hinit0       :      0.16s CPU      0.20s WALL (       1 calls)

     Called by electrons:
     c_bands      :     77.97s CPU     79.30s WALL (       8 calls)
     sum_band     :      9.89s CPU     10.16s WALL (       8 calls)
     v_of_rho     :      0.09s CPU      0.10s WALL (       8 calls)
     newd         :      0.07s CPU      0.10s WALL (       8 calls)
     PAW_pot      :      0.46s CPU      0.47s WALL (       8 calls)
     mix_rho      :      0.02s CPU      0.02s WALL (       8 calls)

     Called by c_bands:
     init_us_2    :      1.61s CPU      1.64s WALL (    1064 calls)
     cegterg      :     73.76s CPU     75.05s WALL (     448 calls)

     Called by sum_band:
     sum_band:bec :      0.04s CPU      0.04s WALL (     448 calls)
     addusdens    :      0.05s CPU      0.08s WALL (       8 calls)

     Called by *egterg:
     h_psi        :     53.77s CPU     54.84s WALL (    1984 calls)
     s_psi        :      4.07s CPU      4.09s WALL (    1984 calls)
     g_psi        :      0.21s CPU      0.21s WALL (    1480 calls)
     cdiaghg      :     10.61s CPU     10.65s WALL (    1872 calls)

     Called by h_psi:
     h_psi:pot    :     53.43s CPU     54.50s WALL (    1984 calls)
     h_psi:calbec :      4.47s CPU      4.73s WALL (    1984 calls)
     vloc_psi     :     44.82s CPU     45.60s WALL (    1984 calls)
     add_vuspsi   :      4.13s CPU      4.16s WALL (    1984 calls)

     General routines
     calbec       :      7.52s CPU      7.93s WALL (    2712 calls)
     fft          :      0.23s CPU      0.28s WALL (     115 calls)
     ffts         :      0.01s CPU      0.01s WALL (       8 calls)
     fftw         :     48.59s CPU     49.45s WALL (  187690 calls)
 
     Parallel routines
     fft_scatt_xy :      4.45s CPU      4.53s WALL (  187813 calls)
     fft_scatt_yz :     28.55s CPU     29.09s WALL (  187813 calls)
 
     PWSCF        :  1m43.80s CPU     1m49.48s WALL

 
   This run was terminated on:   3:28: 1  25Mar2020            

=------------------------------------------------------------------------------=
   JOB DONE.
=------------------------------------------------------------------------------=
