
     Program PWSCF v.6.3 starts on 25Mar2020 at  3:11:58 

     This program is part of the open-source Quantum ESPRESSO suite
     for quantum simulation of materials; please cite
         "P. Giannozzi et al., J. Phys.:Condens. Matter 21 395502 (2009);
         "P. Giannozzi et al., J. Phys.:Condens. Matter 29 465901 (2017);
          URL http://www.quantum-espresso.org", 
     in publications or presentations arising from this work. More details at
     http://www.quantum-espresso.org/quote

     Parallel version (MPI & OpenMP), running on      20 processor cores
     Number of MPI processes:                20
     Threads/MPI process:                     1

     MPI processes distributed on     1 nodes
     R & G space division:  proc/nbgrp/npool/nimage =      20
     Reading input from /rds/homes/b/bxp912/jobs/20200324_al_eos_e/wd/pwscf_eos/eos_2.in
Warning: card &IONS ignored
Warning: card ION_DYNAMICS = 'BFGS', ignored
Warning: card / ignored
Warning: card &CELL ignored
Warning: card CELL_DYNAMICS = 'BFGS', ignored
Warning: card CELL_FACTOR = 2.0, ignored
Warning: card PRESS = 0.0, ignored
Warning: card / ignored

     Current dimensions of program PWSCF are:
     Max number of different atomic species (ntypx) = 10
     Max number of k-points (npk) =  40000
     Max angular momentum in pseudopotentials (lmaxx) =  3
     Message from routine read_upf::
     Pseudo file /rds/homes/b/bxp912/pp/Al.pbe-nl-kjpaw_psl.1.0.0.UPF has been successfully fixed on the fly.
To avoid this message in the future you can permanently fix 
 your pseudo files following instructions given in: 
https://gitlab.com/QEF/q-e/blob/master/upftools/how_to_fix_upf.md
               file Al.pbe-nl-kjpaw_psl.1.0.0.UPF: wavefunction(s)  3S 3P renormalized

     Subspace diagonalization in iterative solution of the eigenvalue problem:
     a serial algorithm will be used

     Found symmetry operation: I + (  0.2500  0.2500  0.0000)
     This is a supercell, fractional translations are disabled
 
     Parallelization info
     --------------------
     sticks:   dense  smooth     PW     G-vecs:    dense   smooth      PW
     Min         184     184     50                 8402     8402    1214
     Max         185     185     51                 8405     8405    1217
     Sum        3697    3697   1005               168069   168069   24303
 


     bravais-lattice index     =            0
     lattice parameter (alat)  =      15.2652  a.u.
     unit-cell volume          =    3514.6500 (a.u.)^3
     number of atoms/cell      =           32
     number of atomic types    =            1
     number of electrons       =        96.00
     number of Kohn-Sham states=           58
     kinetic-energy cutoff     =      50.0000  Ry
     charge density cutoff     =     200.0000  Ry
     convergence threshold     =      1.0E-06
     mixing beta               =       0.1000
     number of iterations used =           10  plain     mixing
     Exchange-correlation      = SLA PW PBX PBC ( 1  4  3  4 0 0)

     celldm(1)=  15.265160  celldm(2)=   0.000000  celldm(3)=   0.000000
     celldm(4)=   0.000000  celldm(5)=   0.000000  celldm(6)=   0.000000

     crystal axes: (cart. coord. in units of alat)
               a(1) = (   0.996000   0.000000   0.000000 )  
               a(2) = (   0.000000   0.996000   0.000000 )  
               a(3) = (   0.000000   0.000000   0.996000 )  

     reciprocal axes: (cart. coord. in units 2 pi/alat)
               b(1) = (  1.004016  0.000000  0.000000 )  
               b(2) = (  0.000000  1.004016  0.000000 )  
               b(3) = (  0.000000  0.000000  1.004016 )  


     PseudoPot. # 1 for Al read from file:
     /rds/homes/b/bxp912/pp/Al.pbe-nl-kjpaw_psl.1.0.0.UPF
     MD5 check sum: 339dbea23cf3ab9a065ad45c0f9085d7
     Pseudo is Projector augmented-wave + core cor, Zval =  3.0
     Generated using "atomic" code by A. Dal Corso v.5.1
     Shape of augmentation charge: PSQ
     Using radial grid of 1135 points,  4 beta functions with: 
                l(1) =   0
                l(2) =   0
                l(3) =   1
                l(4) =   1
     Q(r) pseudized with 0 coefficients 


     atomic species   valence    mass     pseudopotential
        Al             3.00    26.98200     Al( 1.00)

     48 Sym. Ops., with inversion, found



   Cartesian axes

     site n.     atom                  positions (alat units)
         1           Al  tau(   1) = (   0.0000000   0.0000000   0.0000000  )
         2           Al  tau(   2) = (   0.2490000   0.2490000   0.0000000  )
         3           Al  tau(   3) = (   0.2490000   0.0000000   0.2490000  )
         4           Al  tau(   4) = (   0.0000000   0.2490000   0.2490000  )
         5           Al  tau(   5) = (   0.0000000   0.0000000   0.4980000  )
         6           Al  tau(   6) = (   0.2490000   0.2490000   0.4980000  )
         7           Al  tau(   7) = (   0.2490000   0.0000000   0.7470000  )
         8           Al  tau(   8) = (   0.0000000   0.2490000   0.7470000  )
         9           Al  tau(   9) = (   0.0000000   0.4980000   0.0000000  )
        10           Al  tau(  10) = (   0.2490000   0.7470000   0.0000000  )
        11           Al  tau(  11) = (   0.2490000   0.4980000   0.2490000  )
        12           Al  tau(  12) = (   0.0000000   0.7470000   0.2490000  )
        13           Al  tau(  13) = (   0.0000000   0.4980000   0.4980000  )
        14           Al  tau(  14) = (   0.2490000   0.7470000   0.4980000  )
        15           Al  tau(  15) = (   0.2490000   0.4980000   0.7470000  )
        16           Al  tau(  16) = (   0.0000000   0.7470000   0.7470000  )
        17           Al  tau(  17) = (   0.4980000   0.0000000   0.0000000  )
        18           Al  tau(  18) = (   0.7470000   0.2490000   0.0000000  )
        19           Al  tau(  19) = (   0.7470000   0.0000000   0.2490000  )
        20           Al  tau(  20) = (   0.4980000   0.2490000   0.2490000  )
        21           Al  tau(  21) = (   0.4980000   0.0000000   0.4980000  )
        22           Al  tau(  22) = (   0.7470000   0.2490000   0.4980000  )
        23           Al  tau(  23) = (   0.7470000   0.0000000   0.7470000  )
        24           Al  tau(  24) = (   0.4980000   0.2490000   0.7470000  )
        25           Al  tau(  25) = (   0.4980000   0.4980000   0.0000000  )
        26           Al  tau(  26) = (   0.7470000   0.7470000   0.0000000  )
        27           Al  tau(  27) = (   0.7470000   0.4980000   0.2490000  )
        28           Al  tau(  28) = (   0.4980000   0.7470000   0.2490000  )
        29           Al  tau(  29) = (   0.4980000   0.4980000   0.4980000  )
        30           Al  tau(  30) = (   0.7470000   0.7470000   0.4980000  )
        31           Al  tau(  31) = (   0.7470000   0.4980000   0.7470000  )
        32           Al  tau(  32) = (   0.4980000   0.7470000   0.7470000  )

     number of k points=    56  Marzari-Vanderbilt smearing, width (Ry)=  0.0400
                       cart. coord. in units 2pi/alat
        k(    1) = (   0.0456371   0.0456371   0.0456371), wk =   0.0120210
        k(    2) = (   0.0456371   0.0456371   0.1369113), wk =   0.0360631
        k(    3) = (   0.0456371   0.0456371   0.2281855), wk =   0.0360631
        k(    4) = (   0.0456371   0.0456371   0.3194597), wk =   0.0360631
        k(    5) = (   0.0456371   0.0456371   0.4107338), wk =   0.0360631
        k(    6) = (   0.0456371   0.0456371  -0.5020080), wk =   0.0180316
        k(    7) = (   0.0456371   0.1369113   0.1369113), wk =   0.0360631
        k(    8) = (   0.0456371   0.1369113   0.2281855), wk =   0.0721262
        k(    9) = (   0.0456371   0.1369113   0.3194597), wk =   0.0721262
        k(   10) = (   0.0456371   0.1369113   0.4107338), wk =   0.0721262
        k(   11) = (   0.0456371   0.1369113  -0.5020080), wk =   0.0360631
        k(   12) = (   0.0456371   0.2281855   0.2281855), wk =   0.0360631
        k(   13) = (   0.0456371   0.2281855   0.3194597), wk =   0.0721262
        k(   14) = (   0.0456371   0.2281855   0.4107338), wk =   0.0721262
        k(   15) = (   0.0456371   0.2281855  -0.5020080), wk =   0.0360631
        k(   16) = (   0.0456371   0.3194597   0.3194597), wk =   0.0360631
        k(   17) = (   0.0456371   0.3194597   0.4107338), wk =   0.0721262
        k(   18) = (   0.0456371   0.3194597  -0.5020080), wk =   0.0360631
        k(   19) = (   0.0456371   0.4107338   0.4107338), wk =   0.0360631
        k(   20) = (   0.0456371   0.4107338  -0.5020080), wk =   0.0360631
        k(   21) = (   0.0456371  -0.5020080  -0.5020080), wk =   0.0090158
        k(   22) = (   0.1369113   0.1369113   0.1369113), wk =   0.0120210
        k(   23) = (   0.1369113   0.1369113   0.2281855), wk =   0.0360631
        k(   24) = (   0.1369113   0.1369113   0.3194597), wk =   0.0360631
        k(   25) = (   0.1369113   0.1369113   0.4107338), wk =   0.0360631
        k(   26) = (   0.1369113   0.1369113  -0.5020080), wk =   0.0180316
        k(   27) = (   0.1369113   0.2281855   0.2281855), wk =   0.0360631
        k(   28) = (   0.1369113   0.2281855   0.3194597), wk =   0.0721262
        k(   29) = (   0.1369113   0.2281855   0.4107338), wk =   0.0721262
        k(   30) = (   0.1369113   0.2281855  -0.5020080), wk =   0.0360631
        k(   31) = (   0.1369113   0.3194597   0.3194597), wk =   0.0360631
        k(   32) = (   0.1369113   0.3194597   0.4107338), wk =   0.0721262
        k(   33) = (   0.1369113   0.3194597  -0.5020080), wk =   0.0360631
        k(   34) = (   0.1369113   0.4107338   0.4107338), wk =   0.0360631
        k(   35) = (   0.1369113   0.4107338  -0.5020080), wk =   0.0360631
        k(   36) = (   0.1369113  -0.5020080  -0.5020080), wk =   0.0090158
        k(   37) = (   0.2281855   0.2281855   0.2281855), wk =   0.0120210
        k(   38) = (   0.2281855   0.2281855   0.3194597), wk =   0.0360631
        k(   39) = (   0.2281855   0.2281855   0.4107338), wk =   0.0360631
        k(   40) = (   0.2281855   0.2281855  -0.5020080), wk =   0.0180316
        k(   41) = (   0.2281855   0.3194597   0.3194597), wk =   0.0360631
        k(   42) = (   0.2281855   0.3194597   0.4107338), wk =   0.0721262
        k(   43) = (   0.2281855   0.3194597  -0.5020080), wk =   0.0360631
        k(   44) = (   0.2281855   0.4107338   0.4107338), wk =   0.0360631
        k(   45) = (   0.2281855   0.4107338  -0.5020080), wk =   0.0360631
        k(   46) = (   0.2281855  -0.5020080  -0.5020080), wk =   0.0090158
        k(   47) = (   0.3194597   0.3194597   0.3194597), wk =   0.0120210
        k(   48) = (   0.3194597   0.3194597   0.4107338), wk =   0.0360631
        k(   49) = (   0.3194597   0.3194597  -0.5020080), wk =   0.0180316
        k(   50) = (   0.3194597   0.4107338   0.4107338), wk =   0.0360631
        k(   51) = (   0.3194597   0.4107338  -0.5020080), wk =   0.0360631
        k(   52) = (   0.3194597  -0.5020080  -0.5020080), wk =   0.0090158
        k(   53) = (   0.4107338   0.4107338   0.4107338), wk =   0.0120210
        k(   54) = (   0.4107338   0.4107338  -0.5020080), wk =   0.0180316
        k(   55) = (   0.4107338  -0.5020080  -0.5020080), wk =   0.0090158
        k(   56) = (  -0.5020080  -0.5020080  -0.5020080), wk =   0.0015026

     Dense  grid:   168069 G-vectors     FFT dimensions: (  72,  72,  72)

     Estimated max dynamical RAM per process >      80.89 MB

     Estimated total dynamical RAM >       1.58 GB

     Initial potential from superposition of free atoms

     starting charge   95.92671, renormalised to   96.00000
     Starting wfcs are  128 randomized atomic wfcs
     Checking if some PAW data can be deallocated... 

     total cpu time spent up to now is        7.0 secs

     Self-consistent Calculation

     iteration #  1     ecut=    50.00 Ry     beta= 0.10
     Davidson diagonalization with overlap
     ethr =  1.00E-02,  avg # of iterations =  3.0

     Threshold (ethr) on eigenvalues was too large:
     Diagonalizing with lowered threshold

     Davidson diagonalization with overlap
     ethr =  1.90E-04,  avg # of iterations =  4.5

     total cpu time spent up to now is       30.9 secs

     total energy              =   -1264.12308963 Ry
     Harris-Foulkes estimate   =   -1264.13245460 Ry
     estimated scf accuracy    <       0.17923189 Ry

     iteration #  2     ecut=    50.00 Ry     beta= 0.10
     Davidson diagonalization with overlap
     ethr =  1.87E-04,  avg # of iterations =  1.0

     total cpu time spent up to now is       38.2 secs

     total energy              =   -1264.08267071 Ry
     Harris-Foulkes estimate   =   -1264.12386789 Ry
     estimated scf accuracy    <       0.14396145 Ry

     iteration #  3     ecut=    50.00 Ry     beta= 0.10
     Davidson diagonalization with overlap
     ethr =  1.50E-04,  avg # of iterations =  1.0

     total cpu time spent up to now is       45.5 secs

     total energy              =   -1264.08532764 Ry
     Harris-Foulkes estimate   =   -1264.08533029 Ry
     estimated scf accuracy    <       0.00023714 Ry

     iteration #  4     ecut=    50.00 Ry     beta= 0.10
     Davidson diagonalization with overlap
     c_bands:  1 eigenvalues not converged
     c_bands:  1 eigenvalues not converged
     c_bands:  2 eigenvalues not converged
     c_bands:  1 eigenvalues not converged
     ethr =  2.47E-07,  avg # of iterations =  7.6

     total cpu time spent up to now is       62.9 secs

     total energy              =   -1264.08646774 Ry
     Harris-Foulkes estimate   =   -1264.08616176 Ry
     estimated scf accuracy    <       0.00021058 Ry

     iteration #  5     ecut=    50.00 Ry     beta= 0.10
     Davidson diagonalization with overlap
     ethr =  2.19E-07,  avg # of iterations =  1.5

     total cpu time spent up to now is       70.5 secs

     total energy              =   -1264.08605376 Ry
     Harris-Foulkes estimate   =   -1264.08647779 Ry
     estimated scf accuracy    <       0.00092555 Ry

     iteration #  6     ecut=    50.00 Ry     beta= 0.10
     Davidson diagonalization with overlap
     ethr =  2.19E-07,  avg # of iterations =  2.1

     total cpu time spent up to now is       80.2 secs

     total energy              =   -1264.08608407 Ry
     Harris-Foulkes estimate   =   -1264.08608364 Ry
     estimated scf accuracy    <       0.00000138 Ry

     iteration #  7     ecut=    50.00 Ry     beta= 0.10
     Davidson diagonalization with overlap
     ethr =  1.44E-09,  avg # of iterations =  5.8

     total cpu time spent up to now is       95.6 secs

     total energy              =   -1264.08608643 Ry
     Harris-Foulkes estimate   =   -1264.08608691 Ry
     estimated scf accuracy    <       0.00000283 Ry

     iteration #  8     ecut=    50.00 Ry     beta= 0.10
     Davidson diagonalization with overlap
     ethr =  1.44E-09,  avg # of iterations =  3.1

     total cpu time spent up to now is      106.9 secs

     total energy              =   -1264.08608609 Ry
     Harris-Foulkes estimate   =   -1264.08608681 Ry
     estimated scf accuracy    <       0.00000223 Ry

     iteration #  9     ecut=    50.00 Ry     beta= 0.10
     Davidson diagonalization with overlap
     ethr =  1.44E-09,  avg # of iterations =  1.9

     total cpu time spent up to now is      114.8 secs

     End of self-consistent calculation

          k = 0.0456 0.0456 0.0456 ( 20989 PWs)   bands (ev):

    -3.1735  -1.1095  -1.1094  -1.1094  -0.7004  -0.7003  -0.7003   0.9250
     0.9251   0.9251   1.3283   1.3283   1.3283   1.3283   1.3283   1.3284
     1.7303   1.7304   1.7304   2.9245   3.2995   3.2995   3.2996   3.7712
     3.7713   3.7713   4.1444   4.9928   4.9928   4.9928   6.5653   6.5653
     6.5653   6.9011   6.9011   6.9011   6.9012   6.9012   6.9012   7.2844
     7.2844   7.2844   7.2845   7.2845   7.2845   8.3033   8.3033   8.3034
     8.3034   8.3034   8.3034   8.8248   8.8249   8.8249   9.2079   9.2079
     9.2079   9.2079

          k = 0.0456 0.0456 0.1369 ( 20952 PWs)   bands (ev):

    -3.1357  -1.4824  -1.0722  -1.0722  -0.6632  -0.6632  -0.2555   0.5574
     0.5574   0.9617   0.9617   0.9618   1.3649   1.3649   1.7667   1.7667
     1.7669   2.1674   2.1675   2.5663   2.9604   2.9605   3.3351   3.8077
     4.1804   4.1804   4.4432   4.5709   5.0276   5.0276   6.3722   6.3722
     6.5561   6.5562   6.6015   6.6015   6.7395   6.7396   6.9553   6.9554
     7.1801   7.3249   7.3250   7.6831   7.6831   8.1129   8.1130   8.3262
     8.4766   8.4766   8.5060   8.5061   8.6919   8.6919   8.7112   8.7112
     8.8596   8.8596

          k = 0.0456 0.0456 0.2282 ( 20957 PWs)   bands (ev):

    -3.0601  -1.8190  -0.9977  -0.9977  -0.5890  -0.5889   0.2245   0.2256
     0.2256   0.6308   0.6309   1.0352   1.4382   1.4382   1.8399   2.2397
     2.2398   2.2405   2.6385   2.6385   2.6390   2.6391   3.0323   3.7843
     4.2521   4.6422   4.6422   5.0346   5.0971   5.0971   5.7336   5.7337
     6.1157   6.1157   6.2440   6.2440   6.6736   6.6737   7.0157   7.0157
     7.3959   7.3959   7.7006   7.7870   7.7871   7.9695   8.0874   8.0875
     8.1632   8.1632   8.1948   8.1948   8.4739   8.5462   8.5462   8.6536
     8.6536   8.9697

          k = 0.0456 0.0456 0.3195 ( 20963 PWs)   bands (ev):

    -2.9469  -2.1189  -0.8861  -0.8860  -0.4776  -0.4776  -0.0700  -0.0700
     0.3361   0.3361   0.7393   1.1453   1.5479   1.5479   1.9493   1.9497
     2.3493   2.3493   2.7468   2.7468   2.7469   3.1230   3.1444   3.1445
     4.7487   5.0884   5.0884   5.1407   5.1407   5.2015   5.2015   5.4758
     5.4758   5.5330   5.9662   5.9662   6.7814   6.7814   7.0633   7.1190
     7.1191   7.4517   7.4517   7.5008   7.5008   7.5449   7.5449   7.8396
     7.8846   7.8846   8.2675   8.2675   8.6617   8.6617   8.7917   8.7917
     8.8263   9.1506

          k = 0.0456 0.0456 0.4107 ( 20980 PWs)   bands (ev):

    -2.7960  -2.3818  -0.7374  -0.7373  -0.3294  -0.3293  -0.3292  -0.3291
     0.0777   0.0777   1.2879   1.2920   1.6941   1.6941   1.6944   2.0950
     2.0951   2.0951   2.4823   2.4943   3.2869   3.2870   3.6828   3.6828
     4.4607   4.4607   4.8516   4.8517   5.2814   5.3406   5.3406   5.6731
     5.6732   5.7230   5.7230   6.0647   6.4421   6.8319   6.8319   6.9242
     6.9242   7.2212   7.2580   7.2580   7.3094   7.3094   7.6403   7.6403
     7.6408   7.6409   8.0236   8.0236   8.9493   8.9494   9.1793   9.1793
     9.3234   9.3234

          k = 0.0456 0.0456-0.5020 ( 20998 PWs)   bands (ev):

    -2.6076  -2.6075  -0.5517  -0.5517  -0.5517  -0.5516  -0.1442  -0.1442
    -0.1442  -0.1441   1.4750   1.4751   1.8695   1.8695   1.8766   1.8766
     1.8766   1.8766   2.2767   2.2768   3.8589   3.8589   3.8590   3.8590
     4.2526   4.2526   4.2526   4.2526   5.5144   5.5144   5.5144   5.5144
     5.8467   5.8467   6.2376   6.2377   6.2377   6.2377   6.6281   6.6281
     7.1009   7.1009   7.1009   7.1009   7.4319   7.4319   7.4320   7.4320
     7.8146   7.8146   7.8146   7.8146   9.1360   9.1360   9.1360   9.1361
     9.5164   9.5165

          k = 0.0456 0.1369 0.1369 ( 20971 PWs)   bands (ev):

    -3.0979  -1.4451  -1.4451  -1.0349  -0.6261  -0.2185  -0.2185   0.1887
     0.5942   0.5942   0.9984   0.9984   1.4013   1.4013   1.8032   1.8032
     2.2038   2.2039   2.2043   2.6024   2.6031   3.3704   3.3705   3.8441
     3.8441   4.4786   4.4786   4.6066   4.9991   5.0624   6.0254   6.0255
     6.3891   6.3891   6.5879   6.5880   6.6375   6.8275   6.8275   7.1616
     7.1616   7.2156   7.2156   7.7370   7.7370   7.9757   7.9758   8.1284
     8.2350   8.2350   8.3609   8.3610   8.6288   8.6288   9.0009   9.0010
     9.1305   9.1306

          k = 0.0456 0.1369 0.2282 ( 20966 PWs)   bands (ev):

    -3.0224  -1.7816  -1.3704  -0.9605  -0.5518  -0.1445  -0.1439   0.2614
     0.2625   0.6677   0.6679   1.0715   1.0718   1.8756   1.8762   1.8769
     2.2761   2.2766   2.2768   2.6753   3.0682   3.0731   3.4415   3.8200
     3.9166   4.2881   4.5493   5.0702   5.1319   5.3827   5.4627   5.7110
     5.7639   6.1232   6.2781   6.5080   6.5315   6.6887   6.7093   6.8890
     7.2864   7.3484   7.5265   7.6601   7.7356   7.8114   7.8150   8.0043
     8.0276   8.0454   8.1592   8.3354   8.4347   8.5086   8.8945   8.9639
     9.1752   9.2051

          k = 0.0456 0.1369 0.3195 ( 20973 PWs)   bands (ev):

    -2.9091  -2.0814  -1.2585  -0.8489  -0.4405  -0.4403  -0.0335  -0.0330
     0.3730   0.7760   0.7777   0.7782   1.1819   1.5849   1.9856   1.9860
     2.3841   2.3855   2.7828   2.7830   3.1590   3.1760   3.1805   3.5766
     4.3951   4.6553   4.7340   4.7845   5.1220   5.2362   5.4304   5.5057
     5.5684   5.8935   5.9603   6.0007   6.6133   6.7096   6.7734   6.8165
     6.9926   7.0984   7.3794   7.3920   7.5354   7.5365   7.7647   7.8744
     7.9175   8.1296   8.2329   8.2618   8.4545   8.6852   8.7037   8.8604
     9.2546   9.3584

          k = 0.0456 0.1369 0.4107 ( 20981 PWs)   bands (ev):

    -2.7583  -2.3442  -1.1094  -0.7002  -0.7001  -0.2923  -0.2921   0.1143
     0.1147   0.5201   0.9253   1.3246   1.3285   1.3288   1.7308   2.1312
     2.5185   2.5304   2.5306   2.9258   2.9272   3.3229   3.7184   4.1036
     4.1127   4.4956   4.7966   4.8854   4.9257   5.1843   5.2753   5.3170
     5.3753   5.7576   6.0874   6.1000   6.4774   6.4909   6.7494   6.9108
     6.9580   7.1327   7.1338   7.2562   7.2929   7.3327   7.5189   7.5319
     7.6448   7.9071   8.0575   8.4412   8.6038   8.7123   9.0033   9.2157
     9.5203   9.7168

          k = 0.0456 0.1369-0.5020 ( 20970 PWs)   bands (ev):

    -2.5699  -2.5699  -0.9232  -0.9232  -0.5146  -0.5145  -0.1072  -0.1071
     0.2989   0.2989   1.1088   1.1089   1.5115   1.5115   1.9060   1.9060
     2.3129   2.3129   2.7113   2.7114   3.4997   3.4997   3.8945   3.8945
     4.2876   4.2876   4.6799   4.6799   4.9729   4.9730   5.4912   5.4912
     5.5491   5.5491   5.8822   5.8822   6.6633   6.6633   6.9236   6.9237
     7.0532   7.0532   7.0843   7.0843   7.1319   7.1319   7.3082   7.3082
     7.7046   7.7046   8.2320   8.2321   8.7864   8.7864   9.2547   9.2547
     9.7075   9.7077

          k = 0.0456 0.2282 0.2282 ( 20971 PWs)   bands (ev):

    -2.9469  -1.7068  -1.7067  -0.8861  -0.4776  -0.4773   0.3352   0.3352
     0.3363   0.3364   0.7412   0.7413   1.5470   1.5470   1.5484   1.9496
     2.3487   2.3488   2.7476   2.7477   3.5122   3.5122   3.5412   3.8915
     3.8915   3.9894   3.9894   5.0650   5.0651   5.2015   5.5334   5.8065
     5.8065   5.9254   6.2849   6.2849   6.3443   6.3443   6.7804   6.9698
     6.9698   7.0311   7.0312   7.4184   7.4184   7.5018   8.0537   8.0537
     8.0738   8.0738   8.2593   8.2594   8.9636   8.9636   9.1141   9.1141
     9.2208   9.3492

          k = 0.0456 0.2282 0.3195 ( 20969 PWs)   bands (ev):

    -2.8337  -2.0064  -1.5945  -0.7745  -0.7744  -0.3664   0.0410   0.4458
     0.4467   0.4470   0.8495   0.8516   1.2542   1.2556   1.6578   2.0567
     2.4577   2.8552   2.8560   3.2311   3.2474   3.2523   3.6187   3.9987
     4.0425   4.0977   4.4137   4.4671   4.7817   5.1868   5.3057   5.5446
     6.0112   6.0308   6.0694   6.3157   6.3669   6.3912   6.4219   6.4861
     6.7490   6.7800   6.8859   7.1363   7.2234   7.3383   7.8923   8.1512
     8.1773   8.3311   8.3683   8.7114   8.7178   8.9284   8.9356   8.9462
     9.1376   9.4521

          k = 0.0456 0.2282 0.4107 ( 20979 PWs)   bands (ev):

    -2.6829  -2.2691  -1.4451  -1.0348  -0.6259  -0.2182  -0.2180   0.1885
     0.5931   0.5943   0.9974   0.9985   0.9988   1.3977   1.4018   2.5910
     2.5999   2.6026   2.9989   3.0001   3.3910   3.3946   3.7811   3.7895
     4.1414   4.5331   4.5648   4.5759   4.6089   4.9502   4.9972   5.4448
     5.7287   5.7682   5.8268   6.1221   6.1581   6.5026   6.5032   6.5611
     6.6000   6.8894   6.9513   6.9800   7.0240   7.3550   7.7144   8.1024
     8.1500   8.2917   8.3138   8.5092   8.6708   8.6852   8.8936   9.2265
     9.2922   9.8266

          k = 0.0456 0.2282-0.5020 ( 20990 PWs)   bands (ev):

    -2.4947  -2.4946  -1.2585  -1.2584  -0.4404  -0.4403  -0.0332  -0.0332
     0.7770   0.7771   0.7783   0.7784   1.1820   1.1820   1.9788   1.9788
     2.7832   2.7833   3.1753   3.1753   3.1792   3.1792   3.9654   3.9654
     4.3196   4.3196   4.3570   4.3570   5.1394   5.1394   5.1720   5.1720
     5.5623   5.5623   5.6185   5.6185   6.2927   6.2927   6.6781   6.6782
     6.7719   6.7719   7.1231   7.1231   7.1889   7.1889   7.5122   7.5122
     8.4703   8.4703   8.4810   8.4810   8.6563   8.6564   8.6841   8.6842
     9.8406   9.8406

          k = 0.0456 0.3195 0.3195 ( 20991 PWs)   bands (ev):

    -2.7206  -1.8939  -1.8939  -1.0721  -0.6630  -0.2552   0.1518   0.1518
     0.5573   0.5573   0.9597   0.9597   0.9621   1.3652   1.7650   1.7650
     2.9635   2.9635   3.3390   3.3390   3.3597   3.3598   3.7243   3.7244
     4.1281   4.1281   4.2066   4.2066   4.5412   5.2623   5.2624   5.4100
     5.7560   5.7561   6.1084   6.1084   6.1703   6.1703   6.4969   6.4970
     6.5269   6.8154   6.8154   6.9172   6.9453   6.9879   7.8983   7.8984
     8.6511   8.8211   8.8211   8.8513   8.8514   9.0292   9.0292   9.2071
     9.2071   9.2104

          k = 0.0456 0.3195 0.4107 ( 20987 PWs)   bands (ev):

    -2.5699  -2.1564  -1.7441  -1.3331  -0.5145  -0.1072  -0.1070   0.2993
     0.2995   0.7045   0.7048   1.1064   1.1087   1.5075   1.5093   2.3094
     2.6996   3.1074   3.4829   3.4936   3.4977   3.5019   3.5021   3.8663
     3.8776   3.8952   4.3499   4.6655   4.7166   5.0249   5.0709   5.4856
     5.5106   5.5489   5.8623   5.8679   5.8746   5.9302   6.1832   6.2497
     6.3498   6.7024   7.0558   7.1166   7.2049   7.4452   7.7807   8.0188
     8.2061   8.4021   8.5933   8.6147   8.9950   9.1608   9.3370   9.3437
     9.3805   9.5575

          k = 0.0456 0.3195-0.5020 ( 20984 PWs)   bands (ev):

    -2.3818  -2.3818  -1.5572  -1.5571  -0.3292  -0.3291   0.0777   0.0777
     0.4838   0.4839   0.8884   0.8884   1.2897   1.2897   2.0880   2.0880
     2.8863   2.8863   3.2862   3.2863   3.6624   3.6625   3.6769   3.6770
     4.0708   4.0708   4.4580   4.4580   4.8921   4.8921   5.2790   5.2790
     5.6281   5.6281   5.6558   5.6558   5.7224   5.7225   6.0390   6.0391
     6.4958   6.4959   7.2465   7.2466   7.6163   7.6163   8.0046   8.0046
     8.0794   8.0794   8.1902   8.1903   9.1707   9.1708   9.3162   9.3163
     9.9511   9.9516

          k = 0.0456 0.4107 0.4107 ( 21002 PWs)   bands (ev):

    -2.4194  -2.0064  -2.0063  -1.5945  -0.3662   0.0408   0.0410   0.0410
     0.4468   0.4468   0.4470   0.8517   1.6536   1.6536   2.0548   2.0548
     2.8444   2.8444   3.2415   3.2416   3.6439   3.6440   4.0065   4.0066
     4.0330   4.0330   4.4945   4.4946   4.7774   4.7775   5.2425   5.2426
     5.2739   5.2739   5.5943   5.6277   5.6278   5.6877   6.0659   6.0659
     6.4611   6.7190   6.7190   7.2104   7.5833   7.7998   7.7999   7.9718
     8.0536   8.1560   8.7303   8.7303   9.1167   9.1167   9.5129   9.5130
     9.9015   9.9017

          k = 0.0456 0.4107-0.5020 ( 20988 PWs)   bands (ev):

    -2.2315  -2.2315  -1.8190  -1.8190  -0.1810  -0.1809   0.2254   0.2255
     0.2257   0.2257   0.6309   0.6310   1.8361   1.8361   2.2335   2.2335
     2.6328   2.6328   3.0250   3.0251   3.8183   3.8183   4.1837   4.1838
     4.2082   4.2082   4.5704   4.5704   4.6717   4.6717   5.0353   5.0353
     5.0603   5.0604   5.4206   5.4206   5.8606   5.8607   6.1162   6.1162
     6.2814   6.2814   7.1370   7.1370   7.7208   7.7208   7.9509   7.9509
     8.1422   8.1422   8.5296   8.5296   9.2859   9.2859   9.6714   9.6714
     9.6912   9.6913

          k = 0.0456-0.5020-0.5020 ( 21036 PWs)   bands (ev):

    -2.0439  -2.0438  -2.0438  -2.0438   0.0039   0.0040   0.0040   0.0040
     0.4098   0.4099   0.4100   0.4100   2.4151   2.4151   2.4151   2.4151
     2.4152   2.4152   2.4152   2.4152   4.3579   4.3579   4.3580   4.3580
     4.3580   4.3580   4.3581   4.3581   4.8513   4.8514   4.8514   4.8514
     4.8514   4.8514   4.8514   4.8515   6.0310   6.0311   6.0311   6.0311
     6.6864   6.6864   6.6864   6.6864   7.7663   7.7664   7.7664   7.7664
     8.6994   8.6994   8.6994   8.6994   9.0859   9.0859   9.0859   9.0859
    10.2439  10.2440

          k = 0.1369 0.1369 0.1369 ( 20957 PWs)   bands (ev):

    -3.0601  -1.4078  -1.4077  -1.4077  -0.1816  -0.1815  -0.1815   0.2256
     0.2257   0.2257   1.4378   1.4378   1.4378   1.4379   1.4379   1.4379
     1.8405   2.6393   2.6394   2.6394   3.0322   3.0322   3.0322   4.2523
     4.2523   4.2523   4.5139   4.5139   4.5140   5.4274   6.0570   6.0570
     6.0570   6.0570   6.0570   6.0570   7.2229   7.2229   7.2229   7.2230
     7.2230   7.2230   7.2509   7.2509   7.2509   7.6252   7.6252   7.6252
     8.7797   8.7798   8.7798   8.7798   8.7805   8.7805   8.7805   8.7806
     8.7806   8.7806

          k = 0.1369 0.1369 0.2282 ( 20977 PWs)   bands (ev):

    -2.9846  -1.7441  -1.3331  -1.3331  -0.1075  -0.1075  -0.1069  -0.1069
     0.2983   0.2995   1.1081   1.1082   1.5110   1.5110   1.5119   1.9120
     1.9121   2.7106   2.7106   2.7117   3.1090   3.1091   3.4767   3.8558
     3.9532   4.5846   4.5846   4.7137   4.7137   5.4163   5.4163   5.7449
     5.7449   5.8902   6.1082   6.1083   6.6142   6.6142   6.9960   7.3011
     7.3011   7.3095   7.3096   7.3212   7.3212   7.6519   7.6519   8.0389
     8.1570   8.1571   8.4652   8.4652   8.5257   8.5257   8.9003   8.9003
     9.2343   9.2344

          k = 0.1369 0.1369 0.3195 ( 20977 PWs)   bands (ev):

    -2.8714  -2.0439  -1.2212  -1.2212  -0.4032  -0.4032   0.0034   0.0035
     0.4102   0.8128   0.8144   0.8145   1.2190   1.6207   1.6207   2.4203
     2.4204   2.4216   2.4216   2.8201   3.1950   3.5834   3.6123   3.6123
     4.0613   4.6906   4.6906   4.7688   4.7688   5.2119   5.2119   5.4651
     5.4651   5.8968   5.8968   6.2937   6.2938   6.3559   6.3869   7.0289
     7.0290   7.4094   7.4094   7.4261   7.4261   7.5216   7.5216   7.9968
     7.9969   8.1845   8.1845   8.4025   8.4025   8.6833   8.8941   9.0269
     9.0269   9.7219

          k = 0.1369 0.1369 0.4107 ( 20981 PWs)   bands (ev):

    -2.7206  -2.3066  -1.0721  -1.0721  -0.6630  -0.6629   0.1512   0.1513
     0.5569   0.5569   0.5576   0.9622   1.3612   1.7668   1.7668   2.1676
     2.1676   2.5548   2.9619   2.9620   2.9643   3.3554   4.1391   4.1391
     4.1478   4.1479   4.5730   4.8318   4.8318   5.2193   5.2193   5.3050
     5.3051   5.7327   5.7440   5.7440   6.4044   6.4045   6.7838   6.7838
     6.9021   6.9021   6.9164   7.5512   7.5512   7.5641   7.5641   7.9171
     7.9171   7.9386   7.9386   8.0678   8.7639   8.7639   9.1786   9.1786
     9.5771   9.5771

          k = 0.1369 0.1369-0.5020 ( 20972 PWs)   bands (ev):

    -2.5323  -2.5322  -0.8860  -0.8860  -0.8860  -0.8859   0.3357   0.3357
     0.3358   0.3359   0.7416   0.7417   1.9424   1.9424   1.9492   1.9492
     1.9492   1.9492   3.1434   3.1435   3.5355   3.5355   3.5355   3.5356
     4.7136   4.7136   4.7136   4.7137   5.0080   5.0080   5.0081   5.0081
     5.1363   5.1363   6.3082   6.3082   6.3082   6.3082   6.5748   6.5748
     6.5748   6.5749   7.4774   7.4774   7.7275   7.7275   7.7276   7.7276
     7.7320   7.7321   7.7321   7.7321   9.2944   9.2944   9.2944   9.2944
     9.3613   9.3614

          k = 0.1369 0.2282 0.2282 ( 20994 PWs)   bands (ev):

    -2.9091  -1.6693  -1.6693  -1.2585  -0.4402  -0.0335  -0.0329  -0.0329
     0.3720   0.3721   1.1815   1.1816   1.1824   1.5835   1.5835   1.9849
     1.9850   2.3854   3.1755   3.1755   3.1810   3.1810   3.5769   3.9272
     3.9272   4.3959   4.3960   4.6553   5.0997   5.0998   5.1768   5.4813
     5.4813   5.8110   5.8110   6.3521   6.6774   6.6775   6.6787   6.6788
     6.9940   7.0416   7.0416   7.3906   7.7466   7.7466   7.8402   7.8402
     8.1077   8.1077   8.6109   8.6110   8.6125   8.6125   8.9191   8.9192
     9.2482   9.2483

          k = 0.1369 0.2282 0.3195 ( 20985 PWs)   bands (ev):

    -2.7960  -1.9689  -1.5571  -1.1466  -0.7372  -0.3290   0.0774   0.0780
     0.4826   0.8862   0.8879   0.8888   1.2908   1.2915   2.0931   2.0942
     2.0949   2.4929   2.8907   3.2671   3.2885   3.6534   3.6834   4.0343
     4.0777   4.1347   4.4490   4.7612   4.8168   4.8378   4.8918   5.5339
     5.5598   5.6746   5.8975   6.0376   6.0661   6.3970   6.4305   6.7138
     6.7819   6.8477   7.2035   7.4932   7.4955   7.5582   7.8599   7.9788
     8.2097   8.2118   8.3686   8.6385   8.7231   8.9607   9.0242   9.1015
     9.1386   9.4069

          k = 0.1369 0.2282 0.4107 ( 20967 PWs)   bands (ev):

    -2.6452  -2.2315  -1.4077  -0.9977  -0.9976  -0.5887   0.2251   0.2258
     0.6299   0.6305   0.6313   1.0342   1.4343   1.4380   1.8399   2.2397
     2.6272   2.6361   2.6385   3.0341   3.4310   3.7960   3.8168   4.1770
     4.2097   4.2174   4.2774   4.5685   4.6098   4.9022   5.2890   5.3425
     5.4144   5.4237   5.7300   5.8024   6.1214   6.1518   6.2057   6.4698
     6.5831   6.9228   7.3111   7.3610   7.3760   7.6256   7.8317   8.0038
     8.3101   8.3423   8.3925   8.5245   8.5704   8.8682   8.9559   9.2617
     9.2674   9.6232

          k = 0.1369 0.2282-0.5020 ( 20988 PWs)   bands (ev):

    -2.4570  -2.4570  -1.2212  -1.2211  -0.8116  -0.8116   0.4095   0.4095
     0.4102   0.4103   0.8138   0.8138   1.6208   1.6208   2.0152   2.0152
     2.4212   2.4213   3.2113   3.2114   3.6060   3.6061   3.6071   3.6071
     4.3551   4.3551   4.7786   4.7786   4.8205   4.8205   5.0782   5.0783
     5.1691   5.1691   5.9461   5.9462   5.9884   5.9884   6.2646   6.2646
     6.7686   6.7686   7.0992   7.0993   7.7742   7.7743   7.9356   7.9356
     8.1810   8.1811   8.4953   8.4953   8.7109   8.7109   9.0476   9.0476
     9.3814   9.3814

          k = 0.1369 0.3195 0.3195 ( 20995 PWs)   bands (ev):

    -2.6829  -1.8565  -1.8564  -1.0349  -1.0348  -0.2179  -0.2179   0.1882
     0.5945   0.9964   0.9964   0.9981   0.9982   1.8015   1.8015   1.8034
     2.6017   2.6017   3.3750   3.3750   3.3900   3.3900   3.7893   3.7894
     4.1636   4.1637   4.5750   4.6107   4.6107   4.8669   4.9382   4.9382
     5.6351   5.6351   5.7559   5.7560   6.1487   6.1487   6.1714   6.4347
     6.8917   6.8917   6.9205   6.9205   7.3420   7.5899   8.3410   8.3410
     8.4563   8.4564   8.4694   8.4694   9.0580   9.0581   9.1263   9.1263
     9.2280   9.2516

          k = 0.1369 0.3195 0.4107 ( 20989 PWs)   bands (ev):

    -2.5323  -2.1189  -1.7067  -1.2957  -0.8860  -0.4773  -0.0698   0.3358
     0.3365   0.7409   1.1431   1.1449   1.5440   1.5458   1.5477   2.3458
     2.7358   2.7464   3.1421   3.1421   3.5188   3.5295   3.9001   3.9133
     3.9274   4.3148   4.3187   4.3876   5.0077   5.0504   5.1007   5.1355
     5.1400   5.3930   5.5139   5.5559   5.7569   6.1945   6.2854   6.2994
     6.3019   6.6728   6.7011   7.3756   7.7026   7.8533   7.8689   8.2469
     8.4891   8.5928   8.6701   8.8409   8.8801   8.9805   8.9926   9.0146
     9.1769   9.6471

          k = 0.1369 0.3195-0.5020 ( 20984 PWs)   bands (ev):

    -2.3442  -2.3442  -1.5198  -1.5197  -0.7001  -0.7001   0.1150   0.1150
     0.5201   0.5201   1.3263   1.3263   1.3282   1.3282   2.1244   2.1244
     2.9224   2.9224   2.9268   2.9268   3.6982   3.6983   3.7141   3.7141
     4.0789   4.0789   4.5636   4.5636   4.8532   4.8532   5.1832   5.1833
     5.3337   5.3337   5.6286   5.6286   5.7043   5.7043   6.0173   6.0173
     6.4609   6.4609   7.2625   7.2625   7.7290   7.7290   8.2361   8.2361
     8.4271   8.4271   8.6679   8.6679   8.7683   8.7684   9.2271   9.2271
     9.5473   9.5473

          k = 0.1369 0.4107 0.4107 ( 20997 PWs)   bands (ev):

    -2.3818  -1.9689  -1.9688  -1.5571  -0.7372  -0.3290  -0.3290   0.0781
     0.4832   0.8879   0.8880   1.2916   1.6901   1.6902   2.0912   2.0912
     2.8805   2.8805   3.2775   3.2776   3.2857   3.2858   3.6750   3.6750
     4.4315   4.4316   4.4516   4.4517   4.8957   4.8957   4.9172   4.9173
     5.1480   5.5294   5.5295   5.5947   5.6688   5.6688   5.9825   6.0515
     6.0515   6.7973   6.7973   7.2294   7.6945   8.2094   8.3580   8.3580
     8.3782   8.3782   8.3944   8.7346   9.0043   9.0043   9.4004   9.4004
     9.5203   9.5370

          k = 0.1369 0.4107-0.5020 ( 21002 PWs)   bands (ev):

    -2.1940  -2.1939  -1.7816  -1.7815  -0.5516  -0.5515  -0.1439  -0.1438
     0.6673   0.6674   1.0715   1.0716   1.8725   1.8726   2.2698   2.2699
     2.6690   2.6690   3.0611   3.0612   3.4642   3.4642   3.8558   3.8558
     4.2163   4.2163   4.6005   4.6005   4.7106   4.7107   5.1014   5.1014
     5.3225   5.3225   5.4570   5.4570   5.6866   5.6867   5.8403   5.8404
     6.2364   6.2364   7.3130   7.3130   7.7892   7.7892   8.1831   8.1832
     8.5257   8.5258   8.9346   8.9346   8.9511   8.9511   9.1869   9.1870
     9.5381   9.5382

          k = 0.1369-0.5020-0.5020 ( 20996 PWs)   bands (ev):

    -2.0064  -2.0063  -2.0063  -2.0063  -0.3662  -0.3661  -0.3661  -0.3661
     0.8512   0.8513   0.8513   0.8513   2.4514   2.4514   2.4514   2.4514
     2.4514   2.4515   2.4515   2.4515   4.0294   4.0294   4.0294   4.0295
     4.0295   4.0295   4.0295   4.0295   5.2493   5.2493   5.2493   5.2493
     5.2494   5.2494   5.2494   5.2494   5.4942   5.4943   5.4943   5.4943
     6.7653   6.7653   6.7653   6.7653   8.3245   8.3246   8.3246   8.3246
     8.3472   8.3472   8.3472   8.3472   9.5063   9.5063   9.5063   9.5064
     9.7353   9.7353

          k = 0.2282 0.2282 0.2282 ( 20975 PWs)   bands (ev):

    -2.8337  -1.5946  -1.5945  -1.5945  -0.3661  -0.3660  -0.3660   0.4457
     0.4458   0.4458   0.8521   1.6566   1.6566   1.6566   1.6566   1.6566
     1.6567   2.8545   2.8545   2.8546   3.6480   3.6481   3.6481   3.9986
     3.9986   3.9986   4.8565   4.8566   4.8566   5.1685   5.1685   5.1685
     5.1685   5.1685   5.1686   6.3617   6.3618   6.3618   6.8131   7.1238
     7.1238   7.1238   7.1238   7.1238   7.1238   8.1747   8.1747   8.1747
     8.2959   8.2959   8.2959   8.2960   8.2960   8.2960   9.3602   9.3602
     9.3602   9.3602

          k = 0.2282 0.2282 0.3195 ( 20994 PWs)   bands (ev):

    -2.7206  -1.8939  -1.4824  -1.4824  -0.6629  -0.6629  -0.2549   0.5563
     0.5563   0.5577   0.9597   1.3640   1.3641   1.7662   1.7662   2.1659
     2.1659   2.5660   2.5660   3.3390   3.3541   3.7540   4.1056   4.1057
     4.1472   4.1473   4.5194   4.5194   4.5754   4.8869   4.8869   5.2689
     5.2689   5.3541   5.3541   5.7205   6.0812   6.0813   6.4946   6.4947
     7.2340   7.2340   7.3075   7.6015   7.6015   7.6611   7.6611   8.0141
     8.0141   8.2721   8.2721   8.7852   8.7853   9.0233   9.1044   9.1045
     9.4827   9.4827

          k = 0.2282 0.2282 0.4107 ( 20991 PWs)   bands (ev):

    -2.5699  -2.1564  -1.3331  -1.3330  -0.9232  -0.9231  -0.1068   0.2997
     0.7035   0.7035   1.1075   1.1076   1.5075   1.9121   1.9121   2.3123
     2.3123   2.6996   2.7085   2.7086   3.8647   3.8882   3.8882   3.8922
     4.2482   4.2482   4.3519   4.6391   4.6391   4.6748   4.6749   5.0997
     5.3835   5.3836   5.8402   5.8403   5.8856   5.8856   5.9022   5.9023
     7.0423   7.0423   7.3772   7.3772   7.7670   7.7670   7.8345   8.0909
     8.0909   8.3890   8.3890   8.8983   8.8983   8.9804   9.3073   9.3073
     9.3577   9.3577

          k = 0.2282 0.2282-0.5020 ( 20990 PWs)   bands (ev):

    -2.3818  -2.3818  -1.1466  -1.1466  -1.1466  -1.1465   0.0781   0.0781
     0.8873   0.8873   0.8873   0.8874   2.0880   2.0880   2.0942   2.0942
     2.0943   2.0943   3.2833   3.2833   3.2833   3.2834   4.0439   4.0439
     4.4261   4.4261   4.4261   4.4261   4.5275   4.5275   5.2062   5.2062
     5.2062   5.2062   5.6620   5.6620   5.6620   5.6621   6.4491   6.4491
     6.4491   6.4491   7.5547   7.5547   7.5548   7.5548   8.3929   8.3929
     8.4376   8.4376   8.4376   8.4376   8.8985   8.8986   8.8986   8.8986
     9.8124   9.8124

          k = 0.2282 0.3195 0.3195 ( 20998 PWs)   bands (ev):

    -2.6076  -1.7816  -1.7815  -1.3704  -0.9604  -0.5515  -0.5515   0.2628
     0.6667   1.0697   1.0698   1.4738   1.4739   1.8745   1.8745   2.2750
     2.2750   2.2760   3.0700   3.0700   3.4469   3.4469   4.2125   4.2347
     4.2347   4.2487   4.2488   4.6241   4.6241   4.6402   4.9911   4.9912
     5.0701   5.0702   5.4427   5.4428   5.8049   5.8511   6.5996   6.5996
     6.9758   6.9758   7.3783   7.3783   7.7188   7.7189   7.8006   8.1522
     8.1522   8.3534   8.5035   8.5036   9.1064   9.1064   9.2140   9.2141
     9.3426  10.0696

          k = 0.2282 0.3195 0.4107 ( 21002 PWs)   bands (ev):

    -2.4570  -2.0439  -1.6319  -1.2212  -1.2211  -0.8116  -0.4031   0.0042
     0.8138   1.2164   1.2175   1.6171   1.6189   1.6201   2.0214   2.4184
     2.4203   2.8082   2.8171   2.8183   3.5905   3.6013   3.6033   3.9847
     3.9948   4.3549   4.3620   4.7448   4.7497   4.7604   4.8256   4.8455
     5.1272   5.1376   5.2270   5.5916   5.6012   5.9854   6.3666   6.3815
     6.7410   6.7588   7.1306   7.4868   7.5352   7.8648   8.2316   8.2564
     8.3264   8.3692   8.6759   8.8565   8.9831   9.0257   9.1287   9.3572
     9.4695   9.5747

          k = 0.2282 0.3195-0.5020 ( 21002 PWs)   bands (ev):

    -2.2691  -2.2691  -1.4451  -1.4450  -1.0349  -1.0348  -0.2179  -0.2178
     0.9974   0.9975   1.3995   1.3996   1.8027   1.8027   2.1971   2.1971
     2.6015   2.6015   2.9946   2.9946   3.3911   3.3911   3.7699   3.7699
     4.1454   4.1454   4.5324   4.5324   4.6399   4.6399   4.9090   4.9091
     5.2777   5.2777   5.4198   5.4198   5.8019   5.8019   6.1650   6.1650
     6.9180   6.9181   6.9435   6.9436   8.0051   8.0051   8.0436   8.0436
     8.7546   8.7546   8.8106   8.8107   8.8833   8.8833   9.2310   9.2310
     9.5790   9.5793

          k = 0.2282 0.4107 0.4107 ( 21005 PWs)   bands (ev):

    -2.3066  -1.8940  -1.8939  -1.4824  -1.0721  -0.6629  -0.6629  -0.2549
     0.9608   1.3641   1.3641   1.7631   1.7632   1.7662   2.1640   2.1640
     2.9528   2.9528   2.9615   2.9615   3.3495   3.3495   3.3562   3.3562
     4.1360   4.1360   4.4943   4.4944   4.4968   4.8846   4.8847   4.9969
     4.9970   5.2424   5.3536   5.3536   5.7682   6.1224   6.1224   6.5106
     6.5107   6.8822   6.8822   6.9103   7.9752   8.0607   8.0607   8.3836
     8.3837   8.7783   8.7783   8.7802   8.8507   9.1179   9.1179   9.2039
     9.4851   9.4851

          k = 0.2282 0.4107-0.5020 ( 20990 PWs)   bands (ev):

    -2.1189  -2.1189  -1.7067  -1.7067  -0.8860  -0.8859  -0.4773  -0.4772
     1.1442   1.1443   1.5470   1.5471   1.9455   1.9455   2.3425   2.3425
     2.7414   2.7414   3.1332   3.1333   3.1414   3.1415   3.5343   3.5343
     3.9221   3.9221   4.3089   4.3089   4.6736   4.6737   5.0562   5.0563
     5.1455   5.1456   5.5333   5.5333   5.9167   5.9168   6.2982   6.2983
     6.3013   6.3013   7.4263   7.4263   7.4708   7.4708   8.5646   8.5647
     8.6176   8.6176   8.9191   8.9191   8.9293   8.9293   9.2916   9.2918
     9.3313   9.3313

          k = 0.2282-0.5020-0.5020 ( 21008 PWs)   bands (ev):

    -1.9315  -1.9314  -1.9314  -1.9314  -0.7001  -0.7000  -0.7000  -0.7000
     1.3274   1.3275   1.3275   1.3275   2.5239   2.5239   2.5240   2.5240
     2.5240   2.5240   2.5240   2.5240   3.7121   3.7121   3.7121   3.7122
     3.7122   3.7122   3.7122   3.7122   4.8491   4.8492   4.8492   4.8492
     5.7052   5.7052   5.7052   5.7052   5.7053   5.7053   5.7053   5.7053
     6.8504   6.8504   6.8504   6.8505   8.0295   8.0295   8.0295   8.0295
     9.0850   9.0851   9.1157   9.1157   9.1158   9.1158   9.1158   9.1158
     9.1158   9.1159

          k = 0.3195 0.3195 0.3195 ( 21002 PWs)   bands (ev):

    -2.4946  -1.6694  -1.6693  -1.6693  -0.8488  -0.8487  -0.8487  -0.0328
     1.1797   1.1798   1.1798   1.9838   1.9838   1.9838   1.9839   1.9839
     1.9839   2.7821   2.7821   2.7822   3.5546   3.5546   3.5546   4.3408
     4.3409   4.3409   4.3409   4.3409   4.3409   4.7150   4.7151   4.7151
     5.1913   5.1914   5.1914   5.5667   5.5667   5.5667   7.0869   7.0869
     7.0869   7.0869   7.0869   7.0870   7.8696   7.8696   7.8696   7.8696
     7.8696   7.8697   8.2926   9.0949   9.0949   9.0949   9.5590   9.5590
     9.5590  10.0489

          k = 0.3195 0.3195 0.4107 ( 21003 PWs)   bands (ev):

    -2.3442  -1.9314  -1.5198  -1.5197  -1.1093  -1.1093  -0.7000  -0.2919
     1.3263   1.3264   1.7266   1.7285   1.7286   2.1295   2.1295   2.5272
     2.5273   2.5290   2.5290   2.9166   3.3202   3.6981   3.6981   3.7086
     3.7087   4.0916   4.0916   4.4589   4.4814   4.4815   4.8383   4.8384
     4.9619   5.3190   5.3510   5.3511   6.0972   6.0972   6.4718   6.4718
     7.2308   7.2308   7.2519   7.2519   7.6059   7.6060   7.6219   7.6219
     8.3936   8.3936   8.7017   8.7017   8.8170   9.4621   9.4807   9.4807
     9.5336   9.5337

          k = 0.3195 0.3195-0.5020 ( 20988 PWs)   bands (ev):

    -2.1565  -2.1564  -1.3331  -1.3331  -1.3331  -1.3330  -0.5144  -0.5143
     1.5093   1.5093   1.5093   1.5094   2.3062   2.3062   2.3113   2.3113
     2.3113   2.3113   3.1028   3.1028   3.1029   3.1029   3.8772   3.8772
     3.8772   3.8772   3.8863   3.8863   4.6535   4.6535   4.6536   4.6537
     5.1108   5.1109   5.8854   5.8854   5.8854   5.8855   6.6597   6.6597
     6.6597   6.6597   7.4089   7.4090   7.4090   7.4090   8.1509   8.1509
     8.1509   8.1509   8.9489   8.9489   8.9490   8.9490   9.3726   9.3726
     9.6195   9.6195

          k = 0.3195 0.4107 0.4107 ( 20999 PWs)   bands (ev):

    -2.1940  -1.7816  -1.7815  -1.3704  -1.3703  -0.9604  -0.9603  -0.5515
     1.4727   1.8725   1.8726   1.8745   1.8745   2.2730   2.2731   2.2749
     2.6721   2.6722   3.0611   3.0611   3.0693   3.0693   3.4573   3.4574
     3.8414   3.8513   3.8513   4.2336   4.2337   4.2375   4.2375   4.6180
     5.4650   5.4650   5.8487   5.8487   5.8518   6.6134   6.6135   6.6264
     6.9938   6.9938   7.0037   7.0038   7.7529   7.7530   7.7778   7.7778
     8.1225   8.1458   8.1458   8.8808   8.8808   8.9216   9.2851   9.2851
     9.3401   9.5887

          k = 0.3195 0.4107-0.5020 ( 20998 PWs)   bands (ev):

    -2.0064  -2.0063  -1.5945  -1.5945  -1.1839  -1.1838  -0.7744  -0.7743
     1.6555   1.6555   2.0547   2.0548   2.0567   2.0567   2.4514   2.4514
     2.8499   2.8500   2.8529   2.8530   3.2413   3.2414   3.2468   3.2469
     3.6403   3.6403   4.0200   4.0200   4.0285   4.0286   4.4100   4.4101
     5.6371   5.6371   6.0226   6.0226   6.4066   6.4066   6.4113   6.4113
     6.7908   6.7909   7.1873   7.1873   7.5462   7.5462   7.9324   7.9324
     8.3047   8.3047   8.3350   8.3350   8.7010   8.7010   9.0688   9.0688
     9.7531   9.7531

          k = 0.3195-0.5020-0.5020 ( 20988 PWs)   bands (ev):

    -1.8191  -1.8190  -1.8190  -1.8190  -0.9976  -0.9975  -0.9975  -0.9975
     1.8379   1.8380   1.8380   1.8380   2.6327   2.6327   2.6327   2.6327
     2.6327   2.6328   2.6328   2.6328   3.4262   3.4262   3.4262   3.4263
     3.4263   3.4263   3.4263   3.4263   4.1978   4.1979   4.1979   4.1979
     6.1986   6.1986   6.1986   6.1986   6.1987   6.1987   6.1987   6.1987
     6.9621   6.9621   6.9621   6.9621   7.7465   7.7465   7.7465   7.7465
     8.4866   8.4866   8.4866   8.4867   8.4867   8.4867   8.4867   8.4867
     9.9251   9.9251

          k = 0.4107 0.4107 0.4107 ( 20984 PWs)   bands (ev):

    -2.0439  -1.6320  -1.6319  -1.6319  -1.2212  -1.2211  -1.2211  -0.8115
     2.0183   2.0184   2.0184   2.4183   2.4183   2.4183   2.4184   2.4184
     2.4184   2.8168   2.8168   2.8168   3.2053   3.2053   3.2053   3.6007
     3.6008   3.6008   3.6008   3.6008   3.6008   3.9926   3.9927   3.9927
     5.9890   5.9891   5.9891   6.3779   6.3779   6.3779   7.1379   7.1379
     7.1379   7.1380   7.1380   7.1380   7.5296   7.5297   7.5297   7.5297
     7.5297   7.5297   8.2768   8.2768   8.2768   8.6734   8.6735   8.6735
     9.8618  10.4703

          k = 0.4107 0.4107-0.5020 ( 20994 PWs)   bands (ev):

    -1.8565  -1.8564  -1.4451  -1.4451  -1.4451  -1.4450  -1.0348  -1.0348
     2.2003   2.2003   2.2003   2.2004   2.5965   2.5965   2.5996   2.5996
     2.5997   2.5997   2.9944   2.9944   2.9945   2.9945   3.3853   3.3853
     3.3853   3.3853   3.3903   3.3903   3.7795   3.7795   3.7795   3.7796
     6.1651   6.1652   6.5483   6.5483   6.5484   6.5484   6.9390   6.9390
     6.9390   6.9390   7.3164   7.3164   7.3165   7.3165   7.6935   7.6935
     7.6936   7.6936   8.0870   8.0870   8.0870   8.0870   8.4590   8.4590
    10.4146  10.4146

          k = 0.4107-0.5020-0.5020 ( 20964 PWs)   bands (ev):

    -1.6694  -1.6693  -1.6693  -1.6693  -1.2585  -1.2584  -1.2584  -1.2584
     2.3819   2.3820   2.3820   2.3820   2.7775   2.7775   2.7775   2.7775
     2.7776   2.7776   2.7776   2.7776   3.1746   3.1746   3.1746   3.1747
     3.1747   3.1747   3.1747   3.1747   3.5647   3.5648   3.5649   3.5649
     6.7259   6.7259   6.7259   6.7259   6.7259   6.7260   6.7260   6.7260
     7.1064   7.1064   7.1064   7.1064   7.4983   7.4983   7.4983   7.4983
     7.8733   7.8733   7.8733   7.8733   7.8733   7.8734   7.8734   7.8734
    10.8139  10.8139

          k =-0.5020-0.5020-0.5020 ( 21008 PWs)   bands (ev):

    -1.4825  -1.4824  -1.4824  -1.4824  -1.4824  -1.4823  -1.4823  -1.4823
     2.9582   2.9582   2.9582   2.9582   2.9582   2.9582   2.9582   2.9582
     2.9582   2.9582   2.9583   2.9583   2.9583   2.9583   2.9583   2.9583
     2.9584   2.9584   2.9584   2.9584   2.9584   2.9584   2.9584   2.9584
     7.2849   7.2849   7.2849   7.2849   7.2849   7.2849   7.2849   7.2850
     7.2850   7.2850   7.2850   7.2850   7.2850   7.2850   7.2850   7.2850
     7.2850   7.2850   7.2850   7.2850   7.2850   7.2851   7.2851   7.2851
    11.5158  11.5159

     the Fermi energy is     8.0537 ev

!    total energy              =   -1264.08608614 Ry
     Harris-Foulkes estimate   =   -1264.08608621 Ry
     estimated scf accuracy    <       0.00000015 Ry

     total all-electron energy =    -15540.655108 Ry

     The total energy is the sum of the following terms:

     one-electron contribution =     102.26891932 Ry
     hartree contribution      =       0.19934120 Ry
     xc contribution           =     -83.14066304 Ry
     ewald contribution        =    -173.69529933 Ry
     one-center paw contrib.   =   -1109.71583671 Ry
     smearing contrib. (-TS)   =      -0.00254758 Ry

     convergence has been achieved in   9 iterations

     Forces acting on atoms (cartesian axes, Ry/au):

     atom    1 type  1   force =     0.00000000    0.00000000    0.00000000
     atom    2 type  1   force =     0.00000498    0.00000498   -0.00000000
     atom    3 type  1   force =     0.00000498   -0.00000000    0.00000498
     atom    4 type  1   force =     0.00000000    0.00000498    0.00000498
     atom    5 type  1   force =     0.00000000    0.00000000    0.00000000
     atom    6 type  1   force =     0.00000577    0.00000577   -0.00000000
     atom    7 type  1   force =     0.00000498   -0.00000000   -0.00000498
     atom    8 type  1   force =     0.00000000    0.00000498   -0.00000498
     atom    9 type  1   force =     0.00000000    0.00000000    0.00000000
     atom   10 type  1   force =     0.00000498   -0.00000498    0.00000000
     atom   11 type  1   force =     0.00000577    0.00000000    0.00000577
     atom   12 type  1   force =    -0.00000000   -0.00000498    0.00000498
     atom   13 type  1   force =     0.00000000    0.00000000   -0.00000000
     atom   14 type  1   force =     0.00000577   -0.00000577    0.00000000
     atom   15 type  1   force =     0.00000577    0.00000000   -0.00000577
     atom   16 type  1   force =     0.00000000   -0.00000498   -0.00000498
     atom   17 type  1   force =     0.00000000   -0.00000000    0.00000000
     atom   18 type  1   force =    -0.00000498    0.00000498    0.00000000
     atom   19 type  1   force =    -0.00000498    0.00000000    0.00000498
     atom   20 type  1   force =     0.00000000    0.00000577    0.00000577
     atom   21 type  1   force =     0.00000000    0.00000000    0.00000000
     atom   22 type  1   force =    -0.00000577    0.00000577    0.00000000
     atom   23 type  1   force =    -0.00000498   -0.00000000   -0.00000498
     atom   24 type  1   force =    -0.00000000    0.00000577   -0.00000577
     atom   25 type  1   force =     0.00000000    0.00000000   -0.00000000
     atom   26 type  1   force =    -0.00000498   -0.00000498    0.00000000
     atom   27 type  1   force =    -0.00000577    0.00000000    0.00000577
     atom   28 type  1   force =     0.00000000   -0.00000577    0.00000577
     atom   29 type  1   force =     0.00000000    0.00000000    0.00000000
     atom   30 type  1   force =    -0.00000577   -0.00000577    0.00000000
     atom   31 type  1   force =    -0.00000577   -0.00000000   -0.00000577
     atom   32 type  1   force =     0.00000000   -0.00000577   -0.00000577

     Total force =     0.000037     Total SCF correction =     0.000130
     SCF correction compared to forces is large: reduce conv_thr to get better values


     Computing stress (Cartesian axis) and pressure

          total   stress  (Ry/bohr**3)                   (kbar)     P=    9.77
   0.00006641   0.00000000   0.00000000          9.77      0.00      0.00
   0.00000000   0.00006641   0.00000000          0.00      9.77      0.00
   0.00000000   0.00000000   0.00006641          0.00      0.00      9.77


     Writing output data file QFmmWIKLHQJSYCqk.save/
 
     init_run     :      6.38s CPU      6.58s WALL (       1 calls)
     electrons    :    105.72s CPU    107.83s WALL (       1 calls)
     forces       :      1.16s CPU      1.20s WALL (       1 calls)
     stress       :      5.88s CPU      5.90s WALL (       1 calls)

     Called by init_run:
     wfcinit      :      6.04s CPU      6.19s WALL (       1 calls)
     potinit      :      0.10s CPU      0.10s WALL (       1 calls)
     hinit0       :      0.09s CPU      0.13s WALL (       1 calls)

     Called by electrons:
     c_bands      :     92.92s CPU     94.62s WALL (      10 calls)
     sum_band     :     12.07s CPU     12.42s WALL (      10 calls)
     v_of_rho     :      0.11s CPU      0.13s WALL (      10 calls)
     newd         :      0.09s CPU      0.12s WALL (      10 calls)
     PAW_pot      :      0.58s CPU      0.58s WALL (      10 calls)
     mix_rho      :      0.03s CPU      0.03s WALL (      10 calls)

     Called by c_bands:
     init_us_2    :      1.84s CPU      1.86s WALL (    1288 calls)
     cegterg      :     87.85s CPU     89.49s WALL (     560 calls)

     Called by sum_band:
     sum_band:bec :      0.06s CPU      0.06s WALL (     560 calls)
     addusdens    :      0.06s CPU      0.09s WALL (      10 calls)

     Called by *egterg:
     h_psi        :     63.15s CPU     64.48s WALL (    2374 calls)
     s_psi        :      4.84s CPU      4.88s WALL (    2374 calls)
     g_psi        :      0.24s CPU      0.24s WALL (    1758 calls)
     cdiaghg      :     13.17s CPU     13.23s WALL (    2262 calls)

     Called by h_psi:
     h_psi:pot    :     62.77s CPU     64.10s WALL (    2374 calls)
     h_psi:calbec :      5.24s CPU      5.56s WALL (    2374 calls)
     vloc_psi     :     52.47s CPU     53.44s WALL (    2374 calls)
     add_vuspsi   :      5.05s CPU      5.09s WALL (    2374 calls)

     General routines
     calbec       :      8.67s CPU      9.17s WALL (    3214 calls)
     fft          :      0.20s CPU      0.25s WALL (     137 calls)
     ffts         :      0.01s CPU      0.01s WALL (      10 calls)
     fftw         :     57.31s CPU     58.37s WALL (  226804 calls)
 
     Parallel routines
     fft_scatt_xy :      5.18s CPU      5.27s WALL (  226951 calls)
     fft_scatt_yz :     33.94s CPU     34.60s WALL (  226951 calls)
 
     PWSCF        :  2m 0.58s CPU     2m 6.62s WALL

 
   This run was terminated on:   3:14: 5  25Mar2020            

=------------------------------------------------------------------------------=
   JOB DONE.
=------------------------------------------------------------------------------=
