
     Program PWSCF v.6.4.1 starts on 14May2021 at 12: 9:34 

     This program is part of the open-source Quantum ESPRESSO suite
     for quantum simulation of materials; please cite
         "P. Giannozzi et al., J. Phys.:Condens. Matter 21 395502 (2009);
         "P. Giannozzi et al., J. Phys.:Condens. Matter 29 465901 (2017);
          URL http://www.quantum-espresso.org", 
     in publications or presentations arising from this work. More details at
     http://www.quantum-espresso.org/quote

     Parallel version (MPI), running on     1 processors

     MPI processes distributed on     1 nodes
     Reading input from /cloud/Code/python/qeeos/examples/aluminium/wd/relax/relax.in

     Current dimensions of program PWSCF are:
     Max number of different atomic species (ntypx) = 10
     Max number of k-points (npk) =  40000
     Max angular momentum in pseudopotentials (lmaxx) =  3
               file Al.pbe-nl-kjpaw_psl.1.0.0.UPF: wavefunction(s)  3S 3P renormalized

     Subspace diagonalization in iterative solution of the eigenvalue problem:
     a serial algorithm will be used

     Found symmetry operation: I + ( -0.5000 -0.5000  0.0000)
     This is a supercell, fractional translations are disabled
     Message from routine setup:
     DEPRECATED: symmetry with ibrav=0, use correct ibrav instead

     G-vector sticks info
     --------------------
     sticks:   dense  smooth     PW     G-vecs:    dense   smooth      PW
     Sum         885     885    277                20005    20005    3407



     bravais-lattice index     =            0
     lattice parameter (alat)  =       7.5000  a.u.
     unit-cell volume          =     421.8750 (a.u.)^3
     number of atoms/cell      =            4
     number of atomic types    =            1
     number of electrons       =        12.00
     number of Kohn-Sham states=           10
     kinetic-energy cutoff     =      50.0000  Ry
     charge density cutoff     =     200.0000  Ry
     convergence threshold     =      1.0E-06
     mixing beta               =       0.1000
     number of iterations used =           10  plain     mixing
     Exchange-correlation      = SLA PW PBX PBC ( 1  4  3  4 0 0)
     nstep                     =           50


     celldm(1)=   7.500000  celldm(2)=   0.000000  celldm(3)=   0.000000
     celldm(4)=   0.000000  celldm(5)=   0.000000  celldm(6)=   0.000000

     crystal axes: (cart. coord. in units of alat)
               a(1) = (   1.000000   0.000000   0.000000 )  
               a(2) = (   0.000000   1.000000   0.000000 )  
               a(3) = (   0.000000   0.000000   1.000000 )  

     reciprocal axes: (cart. coord. in units 2 pi/alat)
               b(1) = (  1.000000  0.000000  0.000000 )  
               b(2) = (  0.000000  1.000000  0.000000 )  
               b(3) = (  0.000000  0.000000  1.000000 )  


     PseudoPot. # 1 for Al read from file:
     /opt/pp/Al.pbe-nl-kjpaw_psl.1.0.0.UPF
     MD5 check sum: 1b67f78b73fe58c7924490f171ce8a1e
     Pseudo is Projector augmented-wave + core cor, Zval =  3.0
     Generated using "atomic" code by A. Dal Corso v.6.3
     Shape of augmentation charge: PSQ
     Using radial grid of 1135 points,  4 beta functions with: 
                l(1) =   0
                l(2) =   0
                l(3) =   1
                l(4) =   1
     Q(r) pseudized with 0 coefficients 


     atomic species   valence    mass     pseudopotential
        Al             3.00    26.98200     Al( 1.00)

     48 Sym. Ops., with inversion, found



   Cartesian axes

     site n.     atom                  positions (alat units)
         1           Al  tau(   1) = (   0.0000000   0.0000000   0.0000000  )
         2           Al  tau(   2) = (   0.5000000   0.5000000   0.0000000  )
         3           Al  tau(   3) = (   0.5000000   0.0000000   0.5000000  )
         4           Al  tau(   4) = (   0.0000000   0.5000000   0.5000000  )

     number of k points=    56  Marzari-Vanderbilt smearing, width (Ry)=  0.0400
                       cart. coord. in units 2pi/alat
        k(    1) = (   0.0454545   0.0454545   0.0454545), wk =   0.0120210
        k(    2) = (   0.0454545   0.0454545   0.1363636), wk =   0.0360631
        k(    3) = (   0.0454545   0.0454545   0.2272727), wk =   0.0360631
        k(    4) = (   0.0454545   0.0454545   0.3181818), wk =   0.0360631
        k(    5) = (   0.0454545   0.0454545   0.4090909), wk =   0.0360631
        k(    6) = (   0.0454545   0.0454545  -0.5000000), wk =   0.0180316
        k(    7) = (   0.0454545   0.1363636   0.1363636), wk =   0.0360631
        k(    8) = (   0.0454545   0.1363636   0.2272727), wk =   0.0721262
        k(    9) = (   0.0454545   0.1363636   0.3181818), wk =   0.0721262
        k(   10) = (   0.0454545   0.1363636   0.4090909), wk =   0.0721262
        k(   11) = (   0.0454545   0.1363636  -0.5000000), wk =   0.0360631
        k(   12) = (   0.0454545   0.2272727   0.2272727), wk =   0.0360631
        k(   13) = (   0.0454545   0.2272727   0.3181818), wk =   0.0721262
        k(   14) = (   0.0454545   0.2272727   0.4090909), wk =   0.0721262
        k(   15) = (   0.0454545   0.2272727  -0.5000000), wk =   0.0360631
        k(   16) = (   0.0454545   0.3181818   0.3181818), wk =   0.0360631
        k(   17) = (   0.0454545   0.3181818   0.4090909), wk =   0.0721262
        k(   18) = (   0.0454545   0.3181818  -0.5000000), wk =   0.0360631
        k(   19) = (   0.0454545   0.4090909   0.4090909), wk =   0.0360631
        k(   20) = (   0.0454545   0.4090909  -0.5000000), wk =   0.0360631
        k(   21) = (   0.0454545  -0.5000000  -0.5000000), wk =   0.0090158
        k(   22) = (   0.1363636   0.1363636   0.1363636), wk =   0.0120210
        k(   23) = (   0.1363636   0.1363636   0.2272727), wk =   0.0360631
        k(   24) = (   0.1363636   0.1363636   0.3181818), wk =   0.0360631
        k(   25) = (   0.1363636   0.1363636   0.4090909), wk =   0.0360631
        k(   26) = (   0.1363636   0.1363636  -0.5000000), wk =   0.0180316
        k(   27) = (   0.1363636   0.2272727   0.2272727), wk =   0.0360631
        k(   28) = (   0.1363636   0.2272727   0.3181818), wk =   0.0721262
        k(   29) = (   0.1363636   0.2272727   0.4090909), wk =   0.0721262
        k(   30) = (   0.1363636   0.2272727  -0.5000000), wk =   0.0360631
        k(   31) = (   0.1363636   0.3181818   0.3181818), wk =   0.0360631
        k(   32) = (   0.1363636   0.3181818   0.4090909), wk =   0.0721262
        k(   33) = (   0.1363636   0.3181818  -0.5000000), wk =   0.0360631
        k(   34) = (   0.1363636   0.4090909   0.4090909), wk =   0.0360631
        k(   35) = (   0.1363636   0.4090909  -0.5000000), wk =   0.0360631
        k(   36) = (   0.1363636  -0.5000000  -0.5000000), wk =   0.0090158
        k(   37) = (   0.2272727   0.2272727   0.2272727), wk =   0.0120210
        k(   38) = (   0.2272727   0.2272727   0.3181818), wk =   0.0360631
        k(   39) = (   0.2272727   0.2272727   0.4090909), wk =   0.0360631
        k(   40) = (   0.2272727   0.2272727  -0.5000000), wk =   0.0180316
        k(   41) = (   0.2272727   0.3181818   0.3181818), wk =   0.0360631
        k(   42) = (   0.2272727   0.3181818   0.4090909), wk =   0.0721262
        k(   43) = (   0.2272727   0.3181818  -0.5000000), wk =   0.0360631
        k(   44) = (   0.2272727   0.4090909   0.4090909), wk =   0.0360631
        k(   45) = (   0.2272727   0.4090909  -0.5000000), wk =   0.0360631
        k(   46) = (   0.2272727  -0.5000000  -0.5000000), wk =   0.0090158
        k(   47) = (   0.3181818   0.3181818   0.3181818), wk =   0.0120210
        k(   48) = (   0.3181818   0.3181818   0.4090909), wk =   0.0360631
        k(   49) = (   0.3181818   0.3181818  -0.5000000), wk =   0.0180316
        k(   50) = (   0.3181818   0.4090909   0.4090909), wk =   0.0360631
        k(   51) = (   0.3181818   0.4090909  -0.5000000), wk =   0.0360631
        k(   52) = (   0.3181818  -0.5000000  -0.5000000), wk =   0.0090158
        k(   53) = (   0.4090909   0.4090909   0.4090909), wk =   0.0120210
        k(   54) = (   0.4090909   0.4090909  -0.5000000), wk =   0.0180316
        k(   55) = (   0.4090909  -0.5000000  -0.5000000), wk =   0.0090158
        k(   56) = (  -0.5000000  -0.5000000  -0.5000000), wk =   0.0015026

     Dense  grid:    20005 G-vectors     FFT dimensions: (  36,  36,  36)

     Estimated max dynamical RAM per process >      52.99 MB

     Initial potential from superposition of free atoms

     starting charge   11.99084, renormalised to   12.00000
     Starting wfcs are   16 randomized atomic wfcs
     Checking if some PAW data can be deallocated... 

     total cpu time spent up to now is        2.8 secs

     Self-consistent Calculation

     iteration #  1     ecut=    50.00 Ry     beta= 0.10
     Davidson diagonalization with overlap
     ethr =  1.00E-02,  avg # of iterations =  3.4

     Threshold (ethr) on eigenvalues was too large:
     Diagonalizing with lowered threshold

     Davidson diagonalization with overlap
     ethr =  1.93E-04,  avg # of iterations =  3.2

     total cpu time spent up to now is        7.9 secs

     total energy              =    -158.01266504 Ry
     Harris-Foulkes estimate   =    -158.01385396 Ry
     estimated scf accuracy    <       0.02245954 Ry

     iteration #  2     ecut=    50.00 Ry     beta= 0.10
     Davidson diagonalization with overlap
     ethr =  1.87E-04,  avg # of iterations =  1.0

     total cpu time spent up to now is        9.7 secs

     total energy              =    -158.00763461 Ry
     Harris-Foulkes estimate   =    -158.01276315 Ry
     estimated scf accuracy    <       0.01794236 Ry

     iteration #  3     ecut=    50.00 Ry     beta= 0.10
     Davidson diagonalization with overlap
     ethr =  1.50E-04,  avg # of iterations =  1.0

     total cpu time spent up to now is       11.5 secs

     total energy              =    -158.00795746 Ry
     Harris-Foulkes estimate   =    -158.00795280 Ry
     estimated scf accuracy    <       0.00004440 Ry

     iteration #  4     ecut=    50.00 Ry     beta= 0.10
     Davidson diagonalization with overlap
     c_bands:  1 eigenvalues not converged
     ethr =  3.70E-07,  avg # of iterations =  4.5

     total cpu time spent up to now is       14.6 secs

     total energy              =    -158.00815174 Ry
     Harris-Foulkes estimate   =    -158.00803060 Ry
     estimated scf accuracy    <       0.00003360 Ry

     iteration #  5     ecut=    50.00 Ry     beta= 0.10
     Davidson diagonalization with overlap
     ethr =  2.80E-07,  avg # of iterations =  2.1

     total cpu time spent up to now is       16.9 secs

     total energy              =    -158.00800544 Ry
     Harris-Foulkes estimate   =    -158.00815821 Ry
     estimated scf accuracy    <       0.00035378 Ry

     iteration #  6     ecut=    50.00 Ry     beta= 0.10
     Davidson diagonalization with overlap
     ethr =  2.80E-07,  avg # of iterations =  2.4

     total cpu time spent up to now is       19.2 secs

     End of self-consistent calculation

          k = 0.0455 0.0455 0.0455 (  2517 PWs)   bands (ev):

    -2.9855   5.1071   5.1071   5.1071   7.2797   7.2798   7.2798  12.8529
    12.8529  12.8529

          k = 0.0455 0.0455 0.1364 (  2520 PWs)   bands (ev):

    -2.8303   3.7901   5.2504   5.2504   7.4238   7.4238   8.8617  11.5412
    11.5412  12.9973

          k = 0.0455 0.0455 0.2273 (  2515 PWs)   bands (ev):

    -2.5205   2.4817   5.5368   5.5368   7.7063   7.7064  10.2848  10.2849
    10.6987  12.5966

          k = 0.0455 0.0455 0.3182 (  2526 PWs)   bands (ev):

    -2.0570   1.2910   5.9653   5.9654   8.1009   8.1010   9.1752   9.1752
    11.5507  11.5509

          k = 0.0455 0.0455 0.4091 (  2517 PWs)   bands (ev):

    -1.4415   0.2360   6.5335   6.5335   8.0593   8.0594   8.7326   8.7328
    10.6505  10.6508

          k = 0.0455 0.0455-0.5000 (  2530 PWs)   bands (ev):

    -0.6764  -0.6760   7.1549   7.1553   7.3386   7.3390   9.0312   9.0315
    10.1766  10.1770

          k = 0.0455 0.1364 0.1364 (  2523 PWs)   bands (ev):

    -2.6753   3.9369   3.9369   5.3935   7.5616   8.9982   8.9982  10.3229
    11.6869  11.6869

          k = 0.0455 0.1364 0.2273 (  2529 PWs)   bands (ev):

    -2.3658   2.6305   4.2298   5.6791   7.8095   9.1240   9.2557  10.4416
    10.8164  11.9854

          k = 0.0455 0.1364 0.3182 (  2532 PWs)   bands (ev):

    -1.9028   1.4413   4.6676   6.1046   7.7212   8.5147   9.1997   9.7449
    11.7313  12.3341

          k = 0.0455 0.1364 0.4091 (  2511 PWs)   bands (ev):

    -1.2881   0.3875   5.2479   6.6077   6.9053   8.2585   8.9582   9.9947
    11.0271  12.0517

          k = 0.0455 0.1364-0.5000 (  2520 PWs)   bands (ev):

    -0.5238  -0.5234   5.9631   5.9635   7.4137   7.4141   9.5889   9.5892
    11.2866  11.2870

          k = 0.0455 0.2273 0.2273 (  2529 PWs)   bands (ev):

    -2.0570   2.9275   2.9275   5.9614   7.5875   8.3994  10.6285  10.6285
    11.1535  11.1535

          k = 0.0455 0.2273 0.3182 (  2519 PWs)   bands (ev):

    -1.5951   1.7414   3.3716   6.3236   6.6426   8.7087   9.5433  11.1098
    11.2860  12.2427

          k = 0.0455 0.2273 0.4091 (  2524 PWs)   bands (ev):

    -0.9817   0.6901   3.9610   5.5557   6.9901   8.5522   9.2657  10.7478
    11.6873  12.3678

          k = 0.0455 0.2273-0.5000 (  2530 PWs)   bands (ev):

    -0.2192  -0.2188   4.6918   4.6922   7.6982   7.6986   9.9633   9.9637
    12.4014  12.4019

          k = 0.0455 0.3182 0.3182 (  2533 PWs)   bands (ev):

    -1.1348   2.1902   2.1902   5.4161   6.8479   9.1328   9.9797   9.9797
    12.1742  12.1743

          k = 0.0455 0.3182 0.4091 (  2533 PWs)   bands (ev):

    -0.5234   1.1427   2.7860   4.4066   7.4142   8.9838   9.7092  10.5538
    11.2589  12.1230

          k = 0.0455 0.3182-0.5000 (  2522 PWs)   bands (ev):

     0.2365   0.2369   3.5261   3.5265   8.1275   8.1280  10.4230  10.4234
    11.2681  11.2686

          k = 0.0455 0.4091 0.4091 (  2516 PWs)   bands (ev):

     0.0852   1.7437   1.7437   3.3803   7.9855   9.5569   9.5569  10.2919
    11.1277  11.8543

          k = 0.0455 0.4091-0.5000 (  2514 PWs)   bands (ev):

     0.8417   0.8421   2.4905   2.4909   8.7000   8.7004  10.2715  10.2719
    11.0095  11.0099

          k = 0.0455-0.5000-0.5000 (  2520 PWs)   bands (ev):

     1.5938   1.5943   1.5943   1.5947   9.4147   9.4151   9.4151   9.4156
    11.7270  11.7275

          k = 0.1364 0.1364 0.1364 (  2524 PWs)   bands (ev):

    -2.5205   4.0833   4.0833   4.0833   9.1133   9.1133   9.1133  10.4897
    10.4897  10.4897

          k = 0.1364 0.1364 0.2273 (  2535 PWs)   bands (ev):

    -2.2113   2.7790   4.3755   4.3756   8.9987   8.9988   9.6454   9.6455
    10.5655  11.1568

          k = 0.1364 0.1364 0.3182 (  2531 PWs)   bands (ev):

    -1.7489   1.5914   4.8116   4.8116   7.9985   7.9986   9.9309   9.9310
    11.1139  13.0144

          k = 0.1364 0.1364 0.4091 (  2527 PWs)   bands (ev):

    -1.1348   0.5389   5.3845   5.3846   7.0203   7.0204  10.4380  10.4382
    11.7001  12.2310

          k = 0.1364 0.1364-0.5000 (  2518 PWs)   bands (ev):

    -0.3714  -0.3710   5.9419   5.9423   6.3248   6.3252  10.8232  10.8236
    11.7125  11.7129

          k = 0.1364 0.2273 0.2273 (  2531 PWs)   bands (ev):

    -1.9029   3.0756   3.0756   4.6657   7.8784   9.4269   9.4270   9.8135
    11.3280  11.3280

          k = 0.1364 0.2273 0.3182 (  2520 PWs)   bands (ev):

    -1.4415   1.8911   3.5189   5.0939   6.7633   8.3066   9.8768  10.2257
    11.6993  13.0188

          k = 0.1364 0.2273 0.4091 (  2513 PWs)   bands (ev):

    -0.8288   0.8412   4.1062   5.5170   5.9146   7.3088  10.4567  10.7815
    11.9694  12.0293

          k = 0.1364 0.2273-0.5000 (  2528 PWs)   bands (ev):

    -0.0671  -0.0667   4.8290   4.8294   6.4536   6.4541  11.1741  11.1745
    11.4449  11.4453

          k = 0.1364 0.3182 0.3182 (  2522 PWs)   bands (ev):

    -0.9817   2.3393   2.3394   5.3745   5.7734   8.7453   8.7454  10.6583
    11.8958  13.4046

          k = 0.1364 0.3182 0.4091 (  2523 PWs)   bands (ev):

    -0.3710   1.2932   2.9342   4.5444   6.1657   7.7434   9.3241  10.9017
    11.2277  12.7265

          k = 0.1364 0.3182-0.5000 (  2512 PWs)   bands (ev):

     0.3881   0.3885   3.6721   3.6725   6.8799   6.8804  10.0431  10.0436
    11.9256  11.9260

          k = 0.1364 0.4091 0.4091 (  2517 PWs)   bands (ev):

     0.2369   1.8934   1.8935   3.5266   6.7362   8.3219   8.3219   9.9039
    11.8033  13.3362

          k = 0.1364 0.4091-0.5000 (  2518 PWs)   bands (ev):

     0.9926   0.9930   2.6391   2.6395   7.4575   7.4579   9.0426   9.0430
    12.5088  12.5092

          k = 0.1364-0.5000-0.5000 (  2512 PWs)   bands (ev):

     1.7438   1.7443   1.7443   1.7447   8.1792   8.1796   8.1796   8.1801
    13.2164  13.2168

          k = 0.2273 0.2273 0.2273 (  2521 PWs)   bands (ev):

    -1.5951   3.3711   3.3711   3.3711   8.1891   8.1891   8.1892  11.6135
    11.6135  11.6135

          k = 0.2273 0.2273 0.3182 (  2520 PWs)   bands (ev):

    -1.1348   2.1901   3.8119   3.8119   7.0531   7.0532   8.6294  11.7834
    12.0296  12.0297

          k = 0.2273 0.2273 0.4091 (  2521 PWs)   bands (ev):

    -0.5234   1.1427   4.3907   4.3908   6.0523   6.0524   9.2094  10.7890
    12.5559  12.5561

          k = 0.2273 0.2273-0.5000 (  2520 PWs)   bands (ev):

     0.2365   0.2370   4.9488   4.9492   5.3525   5.3530   9.9296   9.9300
    12.9676  13.7173

          k = 0.2273 0.3182 0.3182 (  2519 PWs)   bands (ev):

    -0.6759   2.6369   2.6370   4.2442   5.9136   7.4895   7.4895  10.6556
    12.4645  13.9689

          k = 0.2273 0.3182 0.4091 (  2518 PWs)   bands (ev):

    -0.0666   1.5937   3.2292   4.6633   5.0625   6.4807   8.0701   9.6563
    13.0226  14.2531

          k = 0.2273 0.3182-0.5000 (  2510 PWs)   bands (ev):

     0.6907   0.6911   3.9585   3.9589   5.6169   5.6173   8.7930   8.7934
    13.6871  13.6875

          k = 0.2273 0.4091 0.4091 (  2516 PWs)   bands (ev):

     0.5399   2.1923   2.1923   3.8137   5.4711   7.0610   7.0611   8.6528
    13.5932  15.0708

          k = 0.2273 0.4091-0.5000 (  2506 PWs)   bands (ev):

     1.2938   1.2942   2.9350   2.9354   6.1912   6.1916   7.7861   7.7865
    14.2820  14.2824

          k = 0.2273-0.5000-0.5000 (  2496 PWs)   bands (ev):

     2.0431   2.0435   2.0435   2.0439   6.9169   6.9173   6.9173   6.9178
    14.9780  14.9782

          k = 0.3182 0.3182 0.3182 (  2497 PWs)   bands (ev):

    -0.2187   3.0810   3.0811   3.0811   6.3426   6.3426   6.3427   9.5222
    14.4139  14.4139

          k = 0.3182 0.3182 0.4091 (  2497 PWs)   bands (ev):

     0.3886   2.0429   3.6648   3.6649   5.3331   5.3332   6.9239   8.5177
    14.9464  14.9465

          k = 0.3182 0.3182-0.5000 (  2512 PWs)   bands (ev):

     1.1433   1.1438   4.2340   4.2344   4.6211   4.6215   7.6499   7.6504
    15.3845  15.9560

          k = 0.3182 0.4091 0.4091 (  2497 PWs)   bands (ev):

     0.9931   2.6383   2.6384   4.0910   4.4725   5.9094   5.9095   7.5086
    15.5174  16.7694

          k = 0.3182 0.4091-0.5000 (  2488 PWs)   bands (ev):

     1.7442   1.7446   3.3725   3.3729   5.0400   5.0404   6.6372   6.6376
    16.1714  16.1718

          k = 0.3182-0.5000-0.5000 (  2492 PWs)   bands (ev):

     2.4898   2.4902   2.4902   2.4906   5.7638   5.7642   5.7642   5.7647
    16.8500  16.8504

          k = 0.4091 0.4091 0.4091 (  2506 PWs)   bands (ev):

     1.5946   3.2252   3.2253   3.2253   4.8950   4.8950   4.8952   6.4946
    17.5233  17.5234

          k = 0.4091 0.4091-0.5000 (  2500 PWs)   bands (ev):

     2.3412   2.3416   3.8043   3.8047   4.1727   4.1732   5.6201   5.6205
    17.9837  18.2830

          k = 0.4091-0.5000-0.5000 (  2488 PWs)   bands (ev):

     3.0778   3.0783   3.0783   3.0786   4.7479   4.7482   4.7482   4.7487
    18.7280  18.7285

          k =-0.5000-0.5000-0.5000 (  2512 PWs)   bands (ev):

     3.6605   3.6613   3.6613   3.6613   4.0220   4.0220   4.0220   4.0228
    20.4647  20.4654

     the Fermi energy is     8.4797 ev

!    total energy              =    -158.00801802 Ry
     Harris-Foulkes estimate   =    -158.00801819 Ry
     estimated scf accuracy    <       0.00000039 Ry

     total all-electron energy =     -1942.579140 Ry

     The total energy is the sum of the following terms:

     one-electron contribution =      13.18285256 Ry
     hartree contribution      =       0.02640873 Ry
     xc contribution           =     -10.48108485 Ry
     ewald contribution        =     -22.00733797 Ry
     one-center paw contrib.   =    -138.72962339 Ry
     smearing contrib. (-TS)   =       0.00076689 Ry

     convergence has been achieved in   6 iterations

     Forces acting on atoms (cartesian axes, Ry/au):

     atom    1 type  1   force =     0.00000000    0.00000000    0.00000000
     atom    2 type  1   force =     0.00000000    0.00000000    0.00000000
     atom    3 type  1   force =     0.00000000    0.00000000    0.00000000
     atom    4 type  1   force =     0.00000000    0.00000000    0.00000000

     Total force =     0.000000     Total SCF correction =     0.000000


     Computing stress (Cartesian axis) and pressure

          total   stress  (Ry/bohr**3)                   (kbar)     P=   46.07
   0.00031315   0.00000000   0.00000000         46.07      0.00      0.00
   0.00000000   0.00031315   0.00000000          0.00     46.07      0.00
   0.00000000   0.00000000   0.00031315          0.00      0.00     46.07


     BFGS Geometry Optimization

     number of scf cycles    =   1
     number of bfgs steps    =   0

     enthalpy new            =    -158.0080180227 Ry

     new trust radius        =       0.0321596628 bohr
     new conv_thr            =       0.0000010000 Ry

     new unit-cell volume =    431.86097 a.u.^3 (    63.99519 Ang^3 )
     density =      2.80050 g/cm^3

CELL_PARAMETERS (alat=  7.50000000)
   1.007828699   0.000000000   0.000000000
   0.000000000   1.007828699   0.000000000
   0.000000000   0.000000000   1.007828699

ATOMIC_POSITIONS (crystal)
Al       0.000000000   0.000000000   0.000000000
Al       0.500000000   0.500000000   0.000000000
Al       0.500000000   0.000000000   0.500000000
Al       0.000000000   0.500000000   0.500000000



     Writing output data file tvGuTDeSqyONvdQW.save/
     NEW-OLD atomic charge density approx. for the potential
     extrapolated charge   12.27727, renormalised to   12.00000

     total cpu time spent up to now is       23.1 secs

     Self-consistent Calculation

     iteration #  1     ecut=    50.00 Ry     beta= 0.10
     Davidson diagonalization with overlap
     ethr =  1.00E-06,  avg # of iterations =  4.1

     total cpu time spent up to now is       26.7 secs

     total energy              =    -158.01039178 Ry
     Harris-Foulkes estimate   =    -158.24012473 Ry
     estimated scf accuracy    <       0.00001412 Ry

     iteration #  2     ecut=    50.00 Ry     beta= 0.10
     Davidson diagonalization with overlap
     ethr =  1.18E-07,  avg # of iterations =  2.0

     total cpu time spent up to now is       28.9 secs

     total energy              =    -158.01038208 Ry
     Harris-Foulkes estimate   =    -158.01039385 Ry
     estimated scf accuracy    <       0.00001011 Ry

     iteration #  3     ecut=    50.00 Ry     beta= 0.10
     Davidson diagonalization with overlap
     ethr =  8.42E-08,  avg # of iterations =  1.0

     total cpu time spent up to now is       30.7 secs

     total energy              =    -158.01037433 Ry
     Harris-Foulkes estimate   =    -158.01038217 Ry
     estimated scf accuracy    <       0.00000407 Ry

     iteration #  4     ecut=    50.00 Ry     beta= 0.10
     Davidson diagonalization with overlap
     ethr =  3.39E-08,  avg # of iterations =  1.0

     total cpu time spent up to now is       32.7 secs

     End of self-consistent calculation

          k = 0.0451 0.0451 0.0451 (  2517 PWs)   bands (ev):

    -3.0703   4.9136   4.9136   4.9136   7.0375   7.0375   7.0375  12.5639
    12.5639  12.5639

          k = 0.0451 0.0451 0.1353 (  2520 PWs)   bands (ev):

    -2.9175   3.6093   5.0552   5.0553   7.1807   7.1808   8.6043  11.2616
    11.2616  12.7059

          k = 0.0451 0.0451 0.2255 (  2515 PWs)   bands (ev):

    -2.6123   2.3177   5.3382   5.3382   7.4627   7.4628  10.0192  10.0192
    10.4195  12.2443

          k = 0.0451 0.0451 0.3157 (  2526 PWs)   bands (ev):

    -2.1559   1.1433   5.7618   5.7618   7.8622   7.8623   8.9186   8.9186
    11.2041  11.2042

          k = 0.0451 0.0451 0.4059 (  2517 PWs)   bands (ev):

    -1.5496   0.1033   6.3237   6.3238   7.8378   7.8378   8.4795   8.4796
    10.2990  10.2991

          k = 0.0451 0.0451-0.4961 (  2530 PWs)   bands (ev):

    -0.7958  -0.7955   6.9470   6.9473   7.1100   7.1103   8.8112   8.8115
     9.8004   9.8007

          k = 0.0451 0.1353 0.1353 (  2523 PWs)   bands (ev):

    -2.7648   3.7542   3.7542   5.1967   7.3192   8.7409   8.7409  10.0447
    11.4047  11.4047

          k = 0.0451 0.1353 0.2255 (  2529 PWs)   bands (ev):

    -2.4600   2.4645   4.0434   5.4790   7.5742   8.8485   9.0018  10.1713
    10.5408  11.6964

          k = 0.0451 0.1353 0.3157 (  2532 PWs)   bands (ev):

    -2.0040   1.2915   4.4760   5.9002   7.5101   8.2239   8.9630   9.4771
    11.3749  12.0533

          k = 0.0451 0.1353 0.4059 (  2511 PWs)   bands (ev):

    -1.3984   0.2527   5.0496   6.4074   6.6772   8.0251   8.6834   9.7580
    10.6522  11.7113

          k = 0.0451 0.1353-0.4961 (  2520 PWs)   bands (ev):

    -0.6454  -0.6451   5.7582   5.7585   7.1886   7.1889   9.3256   9.3259
    10.9398  10.9401

          k = 0.0451 0.2255 0.2255 (  2529 PWs)   bands (ev):

    -2.1559   2.7575   2.7575   5.7587   7.3791   8.1041  10.3719  10.3719
    10.8667  10.8667

          k = 0.0451 0.2255 0.3157 (  2519 PWs)   bands (ev):

    -1.7009   1.5874   3.1959   6.1271   6.4171   8.4270   9.2931  10.8386
    11.0293  11.8583

          k = 0.0451 0.2255 0.4059 (  2524 PWs)   bands (ev):

    -1.0966   0.5509   3.7778   5.3556   6.7691   8.3135   8.9827  10.4670
    11.4068  12.0125

          k = 0.0451 0.2255-0.4961 (  2530 PWs)   bands (ev):

    -0.3452  -0.3449   4.5000   4.5003   7.4698   7.4701   9.6773   9.6776
    12.1105  12.1108

          k = 0.0451 0.3157 0.3157 (  2533 PWs)   bands (ev):

    -1.2474   2.0301   2.0301   5.2177   6.6285   8.8485   9.7223   9.7223
    11.8705  11.8705

          k = 0.0451 0.3157 0.4059 (  2533 PWs)   bands (ev):

    -0.6451   0.9971   2.6180   4.2183   7.1889   8.7389   9.4187  10.2880
    10.9540  11.8353

          k = 0.0451 0.3157-0.4961 (  2522 PWs)   bands (ev):

     0.1039   0.1042   3.3485   3.3488   7.8935   7.8938  10.1249  10.1252
    10.9924  10.9927

          k = 0.0451 0.4059 0.4059 (  2516 PWs)   bands (ev):

    -0.0453   1.5897   1.5897   3.2046   7.7531   9.3041   9.3042   9.9928
    10.8535  11.5355

          k = 0.0451 0.4059-0.4961 (  2514 PWs)   bands (ev):

     0.7004   0.7007   2.3265   2.3268   8.4585   8.4588  10.0091  10.0094
    10.7009  10.7012

          k = 0.0451-0.4961-0.4961 (  2520 PWs)   bands (ev):

     1.4421   1.4424   1.4424   1.4427   9.1638   9.1641   9.1641   9.1644
    11.4075  11.4078

          k = 0.1353 0.1353 0.1353 (  2524 PWs)   bands (ev):

    -2.6123   3.8988   3.8988   3.8988   8.8608   8.8608   8.8608  10.2046
    10.2046  10.2046

          k = 0.1353 0.1353 0.2255 (  2535 PWs)   bands (ev):

    -2.3079   2.6111   4.1875   4.1875   8.7698   8.7699   9.3471   9.3471
    10.3134  10.8455

          k = 0.1353 0.1353 0.3157 (  2531 PWs)   bands (ev):

    -1.8524   1.4395   4.6186   4.6186   7.7642   7.7642   9.6490   9.6491
    10.8382  12.6969

          k = 0.1353 0.1353 0.4059 (  2527 PWs)   bands (ev):

    -1.2475   0.4019   5.1866   5.1866   6.7924   6.7924  10.1636  10.1637
    11.4131  11.8805

          k = 0.1353 0.1353-0.4961 (  2518 PWs)   bands (ev):

    -0.4952  -0.4949   5.7550   5.7553   6.0869   6.0872  10.5732  10.5735
    11.3399  11.3402

          k = 0.1353 0.2255 0.2255 (  2531 PWs)   bands (ev):

    -2.0041   2.9037   2.9037   4.4745   7.6449   9.1737   9.1738   9.5269
    11.0295  11.0295

          k = 0.1353 0.2255 0.3157 (  2520 PWs)   bands (ev):

    -1.5496   1.7351   3.3413   4.8996   6.5371   8.0640   9.6136   9.9379
    11.4075  12.7096

          k = 0.1353 0.2255 0.4059 (  2513 PWs)   bands (ev):

    -0.9459   0.6998   3.9216   5.3363   5.6789   7.0772  10.1842  10.4905
    11.7019  11.7340

          k = 0.1353 0.2255-0.4961 (  2528 PWs)   bands (ev):

    -0.1954  -0.1951   4.6378   4.6381   6.2302   6.2305  10.8910  10.8913
    11.1555  11.1558

          k = 0.1353 0.3157 0.3157 (  2522 PWs)   bands (ev):

    -1.0966   2.1773   2.1773   5.1958   5.5389   8.4956   8.4956  10.3645
    11.6017  13.1146

          k = 0.1353 0.3157 0.4059 (  2523 PWs)   bands (ev):

    -0.4949   1.1455   2.7643   4.3567   5.9453   7.5059   9.0658  10.6213
    10.9269  12.4170

          k = 0.1353 0.3157-0.4961 (  2512 PWs)   bands (ev):

     0.2533   0.2536   3.4932   3.4934   6.6529   6.6532   9.7748   9.7751
    11.6182  11.6185

          k = 0.1353 0.4059 0.4059 (  2517 PWs)   bands (ev):

     0.1042   1.7375   1.7375   3.3495   6.5108   8.0765   8.0766   9.6370
    11.4934  13.0075

          k = 0.1353 0.4059-0.4961 (  2518 PWs)   bands (ev):

     0.8492   0.8495   2.4732   2.4735   7.2233   7.2236   8.7875   8.7878
    12.1895  12.1898

          k = 0.1353-0.4961-0.4961 (  2512 PWs)   bands (ev):

     1.5900   1.5904   1.5904   1.5906   7.9356   7.9359   7.9359   7.9362
    12.8861  12.8864

          k = 0.2255 0.2255 0.2255 (  2521 PWs)   bands (ev):

    -1.7009   3.1955   3.1955   3.1955   7.9469   7.9469   7.9470  11.3107
    11.3108  11.3108

          k = 0.2255 0.2255 0.3157 (  2520 PWs)   bands (ev):

    -1.2474   2.0301   3.6312   3.6312   6.8232   6.8232   8.3798  11.4892
    11.7236  11.7236

          k = 0.2255 0.2255 0.4059 (  2521 PWs)   bands (ev):

    -0.6451   0.9972   4.2050   4.2050   5.8320   5.8321   8.9511  10.5084
    12.2512  12.2514

          k = 0.2255 0.2255-0.4961 (  2520 PWs)   bands (ev):

     0.1039   0.1042   4.7764   4.7767   5.1207   5.1210   9.6611   9.6614
    12.6849  13.3274

          k = 0.2255 0.3157 0.3157 (  2519 PWs)   bands (ev):

    -0.7954   2.4711   2.4711   4.0604   5.6948   7.2535   7.2535  10.3762
    12.1503  13.6441

          k = 0.2255 0.3157 0.4059 (  2518 PWs)   bands (ev):

    -0.1950   1.4419   3.0559   4.4949   4.8334   6.2569   7.8261   9.3905
    12.7020  13.9501

          k = 0.2255 0.3157-0.4961 (  2510 PWs)   bands (ev):

     0.5516   0.5519   3.7783   3.7786   5.4017   5.4020   8.5390   8.5393
    13.3645  13.3648

          k = 0.2255 0.4059 0.4059 (  2516 PWs)   bands (ev):

     0.4029   2.0324   2.0324   3.6352   5.2577   6.8300   6.8300   8.4004
    13.2624  14.7249

          k = 0.2255 0.4059-0.4961 (  2506 PWs)   bands (ev):

     1.1462   1.1465   2.7657   2.7660   5.9710   5.9713   7.5454   7.5457
    13.9423  13.9426

          k = 0.2255-0.4961-0.4961 (  2496 PWs)   bands (ev):

     1.8853   1.8856   1.8856   1.8859   6.6877   6.6879   6.6879   6.6883
    14.6264  14.6265

          k = 0.3157 0.3157 0.3157 (  2497 PWs)   bands (ev):

    -0.3448   2.9098   2.9098   2.9098   6.1203   6.1203   6.1203   9.2576
    14.0765  14.0766

          k = 0.3157 0.3157 0.4059 (  2497 PWs)   bands (ev):

     0.2537   1.8851   3.4882   3.4883   5.1212   5.1213   6.6942   8.2665
    14.6057  14.6057

          k = 0.3157 0.3157-0.4961 (  2512 PWs)   bands (ev):

     0.9979   0.9982   4.0717   4.0720   4.3969   4.3972   7.4106   7.4109
    15.0635  15.5445

          k = 0.3157 0.4059 0.4059 (  2497 PWs)   bands (ev):

     0.8497   2.4729   2.4730   3.9306   4.2500   5.6924   5.6924   7.2708
    15.1626  16.4222

          k = 0.3157 0.4059-0.4961 (  2488 PWs)   bands (ev):

     1.5905   1.5908   3.1997   3.2000   4.8320   4.8323   6.4110   6.4113
    15.8099  15.8102

          k = 0.3157-0.4961-0.4961 (  2492 PWs)   bands (ev):

     2.3265   2.3268   2.3268   2.3271   5.5487   5.5490   5.5490   5.5493
    16.4738  16.4741

          k = 0.4059 0.4059 0.4059 (  2506 PWs)   bands (ev):

     1.4429   3.0543   3.0543   3.0543   4.6889   4.6889   4.6890   6.2701
    17.1440  17.1440

          k = 0.4059 0.4059-0.4961 (  2500 PWs)   bands (ev):

     2.1798   2.1801   3.6478   3.6481   3.9540   3.9543   5.4068   5.4071
    17.6171  17.8547

          k = 0.4059-0.4961-0.4961 (  2488 PWs)   bands (ev):

     2.9088   2.9091   2.9091   2.9094   4.5439   4.5441   4.5441   4.5445
    18.3270  18.3274

          k =-0.4961-0.4961-0.4961 (  2512 PWs)   bands (ev):

     3.5062   3.5068   3.5068   3.5068   3.8052   3.8052   3.8052   3.8057
    19.9573  19.9577

     the Fermi energy is     8.2300 ev

!    total energy              =    -158.01037437 Ry
     Harris-Foulkes estimate   =    -158.01037440 Ry
     estimated scf accuracy    <       0.00000004 Ry

     total all-electron energy =     -1942.581496 Ry

     The total energy is the sum of the following terms:

     one-electron contribution =      12.95012181 Ry
     hartree contribution      =       0.02545242 Ry
     xc contribution           =     -10.42963515 Ry
     ewald contribution        =     -21.83638747 Ry
     one-center paw contrib.   =    -138.72057093 Ry
     smearing contrib. (-TS)   =       0.00064495 Ry

     convergence has been achieved in   4 iterations

     Forces acting on atoms (cartesian axes, Ry/au):

     atom    1 type  1   force =     0.00000000    0.00000000    0.00000000
     atom    2 type  1   force =     0.00000000    0.00000000    0.00000000
     atom    3 type  1   force =     0.00000000    0.00000000    0.00000000
     atom    4 type  1   force =     0.00000000    0.00000000    0.00000000

     Total force =     0.000000     Total SCF correction =     0.000000


     Computing stress (Cartesian axis) and pressure

          total   stress  (Ry/bohr**3)                   (kbar)     P=   23.94
   0.00016275   0.00000000   0.00000000         23.94      0.00      0.00
   0.00000000   0.00016275   0.00000000          0.00     23.94      0.00
   0.00000000   0.00000000   0.00016275          0.00      0.00     23.94


     number of scf cycles    =   2
     number of bfgs steps    =   1

     enthalpy old            =    -158.0080180227 Ry
     enthalpy new            =    -158.0103743744 Ry

     CASE: enthalpy_new < enthalpy_old

     new trust radius        =       0.0355138317 bohr
     new conv_thr            =       0.0000000100 Ry

     new unit-cell volume =    443.02617 a.u.^3 (    65.64970 Ang^3 )
     density =      2.72992 g/cm^3

CELL_PARAMETERS (alat=  7.50000000)
   1.016440268   0.000000000   0.000000000
   0.000000000   1.016440268   0.000000000
   0.000000000   0.000000000   1.016440268

ATOMIC_POSITIONS (crystal)
Al       0.000000000   0.000000000   0.000000000
Al       0.500000000   0.500000000   0.000000000
Al       0.500000000   0.000000000   0.500000000
Al       0.000000000   0.500000000   0.500000000



     Writing output data file tvGuTDeSqyONvdQW.save/
     NEW-OLD atomic charge density approx. for the potential
     extrapolated charge   12.30219, renormalised to   12.00000

     total cpu time spent up to now is       36.7 secs

     Self-consistent Calculation

     iteration #  1     ecut=    50.00 Ry     beta= 0.10
     Davidson diagonalization with overlap
     ethr =  1.00E-06,  avg # of iterations =  4.5

     total cpu time spent up to now is       40.8 secs

     total energy              =    -158.01137795 Ry
     Harris-Foulkes estimate   =    -158.25975734 Ry
     estimated scf accuracy    <       0.00001576 Ry

     iteration #  2     ecut=    50.00 Ry     beta= 0.10
     Davidson diagonalization with overlap
     ethr =  1.31E-07,  avg # of iterations =  2.1

     total cpu time spent up to now is       43.2 secs

     total energy              =    -158.01136722 Ry
     Harris-Foulkes estimate   =    -158.01138068 Ry
     estimated scf accuracy    <       0.00001067 Ry

     iteration #  3     ecut=    50.00 Ry     beta= 0.10
     Davidson diagonalization with overlap
     ethr =  8.89E-08,  avg # of iterations =  1.0

     total cpu time spent up to now is       45.0 secs

     total energy              =    -158.01135671 Ry
     Harris-Foulkes estimate   =    -158.01136727 Ry
     estimated scf accuracy    <       0.00000488 Ry

     iteration #  4     ecut=    50.00 Ry     beta= 0.10
     Davidson diagonalization with overlap
     ethr =  4.06E-08,  avg # of iterations =  1.0

     total cpu time spent up to now is       46.8 secs

     total energy              =    -158.01135677 Ry
     Harris-Foulkes estimate   =    -158.01135679 Ry
     estimated scf accuracy    <       0.00000002 Ry

     iteration #  5     ecut=    50.00 Ry     beta= 0.10
     Davidson diagonalization with overlap
     ethr =  1.98E-10,  avg # of iterations =  3.0

     total cpu time spent up to now is       49.3 secs

     total energy              =    -158.01135677 Ry
     Harris-Foulkes estimate   =    -158.01135678 Ry
     estimated scf accuracy    <       0.00000002 Ry

     iteration #  6     ecut=    50.00 Ry     beta= 0.10
     Davidson diagonalization with overlap
     ethr =  1.31E-10,  avg # of iterations =  2.2

     total cpu time spent up to now is       51.7 secs

     total energy              =    -158.01135677 Ry
     Harris-Foulkes estimate   =    -158.01135678 Ry
     estimated scf accuracy    <       0.00000001 Ry

     iteration #  7     ecut=    50.00 Ry     beta= 0.10
     Davidson diagonalization with overlap
     ethr =  1.07E-10,  avg # of iterations =  1.1

     total cpu time spent up to now is       53.5 secs

     End of self-consistent calculation

          k = 0.0447 0.0447 0.0447 (  2517 PWs)   bands (ev):

    -3.1602   4.7069   4.7069   4.7069   6.7762   6.7762   6.7762  12.2516
    12.2516  12.2516

          k = 0.0447 0.0447 0.1342 (  2520 PWs)   bands (ev):

    -3.0099   3.4158   4.8466   4.8466   6.9184   6.9184   8.3267  10.9610
    10.9610  12.3909

          k = 0.0447 0.0447 0.2236 (  2515 PWs)   bands (ev):

    -2.7099   2.1423   5.1258   5.1258   7.1993   7.1993   9.7343   9.7343
    10.1181  11.8693

          k = 0.0447 0.0447 0.3130 (  2526 PWs)   bands (ev):

    -2.2610   0.9856   5.5438   5.5438   7.6030   7.6030   8.6440   8.6440
    10.8364  10.8364

          k = 0.0447 0.0447 0.4025 (  2517 PWs)   bands (ev):

    -1.6646  -0.0382   6.0991   6.0991   7.5999   7.5999   8.2044   8.2045
     9.9276   9.9277

          k = 0.0447 0.0447-0.4919 (  2530 PWs)   bands (ev):

    -0.9229  -0.9228   6.7246   6.7247   6.8645   6.8645   8.5758   8.5758
     9.3988   9.3988

          k = 0.0447 0.1342 0.1342 (  2523 PWs)   bands (ev):

    -2.8598   3.5586   3.5586   4.9861   7.0571   8.4633   8.4633   9.7469
    11.1012  11.1012

          k = 0.0447 0.1342 0.2236 (  2529 PWs)   bands (ev):

    -2.5601   2.2869   3.8438   5.2649   7.3185   8.5551   8.7270   9.8814
    10.2428  11.3858

          k = 0.0447 0.1342 0.3130 (  2532 PWs)   bands (ev):

    -2.1116   1.1315   4.2705   5.6812   7.2833   7.9112   8.7087   9.1870
    10.9972  11.7510

          k = 0.0447 0.1342 0.4025 (  2511 PWs)   bands (ev):

    -1.5159   0.1088   4.8368   6.1929   6.4318   7.7748   8.3874   9.5040
    10.2522  11.3499

          k = 0.0447 0.1342-0.4919 (  2520 PWs)   bands (ev):

    -0.7750  -0.7749   5.5380   5.5381   6.9476   6.9477   9.0399   9.0400
    10.5736  10.5736

          k = 0.0447 0.2236 0.2236 (  2529 PWs)   bands (ev):

    -2.2610   2.5756   2.5756   5.5417   7.1553   7.7872  10.0961  10.0961
    10.5563  10.5563

          k = 0.0447 0.2236 0.3130 (  2519 PWs)   bands (ev):

    -1.8135   1.4229   3.0077   5.9165   6.1745   8.1254   9.0246  10.5472
    10.7537  11.4476

          k = 0.0447 0.2236 0.4025 (  2524 PWs)   bands (ev):

    -1.2190   0.4024   3.5814   5.1402   6.5328   8.0576   8.6787  10.1624
    11.1054  11.6365

          k = 0.0447 0.2236-0.4919 (  2530 PWs)   bands (ev):

    -0.4796  -0.4795   4.2942   4.2943   7.2252   7.2252   9.3690   9.3691
    11.7978  11.7979

          k = 0.0447 0.3130 0.3130 (  2533 PWs)   bands (ev):

    -1.3674   1.8589   1.8589   5.0042   6.3938   8.5437   9.4460   9.4460
    11.5411  11.5412

          k = 0.0447 0.3130 0.4025 (  2533 PWs)   bands (ev):

    -0.7748   0.8416   2.4381   4.0161   6.9478   8.4764   9.1069  10.0027
    10.6254  11.5262

          k = 0.0447 0.3130-0.4919 (  2522 PWs)   bands (ev):

    -0.0376  -0.0375   3.1583   3.1583   7.6429   7.6430   9.8045   9.8046
    10.6963  10.6964

          k = 0.0447 0.4025 0.4025 (  2516 PWs)   bands (ev):

    -0.1846   1.4252   1.4252   3.0163   7.5042   9.0331   9.0331   9.6718
    10.5592  11.1926

          k = 0.0447 0.4025-0.4919 (  2514 PWs)   bands (ev):

     0.5496   0.5497   2.1510   2.1510   8.1997   8.1997   9.7276   9.7276
    10.3695  10.3696

          k = 0.0447-0.4919-0.4919 (  2520 PWs)   bands (ev):

     1.2800   1.2801   1.2801   1.2801   8.8948   8.8949   8.8949   8.8949
    11.0645  11.0645

          k = 0.1342 0.1342 0.1342 (  2524 PWs)   bands (ev):

    -2.7099   3.7012   3.7012   3.7012   8.5875   8.5875   8.5875   9.8997
     9.8997   9.8997

          k = 0.1342 0.1342 0.2236 (  2535 PWs)   bands (ev):

    -2.4104   2.4313   3.9860   3.9860   8.5241   8.5242   9.0261   9.0261
    10.0425  10.5101

          k = 0.1342 0.1342 0.3130 (  2531 PWs)   bands (ev):

    -1.9625   1.2773   4.4116   4.4117   7.5122   7.5122   9.3458   9.3458
    10.5416  12.3544

          k = 0.1342 0.1342 0.4025 (  2527 PWs)   bands (ev):

    -1.3674   0.2557   4.9739   4.9739   6.5482   6.5483   9.8668   9.8668
    11.1046  11.5089

          k = 0.1342 0.1342-0.4919 (  2518 PWs)   bands (ev):

    -0.6272  -0.6271   5.5554   5.5554   5.8311   5.8312  10.3052  10.3052
    10.9422  10.9423

          k = 0.1342 0.2236 0.2236 (  2531 PWs)   bands (ev):

    -2.1117   2.7198   2.7198   4.2696   7.3938   8.9014   8.9014   9.2198
    10.7082  10.7082

          k = 0.1342 0.2236 0.3130 (  2520 PWs)   bands (ev):

    -1.6646   1.5684   3.1512   4.6909   6.2949   7.8037   9.3309   9.6289
    11.0921  12.3774

          k = 0.1342 0.2236 0.4025 (  2513 PWs)   bands (ev):

    -1.0708   0.5489   3.7237   5.1433   5.4255   6.8291   9.8915  10.1772
    11.4148  11.4168

          k = 0.1342 0.2236-0.4919 (  2528 PWs)   bands (ev):

    -0.3321  -0.3320   4.4322   4.4323   5.9914   5.9914  10.5871  10.5871
    10.8426  10.8427

          k = 0.1342 0.3130 0.3130 (  2522 PWs)   bands (ev):

    -1.2190   2.0039   2.0039   5.0050   5.2869   8.2276   8.2276  10.0489
    11.2859  12.8031

          k = 0.1342 0.3130 0.4025 (  2523 PWs)   bands (ev):

    -0.6270   0.9878   2.5824   4.1548   5.7099   7.2514   8.7887  10.3203
    10.6037  12.0822

          k = 0.1342 0.3130-0.4919 (  2512 PWs)   bands (ev):

     0.1095   0.1095   3.3013   3.3013   6.4100   6.4100   9.4868   9.4869
    11.2873  11.2873

          k = 0.1342 0.4025 0.4025 (  2517 PWs)   bands (ev):

    -0.0374   1.5707   1.5707   3.1595   6.2696   7.8135   7.8135   9.3506
    11.1606  12.6537

          k = 0.1342 0.4025-0.4919 (  2518 PWs)   bands (ev):

     0.6961   0.6961   2.2957   2.2957   6.9725   6.9726   8.5139   8.5139
    11.8464  11.8465

          k = 0.1342-0.4919-0.4919 (  2512 PWs)   bands (ev):

     1.4257   1.4258   1.4258   1.4258   7.6746   7.6747   7.6747   7.6748
    12.5311  12.5312

          k = 0.2236 0.2236 0.2236 (  2521 PWs)   bands (ev):

    -1.8135   3.0075   3.0075   3.0075   7.6869   7.6870   7.6870  10.9851
    10.9851  10.9851

          k = 0.2236 0.2236 0.3130 (  2520 PWs)   bands (ev):

    -1.3674   1.8589   3.4374   3.4374   6.5769   6.5769   8.1119  11.1732
    11.3940  11.3940

          k = 0.2236 0.2236 0.4025 (  2521 PWs)   bands (ev):

    -0.7747   0.8417   4.0053   4.0054   5.5968   5.5968   8.6740  10.2073
    11.9219  11.9219

          k = 0.2236 0.2236-0.4919 (  2520 PWs)   bands (ev):

    -0.0375  -0.0375   4.5926   4.5926   4.8717   4.8717   9.3731   9.3731
    12.3813  12.3813

          k = 0.2236 0.3130 0.3130 (  2519 PWs)   bands (ev):

    -0.9227   2.2935   2.2935   3.8627   5.4611   7.0007   7.0007  10.0764
    11.8123  13.2927

          k = 0.2236 0.3130 0.4025 (  2518 PWs)   bands (ev):

    -0.3318   1.2796   2.8703   4.3153   4.5875   6.0175   7.5646   9.1053
    12.3567  13.6242

          k = 0.2236 0.3130-0.4919 (  2510 PWs)   bands (ev):

     0.4031   0.4032   3.5846   3.5846   5.1723   5.1723   8.2668   8.2669
    13.0158  13.0159

          k = 0.2236 0.4025 0.4025 (  2516 PWs)   bands (ev):

     0.2566   1.8613   1.8613   3.4433   5.0302   6.5826   6.5826   8.1298
    12.9064  14.3512

          k = 0.2236 0.4025-0.4919 (  2506 PWs)   bands (ev):

     0.9886   0.9886   2.5843   2.5844   5.7356   5.7356   7.2876   7.2877
    13.5765  13.5766

          k = 0.2236-0.4919-0.4919 (  2496 PWs)   bands (ev):

     1.7167   1.7167   1.7167   1.7168   6.4424   6.4425   6.4425   6.4425
    14.2478  14.2478

          k = 0.3130 0.3130 0.3130 (  2497 PWs)   bands (ev):

    -0.4793   2.7262   2.7262   2.7262   5.8825   5.8825   5.8825   8.9738
    13.7125  13.7125

          k = 0.3130 0.3130 0.4025 (  2497 PWs)   bands (ev):

     0.1098   1.7162   3.2985   3.2985   4.8954   4.8954   6.4483   7.9973
    14.2372  14.2372

          k = 0.3130 0.3130-0.4919 (  2512 PWs)   bands (ev):

     0.8425   0.8425   3.8987   3.8987   4.1563   4.1564   7.1542   7.1543
    14.7181  15.1029

          k = 0.3130 0.4025 0.4025 (  2497 PWs)   bands (ev):

     0.6964   2.2957   2.2957   3.7596   4.0113   5.4604   5.4604   7.0161
    14.7799  16.0475

          k = 0.3130 0.4025-0.4919 (  2488 PWs)   bands (ev):

     1.4261   1.4262   3.0140   3.0140   4.6105   4.6105   6.1691   6.1691
    15.4192  15.4193

          k = 0.3130-0.4919-0.4919 (  2492 PWs)   bands (ev):

     2.1516   2.1517   2.1517   2.1517   5.3190   5.3191   5.3191   5.3191
    16.0681  16.0682

          k = 0.4025 0.4025 0.4025 (  2506 PWs)   bands (ev):

     1.2807   2.8705   2.8705   2.8706   4.4694   4.4694   4.4694   6.0300
    16.7329  16.7329

          k = 0.4025 0.4025-0.4919 (  2500 PWs)   bands (ev):

     2.0070   2.0071   3.4813   3.4814   3.7194   3.7194   5.1789   5.1790
    17.2210  17.3928

          k = 0.4025-0.4919-0.4919 (  2488 PWs)   bands (ev):

     2.7273   2.7274   2.7274   2.7274   4.3267   4.3267   4.3267   4.3268
    17.8921  17.8922

          k =-0.4919-0.4919-0.4919 (  2512 PWs)   bands (ev):

     3.3421   3.3421   3.3421   3.3422   3.5726   3.5727   3.5727   3.5727
    19.4142  19.4143

     the Fermi energy is     7.9618 ev

!    total energy              =    -158.01135677 Ry
     Harris-Foulkes estimate   =    -158.01135677 Ry
     estimated scf accuracy    <          2.4E-09 Ry

     total all-electron energy =     -1942.582479 Ry

     The total energy is the sum of the following terms:

     one-electron contribution =      12.70077479 Ry
     hartree contribution      =       0.02467992 Ry
     xc contribution           =     -10.37452148 Ry
     ewald contribution        =     -21.65138344 Ry
     one-center paw contrib.   =    -138.71142716 Ry
     smearing contrib. (-TS)   =       0.00052061 Ry

     convergence has been achieved in   7 iterations

     Forces acting on atoms (cartesian axes, Ry/au):

     atom    1 type  1   force =     0.00000000    0.00000000    0.00000000
     atom    2 type  1   force =     0.00000000    0.00000000    0.00000000
     atom    3 type  1   force =     0.00000000    0.00000000    0.00000000
     atom    4 type  1   force =     0.00000000    0.00000000    0.00000000

     Total force =     0.000000     Total SCF correction =     0.000000


     Computing stress (Cartesian axis) and pressure

          total   stress  (Ry/bohr**3)                   (kbar)     P=    2.45
   0.00001668   0.00000000   0.00000000          2.45      0.00      0.00
   0.00000000   0.00001668   0.00000000          0.00      2.45      0.00
   0.00000000   0.00000000   0.00001668          0.00      0.00      2.45


     number of scf cycles    =   3
     number of bfgs steps    =   2

     enthalpy old            =    -158.0103743744 Ry
     enthalpy new            =    -158.0113567676 Ry

     CASE: enthalpy_new < enthalpy_old

     new trust radius        =       0.0041497931 bohr
     new conv_thr            =       0.0000000100 Ry

     new unit-cell volume =    444.33764 a.u.^3 (    65.84404 Ang^3 )
     density =      2.72187 g/cm^3

CELL_PARAMETERS (alat=  7.50000000)
   1.017442259   0.000000000   0.000000000
   0.000000000   1.017442259   0.000000000
   0.000000000   0.000000000   1.017442259

ATOMIC_POSITIONS (crystal)
Al       0.000000000   0.000000000   0.000000000
Al       0.500000000   0.500000000   0.000000000
Al       0.500000000   0.000000000   0.500000000
Al       0.000000000   0.500000000   0.500000000



     Writing output data file tvGuTDeSqyONvdQW.save/
     NEW-OLD atomic charge density approx. for the potential
     extrapolated charge   12.03539, renormalised to   12.00000

     total cpu time spent up to now is       57.3 secs

     Self-consistent Calculation

     iteration #  1     ecut=    50.00 Ry     beta= 0.10
     Davidson diagonalization with overlap
     ethr =  1.00E-06,  avg # of iterations =  2.0

     Threshold (ethr) on eigenvalues was too large:
     Diagonalizing with lowered threshold

     Davidson diagonalization with overlap
     ethr =  2.27E-09,  avg # of iterations =  3.5

     total cpu time spent up to now is       62.3 secs

     total energy              =    -158.01136852 Ry
     Harris-Foulkes estimate   =    -158.04030521 Ry
     estimated scf accuracy    <       0.00000026 Ry

     iteration #  2     ecut=    50.00 Ry     beta= 0.10
     Davidson diagonalization with overlap
     ethr =  2.17E-09,  avg # of iterations =  2.0

     total cpu time spent up to now is       64.4 secs

     total energy              =    -158.01136836 Ry
     Harris-Foulkes estimate   =    -158.01136856 Ry
     estimated scf accuracy    <       0.00000018 Ry

     iteration #  3     ecut=    50.00 Ry     beta= 0.10
     Davidson diagonalization with overlap
     ethr =  1.49E-09,  avg # of iterations =  1.0

     total cpu time spent up to now is       66.2 secs

     total energy              =    -158.01136824 Ry
     Harris-Foulkes estimate   =    -158.01136836 Ry
     estimated scf accuracy    <       0.00000007 Ry

     iteration #  4     ecut=    50.00 Ry     beta= 0.10
     Davidson diagonalization with overlap
     ethr =  5.83E-10,  avg # of iterations =  1.0

     total cpu time spent up to now is       68.0 secs

     End of self-consistent calculation

          k = 0.0447 0.0447 0.0447 (  2517 PWs)   bands (ev):

    -3.1704   4.6832   4.6832   4.6832   6.7461   6.7461   6.7461  12.2157
    12.2157  12.2157

          k = 0.0447 0.0447 0.1340 (  2520 PWs)   bands (ev):

    -3.0205   3.3936   4.8227   4.8227   6.8881   6.8881   8.2948  10.9264
    10.9265  12.3546

          k = 0.0447 0.0447 0.2234 (  2515 PWs)   bands (ev):

    -2.7210   2.1222   5.1014   5.1014   7.1689   7.1689   9.7016   9.7016
    10.0834  11.8265

          k = 0.0447 0.0447 0.3127 (  2526 PWs)   bands (ev):

    -2.2730   0.9675   5.5189   5.5189   7.5730   7.5730   8.6125   8.6125
    10.7945  10.7946

          k = 0.0447 0.0447 0.4021 (  2517 PWs)   bands (ev):

    -1.6778  -0.0544   6.0733   6.0733   7.5726   7.5726   8.1726   8.1727
     9.8855   9.8855

          k = 0.0447 0.0447-0.4914 (  2530 PWs)   bands (ev):

    -0.9374  -0.9374   6.6991   6.6992   6.8362   6.8363   8.5487   8.5488
     9.3528   9.3529

          k = 0.0447 0.1340 0.1340 (  2523 PWs)   bands (ev):

    -2.8706   3.5362   3.5362   4.9620   7.0269   8.4313   8.4313   9.7128
    11.0664  11.0664

          k = 0.0447 0.1340 0.2234 (  2529 PWs)   bands (ev):

    -2.5715   2.2665   3.8209   5.2404   7.2889   8.5216   8.6953   9.8482
    10.2084  11.3502

          k = 0.0447 0.1340 0.3127 (  2532 PWs)   bands (ev):

    -2.1239   1.1132   4.2469   5.6561   7.2573   7.8753   8.6796   9.1536
    10.9542  11.7162

          k = 0.0447 0.1340 0.4021 (  2511 PWs)   bands (ev):

    -1.5294   0.0923   4.8124   6.1683   6.4036   7.7461   8.3534   9.4749
    10.2065  11.3087

          k = 0.0447 0.1340-0.4914 (  2520 PWs)   bands (ev):

    -0.7898  -0.7897   5.5127   5.5128   6.9200   6.9201   9.0069   9.0070
    10.5320  10.5320

          k = 0.0447 0.2234 0.2234 (  2529 PWs)   bands (ev):

    -2.2730   2.5548   2.5548   5.5168   7.1296   7.7508  10.0644  10.0644
    10.5205  10.5205

          k = 0.0447 0.2234 0.3127 (  2519 PWs)   bands (ev):

    -1.8263   1.4041   2.9861   5.8924   6.1466   8.0909   8.9938  10.5138
    10.7220  11.4006

          k = 0.0447 0.2234 0.4021 (  2524 PWs)   bands (ev):

    -1.2330   0.3854   3.5589   5.1155   6.5057   8.0282   8.6439  10.1272
    11.0708  11.5937

          k = 0.0447 0.2234-0.4914 (  2530 PWs)   bands (ev):

    -0.4949  -0.4949   4.2706   4.2706   7.1971   7.1972   9.3336   9.3336
    11.7619  11.7620

          k = 0.0447 0.3127 0.3127 (  2533 PWs)   bands (ev):

    -1.3811   1.8393   1.8393   4.9796   6.3670   8.5088   9.4143   9.4143
    11.5031  11.5031

          k = 0.0447 0.3127 0.4021 (  2533 PWs)   bands (ev):

    -0.7896   0.8238   2.4175   3.9929   6.9201   8.4462   9.0711   9.9700
    10.5876  11.4907

          k = 0.0447 0.3127-0.4914 (  2522 PWs)   bands (ev):

    -0.0538  -0.0537   3.1364   3.1365   7.6141   7.6142   9.7677   9.7678
    10.6623  10.6624

          k = 0.0447 0.4021 0.4021 (  2516 PWs)   bands (ev):

    -0.2005   1.4063   1.4063   2.9947   7.4757   9.0020   9.0020   9.6350
    10.5254  11.1532

          k = 0.0447 0.4021-0.4914 (  2514 PWs)   bands (ev):

     0.5323   0.5324   2.1309   2.1309   8.1700   8.1701   9.6953   9.6953
    10.3315  10.3315

          k = 0.0447-0.4914-0.4914 (  2520 PWs)   bands (ev):

     1.2614   1.2615   1.2615   1.2615   8.8639   8.8640   8.8640   8.8641
    11.0251  11.0251

          k = 0.1340 0.1340 0.1340 (  2524 PWs)   bands (ev):

    -2.7210   3.6786   3.6786   3.6786   8.5560   8.5560   8.5560   9.8648
     9.8648   9.8648

          k = 0.1340 0.1340 0.2234 (  2535 PWs)   bands (ev):

    -2.4222   2.4107   3.9629   3.9629   8.4959   8.4959   8.9892   8.9892
    10.0114  10.4715

          k = 0.1340 0.1340 0.3127 (  2531 PWs)   bands (ev):

    -1.9751   1.2587   4.3879   4.3879   7.4833   7.4833   9.3110   9.3110
    10.5075  12.3149

          k = 0.1340 0.1340 0.4021 (  2527 PWs)   bands (ev):

    -1.3811   0.2389   4.9495   4.9495   6.5203   6.5203   9.8326   9.8326
    11.0692  11.4666

          k = 0.1340 0.1340-0.4914 (  2518 PWs)   bands (ev):

    -0.6423  -0.6422   5.5325   5.5326   5.8017   5.8018  10.2744  10.2745
    10.8967  10.8968

          k = 0.1340 0.2234 0.2234 (  2531 PWs)   bands (ev):

    -2.1239   2.6987   2.6987   4.2461   7.3650   8.8701   8.8701   9.1846
    10.6713  10.6713

          k = 0.1340 0.2234 0.3127 (  2520 PWs)   bands (ev):

    -1.6778   1.5493   3.1294   4.6669   6.2671   7.7738   9.2984   9.5935
    11.0557  12.3392

          k = 0.1340 0.2234 0.4021 (  2513 PWs)   bands (ev):

    -1.0851   0.5317   3.7010   5.1212   5.3964   6.8007   9.8579  10.1412
    11.3804  11.3818

          k = 0.1340 0.2234-0.4914 (  2528 PWs)   bands (ev):

    -0.3477  -0.3477   4.4086   4.4087   5.9640   5.9641  10.5522  10.5523
    10.8065  10.8066

          k = 0.1340 0.3127 0.3127 (  2522 PWs)   bands (ev):

    -1.2330   1.9841   1.9841   4.9831   5.2579   8.1968   8.1968  10.0127
    11.2497  12.7673

          k = 0.1340 0.3127 0.4021 (  2523 PWs)   bands (ev):

    -0.6421   0.9697   2.5615   4.1316   5.6830   7.2223   8.7569  10.2858
    10.5666  12.0437

          k = 0.1340 0.3127-0.4914 (  2512 PWs)   bands (ev):

     0.0930   0.0931   3.2793   3.2793   6.3821   6.3822   9.4537   9.4538
    11.2492  11.2493

          k = 0.1340 0.4021 0.4021 (  2517 PWs)   bands (ev):

    -0.0536   1.5516   1.5516   3.1377   6.2420   7.7834   7.7834   9.3177
    11.1223  12.6130

          k = 0.1340 0.4021-0.4914 (  2518 PWs)   bands (ev):

     0.6785   0.6786   2.2753   2.2754   6.9438   6.9438   8.4825   8.4826
    11.8070  11.8071

          k = 0.1340-0.4914-0.4914 (  2512 PWs)   bands (ev):

     1.4069   1.4069   1.4069   1.4070   7.6447   7.6448   7.6448   7.6448
    12.4904  12.4904

          k = 0.2234 0.2234 0.2234 (  2521 PWs)   bands (ev):

    -1.8264   2.9859   2.9859   2.9859   7.6571   7.6571   7.6571  10.9477
    10.9477  10.9477

          k = 0.2234 0.2234 0.3127 (  2520 PWs)   bands (ev):

    -1.3811   1.8393   3.4152   3.4152   6.5487   6.5487   8.0812  11.1369
    11.3561  11.3561

          k = 0.2234 0.2234 0.4021 (  2521 PWs)   bands (ev):

    -0.7896   0.8238   3.9824   3.9824   5.5699   5.5699   8.6422  10.1727
    11.8839  11.8839

          k = 0.2234 0.2234-0.4914 (  2520 PWs)   bands (ev):

    -0.0538  -0.0537   4.5715   4.5716   4.8430   4.8431   9.3400   9.3401
    12.3464  12.3464

          k = 0.2234 0.3127 0.3127 (  2519 PWs)   bands (ev):

    -0.9372   2.2731   2.2731   3.8400   5.4344   6.9717   6.9717  10.0420
    11.7734  13.2522

          k = 0.2234 0.3127 0.4021 (  2518 PWs)   bands (ev):

    -0.3475   1.2610   2.8490   4.2947   4.5593   5.9901   7.5346   9.0726
    12.3170  13.5868

          k = 0.2234 0.3127-0.4914 (  2510 PWs)   bands (ev):

     0.3861   0.3862   3.5623   3.5623   5.1460   5.1461   8.2356   8.2357
    12.9756  12.9757

          k = 0.2234 0.4021 0.4021 (  2516 PWs)   bands (ev):

     0.2399   1.8417   1.8417   3.4213   5.0041   6.5542   6.5542   8.0988
    12.8655  14.3082

          k = 0.2234 0.4021-0.4914 (  2506 PWs)   bands (ev):

     0.9705   0.9705   2.5635   2.5636   5.7086   5.7087   7.2580   7.2581
    13.5344  13.5345

          k = 0.2234-0.4914-0.4914 (  2496 PWs)   bands (ev):

     1.6973   1.6974   1.6974   1.6974   6.4143   6.4144   6.4144   6.4144
    14.2043  14.2043

          k = 0.3127 0.3127 0.3127 (  2497 PWs)   bands (ev):

    -0.4947   2.7052   2.7052   2.7052   5.8552   5.8552   5.8552   8.9412
    13.6706  13.6706

          k = 0.3127 0.3127 0.4021 (  2497 PWs)   bands (ev):

     0.0933   1.6968   3.2766   3.2767   4.8695   4.8695   6.4202   7.9665
    14.1947  14.1947

          k = 0.3127 0.3127-0.4914 (  2512 PWs)   bands (ev):

     0.8247   0.8247   3.8789   3.8790   4.1287   4.1288   7.1248   7.1249
    14.6784  15.0520

          k = 0.3127 0.4021 0.4021 (  2497 PWs)   bands (ev):

     0.6789   2.2754   2.2754   3.7401   3.9839   5.4339   5.4339   6.9870
    14.7358  16.0041

          k = 0.3127 0.4021-0.4914 (  2488 PWs)   bands (ev):

     1.4072   1.4073   2.9926   2.9927   4.5851   4.5852   6.1413   6.1414
    15.3742  15.3742

          k = 0.3127-0.4914-0.4914 (  2492 PWs)   bands (ev):

     2.1315   2.1316   2.1316   2.1317   5.2927   5.2928   5.2928   5.2928
    16.0214  16.0215

          k = 0.4021 0.4021 0.4021 (  2506 PWs)   bands (ev):

     1.2621   2.8494   2.8494   2.8494   4.4443   4.4443   4.4443   6.0025
    16.6855  16.6855

          k = 0.4021 0.4021-0.4914 (  2500 PWs)   bands (ev):

     1.9872   1.9873   3.4622   3.4623   3.6925   3.6925   5.1528   5.1529
    17.1753  17.3397

          k = 0.4021-0.4914-0.4914 (  2488 PWs)   bands (ev):

     2.7064   2.7065   2.7065   2.7066   4.3018   4.3019   4.3019   4.3019
    17.8419  17.8420

          k =-0.4914-0.4914-0.4914 (  2512 PWs)   bands (ev):

     3.3232   3.3232   3.3232   3.3234   3.5459   3.5460   3.5460   3.5460
    19.3519  19.3520

     the Fermi energy is     7.9310 ev

!    total energy              =    -158.01136824 Ry
     Harris-Foulkes estimate   =    -158.01136824 Ry
     estimated scf accuracy    <          2.0E-09 Ry

     total all-electron energy =     -1942.582490 Ry

     The total energy is the sum of the following terms:

     one-electron contribution =      12.67219407 Ry
     hartree contribution      =       0.02460871 Ry
     xc contribution           =     -10.36820336 Ry
     ewald contribution        =     -21.63006087 Ry
     one-center paw contrib.   =    -138.71041375 Ry
     smearing contrib. (-TS)   =       0.00050696 Ry

     convergence has been achieved in   4 iterations

     Forces acting on atoms (cartesian axes, Ry/au):

     atom    1 type  1   force =     0.00000000    0.00000000    0.00000000
     atom    2 type  1   force =     0.00000000    0.00000000    0.00000000
     atom    3 type  1   force =     0.00000000    0.00000000    0.00000000
     atom    4 type  1   force =     0.00000000    0.00000000    0.00000000

     Total force =     0.000000     Total SCF correction =     0.000000


     Computing stress (Cartesian axis) and pressure

          total   stress  (Ry/bohr**3)                   (kbar)     P=    0.13
   0.00000088   0.00000000   0.00000000          0.13      0.00      0.00
   0.00000000   0.00000088   0.00000000          0.00      0.13      0.00
   0.00000000   0.00000000   0.00000088          0.00      0.00      0.13


     bfgs converged in   4 scf cycles and   3 bfgs steps
     (criteria: energy <  1.0E-04 Ry, force <  1.0E-03Ry/Bohr, cell <  5.0E-01kbar)

     End of BFGS Geometry Optimization

     Final enthalpy =    -158.0113682414 Ry
Begin final coordinates
     new unit-cell volume =    444.33764 a.u.^3 (    65.84404 Ang^3 )
     density =      2.72187 g/cm^3

CELL_PARAMETERS (alat=  7.50000000)
   1.017442259   0.000000000   0.000000000
   0.000000000   1.017442259   0.000000000
   0.000000000   0.000000000   1.017442259

ATOMIC_POSITIONS (crystal)
Al       0.000000000   0.000000000   0.000000000
Al       0.500000000   0.500000000   0.000000000
Al       0.500000000   0.000000000   0.500000000
Al       0.000000000   0.500000000   0.500000000
End final coordinates



     Writing output data file tvGuTDeSqyONvdQW.save/

     A final scf calculation at the relaxed structure.
     The G-vectors are recalculated for the final unit cell
     Results may differ from those at the preceding step.

     G-vector sticks info
     --------------------
     sticks:   dense  smooth     PW     G-vecs:    dense   smooth      PW
     Sum         933     933    285                21247    21247    3575



     bravais-lattice index     =            0
     lattice parameter (alat)  =       7.5000  a.u.
     unit-cell volume          =     444.3376 (a.u.)^3
     number of atoms/cell      =            4
     number of atomic types    =            1
     number of electrons       =        12.00
     number of Kohn-Sham states=           10
     kinetic-energy cutoff     =      50.0000  Ry
     charge density cutoff     =     200.0000  Ry
     convergence threshold     =      1.0E-08
     mixing beta               =       0.1000
     number of iterations used =           10  plain     mixing
     Exchange-correlation      = SLA PW PBX PBC ( 1  4  3  4 0 0)

     celldm(1)=   7.500000  celldm(2)=   0.000000  celldm(3)=   0.000000
     celldm(4)=   0.000000  celldm(5)=   0.000000  celldm(6)=   0.000000

     crystal axes: (cart. coord. in units of alat)
               a(1) = (   1.017442   0.000000   0.000000 )  
               a(2) = (   0.000000   1.017442   0.000000 )  
               a(3) = (   0.000000   0.000000   1.017442 )  

     reciprocal axes: (cart. coord. in units 2 pi/alat)
               b(1) = (  0.982857  0.000000  0.000000 )  
               b(2) = (  0.000000  0.982857  0.000000 )  
               b(3) = (  0.000000  0.000000  0.982857 )  


     PseudoPot. # 1 for Al read from file:
     /opt/pp/Al.pbe-nl-kjpaw_psl.1.0.0.UPF
     MD5 check sum: 1b67f78b73fe58c7924490f171ce8a1e
     Pseudo is Projector augmented-wave + core cor, Zval =  3.0
     Generated using "atomic" code by A. Dal Corso v.6.3
     Shape of augmentation charge: PSQ
     Using radial grid of 1135 points,  4 beta functions with: 
                l(1) =   0
                l(2) =   0
                l(3) =   1
                l(4) =   1
     Q(r) pseudized with 0 coefficients 


     atomic species   valence    mass     pseudopotential
        Al             3.00    26.98200     Al( 1.00)

     48 Sym. Ops., with inversion, found



   Cartesian axes

     site n.     atom                  positions (alat units)
         1           Al  tau(   1) = (   0.0000000   0.0000000   0.0000000  )
         2           Al  tau(   2) = (   0.5087211   0.5087211   0.0000000  )
         3           Al  tau(   3) = (   0.5087211   0.0000000   0.5087211  )
         4           Al  tau(   4) = (   0.0000000   0.5087211   0.5087211  )

     number of k points=    56  Marzari-Vanderbilt smearing, width (Ry)=  0.0400
                       cart. coord. in units 2pi/alat
        k(    1) = (   0.0446753   0.0446753   0.0446753), wk =   0.0120210
        k(    2) = (   0.0446753   0.0446753   0.1340259), wk =   0.0360631
        k(    3) = (   0.0446753   0.0446753   0.2233765), wk =   0.0360631
        k(    4) = (   0.0446753   0.0446753   0.3127272), wk =   0.0360631
        k(    5) = (   0.0446753   0.0446753   0.4020778), wk =   0.0360631
        k(    6) = (   0.0446753   0.0446753  -0.4914284), wk =   0.0180316
        k(    7) = (   0.0446753   0.1340259   0.1340259), wk =   0.0360631
        k(    8) = (   0.0446753   0.1340259   0.2233765), wk =   0.0721262
        k(    9) = (   0.0446753   0.1340259   0.3127272), wk =   0.0721262
        k(   10) = (   0.0446753   0.1340259   0.4020778), wk =   0.0721262
        k(   11) = (   0.0446753   0.1340259  -0.4914284), wk =   0.0360631
        k(   12) = (   0.0446753   0.2233765   0.2233765), wk =   0.0360631
        k(   13) = (   0.0446753   0.2233765   0.3127272), wk =   0.0721262
        k(   14) = (   0.0446753   0.2233765   0.4020778), wk =   0.0721262
        k(   15) = (   0.0446753   0.2233765  -0.4914284), wk =   0.0360631
        k(   16) = (   0.0446753   0.3127272   0.3127272), wk =   0.0360631
        k(   17) = (   0.0446753   0.3127272   0.4020778), wk =   0.0721262
        k(   18) = (   0.0446753   0.3127272  -0.4914284), wk =   0.0360631
        k(   19) = (   0.0446753   0.4020778   0.4020778), wk =   0.0360631
        k(   20) = (   0.0446753   0.4020778  -0.4914284), wk =   0.0360631
        k(   21) = (   0.0446753  -0.4914284  -0.4914284), wk =   0.0090158
        k(   22) = (   0.1340259   0.1340259   0.1340259), wk =   0.0120210
        k(   23) = (   0.1340259   0.1340259   0.2233765), wk =   0.0360631
        k(   24) = (   0.1340259   0.1340259   0.3127272), wk =   0.0360631
        k(   25) = (   0.1340259   0.1340259   0.4020778), wk =   0.0360631
        k(   26) = (   0.1340259   0.1340259  -0.4914284), wk =   0.0180316
        k(   27) = (   0.1340259   0.2233765   0.2233765), wk =   0.0360631
        k(   28) = (   0.1340259   0.2233765   0.3127272), wk =   0.0721262
        k(   29) = (   0.1340259   0.2233765   0.4020778), wk =   0.0721262
        k(   30) = (   0.1340259   0.2233765  -0.4914284), wk =   0.0360631
        k(   31) = (   0.1340259   0.3127272   0.3127272), wk =   0.0360631
        k(   32) = (   0.1340259   0.3127272   0.4020778), wk =   0.0721262
        k(   33) = (   0.1340259   0.3127272  -0.4914284), wk =   0.0360631
        k(   34) = (   0.1340259   0.4020778   0.4020778), wk =   0.0360631
        k(   35) = (   0.1340259   0.4020778  -0.4914284), wk =   0.0360631
        k(   36) = (   0.1340259  -0.4914284  -0.4914284), wk =   0.0090158
        k(   37) = (   0.2233765   0.2233765   0.2233765), wk =   0.0120210
        k(   38) = (   0.2233765   0.2233765   0.3127272), wk =   0.0360631
        k(   39) = (   0.2233765   0.2233765   0.4020778), wk =   0.0360631
        k(   40) = (   0.2233765   0.2233765  -0.4914284), wk =   0.0180316
        k(   41) = (   0.2233765   0.3127272   0.3127272), wk =   0.0360631
        k(   42) = (   0.2233765   0.3127272   0.4020778), wk =   0.0721262
        k(   43) = (   0.2233765   0.3127272  -0.4914284), wk =   0.0360631
        k(   44) = (   0.2233765   0.4020778   0.4020778), wk =   0.0360631
        k(   45) = (   0.2233765   0.4020778  -0.4914284), wk =   0.0360631
        k(   46) = (   0.2233765  -0.4914284  -0.4914284), wk =   0.0090158
        k(   47) = (   0.3127272   0.3127272   0.3127272), wk =   0.0120210
        k(   48) = (   0.3127272   0.3127272   0.4020778), wk =   0.0360631
        k(   49) = (   0.3127272   0.3127272  -0.4914284), wk =   0.0180316
        k(   50) = (   0.3127272   0.4020778   0.4020778), wk =   0.0360631
        k(   51) = (   0.3127272   0.4020778  -0.4914284), wk =   0.0360631
        k(   52) = (   0.3127272  -0.4914284  -0.4914284), wk =   0.0090158
        k(   53) = (   0.4020778   0.4020778   0.4020778), wk =   0.0120210
        k(   54) = (   0.4020778   0.4020778  -0.4914284), wk =   0.0180316
        k(   55) = (   0.4020778  -0.4914284  -0.4914284), wk =   0.0090158
        k(   56) = (  -0.4914284  -0.4914284  -0.4914284), wk =   0.0015026

     Dense  grid:    21247 G-vectors     FFT dimensions: (  36,  36,  36)

     Estimated max dynamical RAM per process >      55.98 MB

     Initial potential from superposition of free atoms

     starting charge   11.99084, renormalised to   12.00000
     Starting wfcs are   16 randomized atomic wfcs
     Checking if some PAW data can be deallocated... 

     total cpu time spent up to now is       72.2 secs

     Self-consistent Calculation

     iteration #  1     ecut=    50.00 Ry     beta= 0.10
     Davidson diagonalization with overlap
     c_bands:  1 eigenvalues not converged
     c_bands:  2 eigenvalues not converged
     c_bands:  1 eigenvalues not converged
     c_bands:  2 eigenvalues not converged
     ethr =  1.00E-06,  avg # of iterations = 12.2

     total cpu time spent up to now is       78.6 secs

     total energy              =    -158.01615052 Ry
     Harris-Foulkes estimate   =    -158.01733806 Ry
     estimated scf accuracy    <       0.02257403 Ry

     iteration #  2     ecut=    50.00 Ry     beta= 0.10
     Davidson diagonalization with overlap
     ethr =  1.88E-04,  avg # of iterations =  1.1

     total cpu time spent up to now is       80.5 secs

     total energy              =    -158.01092378 Ry
     Harris-Foulkes estimate   =    -158.01615550 Ry
     estimated scf accuracy    <       0.01811789 Ry

     iteration #  3     ecut=    50.00 Ry     beta= 0.10
     Davidson diagonalization with overlap
     ethr =  1.51E-04,  avg # of iterations =  1.0

     total cpu time spent up to now is       82.4 secs

     total energy              =    -158.01129656 Ry
     Harris-Foulkes estimate   =    -158.01129750 Ry
     estimated scf accuracy    <       0.00003871 Ry

     iteration #  4     ecut=    50.00 Ry     beta= 0.10
     Davidson diagonalization with overlap
     ethr =  3.23E-07,  avg # of iterations =  3.3

     total cpu time spent up to now is       85.4 secs

     total energy              =    -158.01137476 Ry
     Harris-Foulkes estimate   =    -158.01137575 Ry
     estimated scf accuracy    <       0.00000634 Ry

     iteration #  5     ecut=    50.00 Ry     beta= 0.10
     Davidson diagonalization with overlap
     ethr =  5.29E-08,  avg # of iterations =  1.0

     total cpu time spent up to now is       87.2 secs

     total energy              =    -158.01137398 Ry
     Harris-Foulkes estimate   =    -158.01137486 Ry
     estimated scf accuracy    <       0.00000348 Ry

     iteration #  6     ecut=    50.00 Ry     beta= 0.10
     Davidson diagonalization with overlap
     ethr =  2.90E-08,  avg # of iterations =  1.0

     total cpu time spent up to now is       89.0 secs

     total energy              =    -158.01137354 Ry
     Harris-Foulkes estimate   =    -158.01137401 Ry
     estimated scf accuracy    <       0.00000170 Ry

     iteration #  7     ecut=    50.00 Ry     beta= 0.10
     Davidson diagonalization with overlap
     ethr =  1.42E-08,  avg # of iterations =  1.0

     total cpu time spent up to now is       90.8 secs

     total energy              =    -158.01137356 Ry
     Harris-Foulkes estimate   =    -158.01137361 Ry
     estimated scf accuracy    <       0.00000081 Ry

     iteration #  8     ecut=    50.00 Ry     beta= 0.10
     Davidson diagonalization with overlap
     ethr =  6.77E-09,  avg # of iterations =  1.0

     total cpu time spent up to now is       92.6 secs

     total energy              =    -158.01137334 Ry
     Harris-Foulkes estimate   =    -158.01137357 Ry
     estimated scf accuracy    <       0.00000073 Ry

     iteration #  9     ecut=    50.00 Ry     beta= 0.10
     Davidson diagonalization with overlap
     ethr =  6.07E-09,  avg # of iterations =  1.0

     total cpu time spent up to now is       94.4 secs

     total energy              =    -158.01137346 Ry
     Harris-Foulkes estimate   =    -158.01137337 Ry
     estimated scf accuracy    <       0.00000021 Ry

     iteration # 10     ecut=    50.00 Ry     beta= 0.10
     Davidson diagonalization with overlap
     ethr =  1.73E-09,  avg # of iterations =  1.1

     total cpu time spent up to now is       96.2 secs

     End of self-consistent calculation

          k = 0.0447 0.0447 0.0447 (  2638 PWs)   bands (ev):

    -3.1704   4.6832   4.6832   4.6832   6.7461   6.7461   6.7461  12.2157
    12.2157  12.2157

          k = 0.0447 0.0447 0.1340 (  2644 PWs)   bands (ev):

    -3.0204   3.3936   4.8227   4.8227   6.8882   6.8882   8.2948  10.9265
    10.9265  12.3546

          k = 0.0447 0.0447 0.2234 (  2666 PWs)   bands (ev):

    -2.7210   2.1222   5.1015   5.1015   7.1689   7.1689   9.7016   9.7016
    10.0834  11.8266

          k = 0.0447 0.0447 0.3127 (  2665 PWs)   bands (ev):

    -2.2729   0.9676   5.5189   5.5189   7.5730   7.5730   8.6125   8.6126
    10.7946  10.7946

          k = 0.0447 0.0447 0.4021 (  2656 PWs)   bands (ev):

    -1.6778  -0.0544   6.0733   6.0733   7.5726   7.5726   8.1726   8.1727
     9.8855   9.8855

          k = 0.0447 0.0447-0.4914 (  2672 PWs)   bands (ev):

    -0.9374  -0.9373   6.6992   6.6992   6.8362   6.8363   8.5487   8.5488
     9.3529   9.3530

          k = 0.0447 0.1340 0.1340 (  2651 PWs)   bands (ev):

    -2.8706   3.5362   3.5362   4.9621   7.0269   8.4313   8.4313   9.7128
    11.0664  11.0664

          k = 0.0447 0.1340 0.2234 (  2671 PWs)   bands (ev):

    -2.5715   2.2666   3.8210   5.2404   7.2889   8.5216   8.6953   9.8482
    10.2084  11.3502

          k = 0.0447 0.1340 0.3127 (  2656 PWs)   bands (ev):

    -2.1239   1.1132   4.2470   5.6561   7.2573   7.8753   8.6796   9.1536
    10.9542  11.7163

          k = 0.0447 0.1340 0.4021 (  2662 PWs)   bands (ev):

    -1.5294   0.0923   4.8124   6.1683   6.4036   7.7461   8.3534   9.4749
    10.2065  11.3088

          k = 0.0447 0.1340-0.4914 (  2668 PWs)   bands (ev):

    -0.7898  -0.7897   5.5127   5.5128   6.9200   6.9201   9.0069   9.0070
    10.5320  10.5321

          k = 0.0447 0.2234 0.2234 (  2665 PWs)   bands (ev):

    -2.2729   2.5548   2.5548   5.5168   7.1296   7.7508  10.0644  10.0644
    10.5205  10.5205

          k = 0.0447 0.2234 0.3127 (  2655 PWs)   bands (ev):

    -1.8263   1.4041   2.9861   5.8924   6.1466   8.0909   8.9938  10.5138
    10.7220  11.4006

          k = 0.0447 0.2234 0.4021 (  2647 PWs)   bands (ev):

    -1.2330   0.3854   3.5589   5.1155   6.5057   8.0283   8.6439  10.1272
    11.0708  11.5937

          k = 0.0447 0.2234-0.4914 (  2650 PWs)   bands (ev):

    -0.4949  -0.4948   4.2706   4.2707   7.1971   7.1972   9.3336   9.3336
    11.7619  11.7620

          k = 0.0447 0.3127 0.3127 (  2656 PWs)   bands (ev):

    -1.3811   1.8393   1.8393   4.9796   6.3670   8.5088   9.4143   9.4143
    11.5031  11.5031

          k = 0.0447 0.3127 0.4021 (  2653 PWs)   bands (ev):

    -0.7896   0.8238   2.4175   3.9930   6.9201   8.4463   9.0711   9.9700
    10.5876  11.4907

          k = 0.0447 0.3127-0.4914 (  2642 PWs)   bands (ev):

    -0.0538  -0.0537   3.1364   3.1365   7.6142   7.6142   9.7677   9.7678
    10.6623  10.6624

          k = 0.0447 0.4021 0.4021 (  2650 PWs)   bands (ev):

    -0.2005   1.4063   1.4063   2.9947   7.4757   9.0020   9.0020   9.6350
    10.5254  11.1533

          k = 0.0447 0.4021-0.4914 (  2658 PWs)   bands (ev):

     0.5323   0.5324   2.1309   2.1309   8.1700   8.1701   9.6953   9.6954
    10.3315  10.3315

          k = 0.0447-0.4914-0.4914 (  2668 PWs)   bands (ev):

     1.2614   1.2615   1.2615   1.2616   8.8639   8.8640   8.8640   8.8641
    11.0251  11.0252

          k = 0.1340 0.1340 0.1340 (  2653 PWs)   bands (ev):

    -2.7210   3.6786   3.6786   3.6786   8.5561   8.5561   8.5561   9.8648
     9.8648   9.8648

          k = 0.1340 0.1340 0.2234 (  2663 PWs)   bands (ev):

    -2.4221   2.4108   3.9630   3.9630   8.4959   8.4960   8.9892   8.9892
    10.0114  10.4715

          k = 0.1340 0.1340 0.3127 (  2661 PWs)   bands (ev):

    -1.9750   1.2587   4.3879   4.3879   7.4833   7.4833   9.3110   9.3110
    10.5075  12.3676

          k = 0.1340 0.1340 0.4021 (  2663 PWs)   bands (ev):

    -1.3811   0.2389   4.9495   4.9495   6.5203   6.5203   9.8326   9.8326
    11.0692  11.4666

          k = 0.1340 0.1340-0.4914 (  2664 PWs)   bands (ev):

    -0.6423  -0.6422   5.5325   5.5326   5.8017   5.8018  10.2744  10.2745
    10.8967  10.8968

          k = 0.1340 0.2234 0.2234 (  2651 PWs)   bands (ev):

    -2.1239   2.6987   2.6987   4.2461   7.3650   8.8701   8.8701   9.1846
    10.6713  10.6713

          k = 0.1340 0.2234 0.3127 (  2645 PWs)   bands (ev):

    -1.6778   1.5493   3.1294   4.6669   6.2672   7.7738   9.2984   9.5935
    11.0557  12.3393

          k = 0.1340 0.2234 0.4021 (  2659 PWs)   bands (ev):

    -1.0850   0.5317   3.7010   5.1212   5.3965   6.8007   9.8579  10.1413
    11.3804  11.3818

          k = 0.1340 0.2234-0.4914 (  2650 PWs)   bands (ev):

    -0.3477  -0.3476   4.4086   4.4087   5.9640   5.9641  10.5522  10.5523
    10.8065  10.8066

          k = 0.1340 0.3127 0.3127 (  2657 PWs)   bands (ev):

    -1.2330   1.9841   1.9841   4.9832   5.2579   8.1968   8.1969  10.0127
    11.2497  12.7673

          k = 0.1340 0.3127 0.4021 (  2651 PWs)   bands (ev):

    -0.6421   0.9697   2.5616   4.1316   5.6830   7.2223   8.7569  10.2858
    10.5666  12.0437

          k = 0.1340 0.3127-0.4914 (  2644 PWs)   bands (ev):

     0.0930   0.0931   3.2793   3.2793   6.3822   6.3822   9.4537   9.4538
    11.2492  11.2493

          k = 0.1340 0.4021 0.4021 (  2639 PWs)   bands (ev):

    -0.0535   1.5516   1.5516   3.1377   6.2420   7.7834   7.7834   9.3178
    11.1224  12.6131

          k = 0.1340 0.4021-0.4914 (  2656 PWs)   bands (ev):

     0.6785   0.6786   2.2753   2.2754   6.9438   6.9439   8.4825   8.4826
    11.8070  11.8071

          k = 0.1340-0.4914-0.4914 (  2652 PWs)   bands (ev):

     1.4069   1.4070   1.4070   1.4070   7.6447   7.6448   7.6448   7.6449
    12.4904  12.4904

          k = 0.2234 0.2234 0.2234 (  2647 PWs)   bands (ev):

    -1.8263   2.9859   2.9859   2.9859   7.6571   7.6571   7.6571  10.9477
    10.9477  10.9477

          k = 0.2234 0.2234 0.3127 (  2656 PWs)   bands (ev):

    -1.3811   1.8393   3.4152   3.4152   6.5487   6.5487   8.0812  11.1370
    11.3561  11.3561

          k = 0.2234 0.2234 0.4021 (  2653 PWs)   bands (ev):

    -0.7896   0.8239   3.9824   3.9824   5.5699   5.5699   8.6422  10.1728
    11.8839  11.8839

          k = 0.2234 0.2234-0.4914 (  2640 PWs)   bands (ev):

    -0.0537  -0.0537   4.5715   4.5716   4.8431   4.8432   9.3400   9.3401
    12.3464  12.3464

          k = 0.2234 0.3127 0.3127 (  2660 PWs)   bands (ev):

    -0.9372   2.2731   2.2731   3.8401   5.4344   6.9717   6.9718  10.0420
    11.7735  13.2522

          k = 0.2234 0.3127 0.4021 (  2648 PWs)   bands (ev):

    -0.3475   1.2610   2.8490   4.2947   4.5593   5.9901   7.5346   9.0727
    12.3170  13.5868

          k = 0.2234 0.3127-0.4914 (  2644 PWs)   bands (ev):

     0.3861   0.3862   3.5623   3.5624   5.1460   5.1461   8.2356   8.2357
    12.9756  12.9757

          k = 0.2234 0.4021 0.4021 (  2641 PWs)   bands (ev):

     0.2399   1.8417   1.8417   3.4213   5.0042   6.5543   6.5543   8.0988
    12.8655  14.3082

          k = 0.2234 0.4021-0.4914 (  2644 PWs)   bands (ev):

     0.9705   0.9706   2.5635   2.5636   5.7086   5.7087   7.2580   7.2581
    13.5345  13.5345

          k = 0.2234-0.4914-0.4914 (  2648 PWs)   bands (ev):

     1.6973   1.6974   1.6974   1.6975   6.4143   6.4144   6.4144   6.4145
    14.2043  14.2043

          k = 0.3127 0.3127 0.3127 (  2644 PWs)   bands (ev):

    -0.4946   2.7052   2.7052   2.7052   5.8552   5.8552   5.8553   8.9412
    13.6706  13.6706

          k = 0.3127 0.3127 0.4021 (  2647 PWs)   bands (ev):

     0.0933   1.6968   3.2767   3.2767   4.8696   4.8696   6.4202   7.9665
    14.1947  14.1948

          k = 0.3127 0.3127-0.4914 (  2640 PWs)   bands (ev):

     0.8247   0.8248   3.8789   3.8790   4.1287   4.1288   7.1248   7.1249
    14.6784  14.6785

          k = 0.3127 0.4021 0.4021 (  2647 PWs)   bands (ev):

     0.6789   2.2754   2.2754   3.7401   3.9839   5.4339   5.4339   6.9870
    14.7358  16.0038

          k = 0.3127 0.4021-0.4914 (  2634 PWs)   bands (ev):

     1.4073   1.4073   2.9927   2.9927   4.5852   4.5852   6.1413   6.1414
    15.3742  15.3743

          k = 0.3127-0.4914-0.4914 (  2644 PWs)   bands (ev):

     2.1315   2.1316   2.1316   2.1317   5.2927   5.2928   5.2928   5.2929
    16.0214  16.0215

          k = 0.4021 0.4021 0.4021 (  2644 PWs)   bands (ev):

     1.2621   2.8494   2.8495   2.8495   4.4443   4.4443   4.4443   6.0025
    16.6855  16.6855

          k = 0.4021 0.4021-0.4914 (  2630 PWs)   bands (ev):

     1.9872   1.9873   3.4622   3.4623   3.6925   3.6926   5.1529   5.1529
    17.1754  17.1757

          k = 0.4021-0.4914-0.4914 (  2612 PWs)   bands (ev):

     2.7064   2.7065   2.7065   2.7066   4.3018   4.3019   4.3019   4.3020
    17.8420  17.8420

          k =-0.4914-0.4914-0.4914 (  2608 PWs)   bands (ev):

     3.3232   3.3233   3.3233   3.3233   3.5460   3.5460   3.5460   3.5462
    19.3520  19.3520

     the Fermi energy is     7.9310 ev

!    total energy              =    -158.01137346 Ry
     Harris-Foulkes estimate   =    -158.01137347 Ry
     estimated scf accuracy    <          4.9E-09 Ry

     total all-electron energy =     -1942.582496 Ry

     The total energy is the sum of the following terms:

     one-electron contribution =      12.67219048 Ry
     hartree contribution      =       0.02460839 Ry
     xc contribution           =     -10.36819876 Ry
     ewald contribution        =     -21.63006086 Ry
     one-center paw contrib.   =    -138.71041970 Ry
     smearing contrib. (-TS)   =       0.00050700 Ry

     convergence has been achieved in  10 iterations

     Forces acting on atoms (cartesian axes, Ry/au):

     atom    1 type  1   force =     0.00000000    0.00000000    0.00000000
     atom    2 type  1   force =     0.00000000    0.00000000    0.00000000
     atom    3 type  1   force =     0.00000000    0.00000000    0.00000000
     atom    4 type  1   force =     0.00000000    0.00000000    0.00000000

     Total force =     0.000000     Total SCF correction =     0.000000


     Computing stress (Cartesian axis) and pressure

          total   stress  (Ry/bohr**3)                   (kbar)     P=    0.13
   0.00000091   0.00000000   0.00000000          0.13      0.00      0.00
   0.00000000   0.00000091   0.00000000          0.00      0.13      0.00
   0.00000000   0.00000000   0.00000091          0.00      0.00      0.13


     Writing output data file tvGuTDeSqyONvdQW.save/

     init_run     :      4.06s CPU      4.11s WALL (       2 calls)
     electrons    :     76.83s CPU     77.47s WALL (       5 calls)
     update_pot   :      3.39s CPU      3.41s WALL (       3 calls)
     forces       :      3.66s CPU      3.68s WALL (       5 calls)
     stress       :      7.51s CPU      7.53s WALL (       5 calls)

     Called by init_run:
     wfcinit      :      2.36s CPU      2.38s WALL (       2 calls)
     potinit      :      0.54s CPU      0.55s WALL (       2 calls)
     hinit0       :      1.12s CPU      1.13s WALL (       2 calls)

     Called by electrons:
     c_bands      :     61.99s CPU     62.52s WALL (      33 calls)
     sum_band     :     10.09s CPU     10.16s WALL (      33 calls)
     v_of_rho     :      0.73s CPU      0.73s WALL (      36 calls)
     newd         :      0.39s CPU      0.41s WALL (      36 calls)
     PAW_pot      :      4.71s CPU      4.73s WALL (      39 calls)
     mix_rho      :      0.05s CPU      0.06s WALL (      33 calls)

     Called by c_bands:
     init_us_2    :      1.71s CPU      1.73s WALL (    4536 calls)
     cegterg      :     59.59s CPU     60.02s WALL (    1848 calls)

     Called by sum_band:
     sum_band:bec :      0.01s CPU      0.01s WALL (    2016 calls)
     addusdens    :      0.27s CPU      0.28s WALL (      33 calls)

     Called by *egterg:
     h_psi        :     47.43s CPU     47.78s WALL (    6098 calls)
     s_psi        :      3.66s CPU      3.68s WALL (    6098 calls)
     g_psi        :      0.27s CPU      0.27s WALL (    4138 calls)
     cdiaghg      :      0.72s CPU      0.73s WALL (    5706 calls)

     Called by h_psi:
     h_psi:pot    :     47.24s CPU     47.59s WALL (    6098 calls)
     h_psi:calbec :      4.64s CPU      4.67s WALL (    6098 calls)
     vloc_psi     :     38.97s CPU     39.27s WALL (    6098 calls)
     add_vuspsi   :      3.62s CPU      3.64s WALL (    6098 calls)

     General routines
     calbec       :      7.65s CPU      7.70s WALL (    9514 calls)
     fft          :      0.33s CPU      0.34s WALL (     526 calls)
     ffts         :      0.02s CPU      0.02s WALL (      33 calls)
     fftw         :     42.69s CPU     43.02s WALL (  120768 calls)

     Parallel routines

     PWSCF        :   1m36.44s CPU   1m37.26s WALL


   This run was terminated on:  12:11:11  14May2021            

=------------------------------------------------------------------------------=
   JOB DONE.
=------------------------------------------------------------------------------=
