
     Program PWSCF v.6.4.1 starts on  3Jul2020 at  2:59:32 

     This program is part of the open-source Quantum ESPRESSO suite
     for quantum simulation of materials; please cite
         "P. Giannozzi et al., J. Phys.:Condens. Matter 21 395502 (2009);
         "P. Giannozzi et al., J. Phys.:Condens. Matter 29 465901 (2017);
          URL http://www.quantum-espresso.org", 
     in publications or presentations arising from this work. More details at
     http://www.quantum-espresso.org/quote

     Parallel version (MPI), running on     1 processors

     MPI processes distributed on     1 nodes
     Waiting for input...
     Reading input from standard input
Warning: card &IONS ignored
Warning: card ION_DYNAMICS = 'BFGS', ignored
Warning: card / ignored
Warning: card &CELL ignored
Warning: card CELL_DYNAMICS = 'BFGS', ignored
Warning: card CELL_FACTOR = 2.0, ignored
Warning: card PRESS = 0.0, ignored
Warning: card / ignored

     Current dimensions of program PWSCF are:
     Max number of different atomic species (ntypx) = 10
     Max number of k-points (npk) =  40000
     Max angular momentum in pseudopotentials (lmaxx) =  3
               file Al.pbe-nl-kjpaw_psl.1.0.0.UPF: wavefunction(s)  3S 3P renormalized

     Subspace diagonalization in iterative solution of the eigenvalue problem:
     a serial algorithm will be used

     Found symmetry operation: I + (  0.5000  0.5000  0.0000)
     This is a supercell, fractional translations are disabled
     Message from routine setup:
     DEPRECATED: symmetry with ibrav=0, use correct ibrav instead

     G-vector sticks info
     --------------------
     sticks:   dense  smooth     PW     G-vecs:    dense   smooth      PW
     Sum         465     465    145                 7441     7441    1357



     bravais-lattice index     =            0
     lattice parameter (alat)  =       7.6302  a.u.
     unit-cell volume          =     441.1318 (a.u.)^3
     number of atoms/cell      =            4
     number of atomic types    =            1
     number of electrons       =        12.00
     number of Kohn-Sham states=           10
     kinetic-energy cutoff     =      25.0000  Ry
     charge density cutoff     =     100.0000  Ry
     convergence threshold     =      1.0E-06
     mixing beta               =       0.1000
     number of iterations used =           10  TF        mixing
     Exchange-correlation      = SLA PW PBX PBC ( 1  4  3  4 0 0)

     celldm(1)=   7.630225  celldm(2)=   0.000000  celldm(3)=   0.000000
     celldm(4)=   0.000000  celldm(5)=   0.000000  celldm(6)=   0.000000

     crystal axes: (cart. coord. in units of alat)
               a(1) = (   0.997667   0.000000   0.000000 )  
               a(2) = (   0.000000   0.997667   0.000000 )  
               a(3) = (   0.000000   0.000000   0.997667 )  

     reciprocal axes: (cart. coord. in units 2 pi/alat)
               b(1) = (  1.002339  0.000000  0.000000 )  
               b(2) = (  0.000000  1.002339  0.000000 )  
               b(3) = (  0.000000  0.000000  1.002339 )  


     PseudoPot. # 1 for Al read from file:
     /opt/pp/Al.pbe-nl-kjpaw_psl.1.0.0.UPF
     MD5 check sum: 1b67f78b73fe58c7924490f171ce8a1e
     Pseudo is Projector augmented-wave + core cor, Zval =  3.0
     Generated using "atomic" code by A. Dal Corso v.6.3
     Shape of augmentation charge: PSQ
     Using radial grid of 1135 points,  4 beta functions with: 
                l(1) =   0
                l(2) =   0
                l(3) =   1
                l(4) =   1
     Q(r) pseudized with 0 coefficients 


     atomic species   valence    mass     pseudopotential
        Al             3.00    26.98200     Al( 1.00)

     48 Sym. Ops., with inversion, found



   Cartesian axes

     site n.     atom                  positions (alat units)
         1           Al  tau(   1) = (   0.0000000   0.0000000   0.0000000  )
         2           Al  tau(   2) = (   0.4988332   0.4988332   0.0000000  )
         3           Al  tau(   3) = (   0.4988332   0.0000000   0.4988323  )
         4           Al  tau(   4) = (   0.0000000   0.4988332   0.4988323  )

     number of k points=     4  Marzari-Vanderbilt smearing, width (Ry)=  0.0400
                       cart. coord. in units 2pi/alat
        k(    1) = (   0.1670565   0.1670565   0.1670565), wk =   0.5925926
        k(    2) = (   0.1670565   0.1670565  -0.5011694), wk =   0.8888889
        k(    3) = (   0.1670565  -0.5011694  -0.5011694), wk =   0.4444444
        k(    4) = (  -0.5011694  -0.5011694  -0.5011694), wk =   0.0740741

     Dense  grid:     7441 G-vectors     FFT dimensions: (  25,  25,  25)

     Estimated max dynamical RAM per process >      12.14 MB

     Initial potential from superposition of free atoms

     starting charge   11.99084, renormalised to   12.00000
     Starting wfcs are   16 randomized atomic wfcs
     Checking if some PAW data can be deallocated... 

     total cpu time spent up to now is        0.6 secs

     Self-consistent Calculation

     iteration #  1     ecut=    25.00 Ry     beta= 0.10
     Davidson diagonalization with overlap
     ethr =  1.00E-02,  avg # of iterations =  2.8

     Threshold (ethr) on eigenvalues was too large:
     Diagonalizing with lowered threshold

     Davidson diagonalization with overlap
     ethr =  1.88E-04,  avg # of iterations =  2.2

     total cpu time spent up to now is        0.8 secs

     total energy              =    -158.05250195 Ry
     Harris-Foulkes estimate   =    -158.05315002 Ry
     estimated scf accuracy    <       0.02176866 Ry

     iteration #  2     ecut=    25.00 Ry     beta= 0.10
     Davidson diagonalization with overlap
     ethr =  1.81E-04,  avg # of iterations =  1.0

     total cpu time spent up to now is        1.0 secs

     total energy              =    -158.04741248 Ry
     Harris-Foulkes estimate   =    -158.05263158 Ry
     estimated scf accuracy    <       0.01875564 Ry

     iteration #  3     ecut=    25.00 Ry     beta= 0.10
     Davidson diagonalization with overlap
     ethr =  1.56E-04,  avg # of iterations =  1.0

     total cpu time spent up to now is        1.2 secs

     total energy              =    -158.04758755 Ry
     Harris-Foulkes estimate   =    -158.04764190 Ry
     estimated scf accuracy    <       0.00009114 Ry

     iteration #  4     ecut=    25.00 Ry     beta= 0.10
     Davidson diagonalization with overlap
     ethr =  7.60E-07,  avg # of iterations =  4.0

     total cpu time spent up to now is        1.3 secs

     total energy              =    -158.04772286 Ry
     Harris-Foulkes estimate   =    -158.04763928 Ry
     estimated scf accuracy    <       0.00004627 Ry

     iteration #  5     ecut=    25.00 Ry     beta= 0.10
     Davidson diagonalization with overlap
     ethr =  3.86E-07,  avg # of iterations =  1.0

     total cpu time spent up to now is        1.5 secs

     total energy              =    -158.04768097 Ry
     Harris-Foulkes estimate   =    -158.04772433 Ry
     estimated scf accuracy    <       0.00009402 Ry

     iteration #  6     ecut=    25.00 Ry     beta= 0.10
     Davidson diagonalization with overlap
     ethr =  3.86E-07,  avg # of iterations =  1.2

     total cpu time spent up to now is        1.7 secs

     total energy              =    -158.04768420 Ry
     Harris-Foulkes estimate   =    -158.04768437 Ry
     estimated scf accuracy    <       0.00000101 Ry

     iteration #  7     ecut=    25.00 Ry     beta= 0.10
     Davidson diagonalization with overlap
     ethr =  8.38E-09,  avg # of iterations =  3.2

     total cpu time spent up to now is        1.8 secs

     End of self-consistent calculation

          k = 0.1671 0.1671 0.1671 (   922 PWs)   bands (ev):

    -2.4410   3.4619   3.4619   3.4619   9.0371   9.0371   9.0372   9.5405
     9.5405   9.5405

          k = 0.1671 0.1671-0.5012 (   926 PWs)   bands (ev):

    -0.4382  -0.4380   5.2412   5.2413   5.5362   5.5363  11.0201  11.0202
    11.0318  11.0319

          k = 0.1671-0.5012-0.5012 (   944 PWs)   bands (ev):

     1.5370   1.5371   1.5371   1.5372   7.3023   7.3024   7.3024   7.3025
    13.1565  13.1565

          k =-0.5012-0.5012-0.5012 (   912 PWs)   bands (ev):

     3.3711   3.3712   3.3712   3.3712   3.6167   3.6167   3.6167   3.6170
    19.5102  19.5103

     the Fermi energy is     8.6333 ev

!    total energy              =    -158.04768449 Ry
     Harris-Foulkes estimate   =    -158.04768499 Ry
     estimated scf accuracy    <       0.00000046 Ry

     total all-electron energy =     -1942.618807 Ry

     The total energy is the sum of the following terms:

     one-electron contribution =      12.71507280 Ry
     hartree contribution      =       0.02562868 Ry
     xc contribution           =     -10.38603937 Ry
     ewald contribution        =     -21.68233229 Ry
     one-center paw contrib.   =    -138.71714127 Ry
     smearing contrib. (-TS)   =      -0.00287304 Ry

     convergence has been achieved in   7 iterations

     Forces acting on atoms (cartesian axes, Ry/au):

     atom    1 type  1   force =     0.00000000    0.00000000    0.00000000
     atom    2 type  1   force =     0.00000000    0.00000000    0.00000000
     atom    3 type  1   force =     0.00000000    0.00000000    0.00000000
     atom    4 type  1   force =     0.00000000    0.00000000    0.00000000

     Total force =     0.000000     Total SCF correction =     0.000001


     Computing stress (Cartesian axis) and pressure

          total   stress  (Ry/bohr**3)                   (kbar)     P=    5.56
   0.00003780   0.00000000   0.00000000          5.56      0.00      0.00
   0.00000000   0.00003780   0.00000000          0.00      5.56      0.00
   0.00000000   0.00000000   0.00003780          0.00      0.00      5.56


     Writing output data file YsUIJHNFfwYrnKkE.save/

     init_run     :      0.25s CPU      0.26s WALL (       1 calls)
     electrons    :      1.22s CPU      1.23s WALL (       1 calls)
     forces       :      0.02s CPU      0.03s WALL (       1 calls)
     stress       :      0.05s CPU      0.05s WALL (       1 calls)

     Called by init_run:
     wfcinit      :      0.02s CPU      0.02s WALL (       1 calls)
     potinit      :      0.12s CPU      0.13s WALL (       1 calls)
     hinit0       :      0.10s CPU      0.10s WALL (       1 calls)

     Called by electrons:
     c_bands      :      0.26s CPU      0.27s WALL (       8 calls)
     sum_band     :      0.07s CPU      0.07s WALL (       8 calls)
     v_of_rho     :      0.04s CPU      0.04s WALL (       8 calls)
     newd         :      0.03s CPU      0.03s WALL (       8 calls)
     PAW_pot      :      0.93s CPU      0.95s WALL (       8 calls)
     mix_rho      :      0.00s CPU      0.00s WALL (       8 calls)

     Called by c_bands:
     init_us_2    :      0.01s CPU      0.01s WALL (      76 calls)
     cegterg      :      0.25s CPU      0.25s WALL (      32 calls)

     Called by sum_band:
     sum_band:bec :      0.00s CPU      0.00s WALL (      32 calls)
     addusdens    :      0.02s CPU      0.02s WALL (       8 calls)

     Called by *egterg:
     h_psi        :      0.19s CPU      0.19s WALL (     102 calls)
     s_psi        :      0.02s CPU      0.02s WALL (     102 calls)
     g_psi        :      0.00s CPU      0.00s WALL (      66 calls)
     cdiaghg      :      0.01s CPU      0.01s WALL (      94 calls)

     Called by h_psi:
     h_psi:pot    :      0.19s CPU      0.19s WALL (     102 calls)
     h_psi:calbec :      0.03s CPU      0.03s WALL (     102 calls)
     vloc_psi     :      0.14s CPU      0.14s WALL (     102 calls)
     add_vuspsi   :      0.02s CPU      0.02s WALL (     102 calls)

     General routines
     calbec       :      0.04s CPU      0.04s WALL (     154 calls)
     fft          :      0.01s CPU      0.01s WALL (     114 calls)
     ffts         :      0.00s CPU      0.00s WALL (       8 calls)
     fftw         :      0.15s CPU      0.15s WALL (    2034 calls)

     Parallel routines

     PWSCF        :      1.82s CPU      1.92s WALL


   This run was terminated on:   2:59:34   3Jul2020            

=------------------------------------------------------------------------------=
   JOB DONE.
=------------------------------------------------------------------------------=
