--------------------------------------------------------------------------
WARNING: There was an error initializing an OpenFabrics device.

  Local host:   bear-pg0211u06a
  Local device: mlx5_0
--------------------------------------------------------------------------

     Program PWSCF v.6.3 starts on 15Jun2020 at 20:49: 0 

     This program is part of the open-source Quantum ESPRESSO suite
     for quantum simulation of materials; please cite
         "P. Giannozzi et al., J. Phys.:Condens. Matter 21 395502 (2009);
         "P. Giannozzi et al., J. Phys.:Condens. Matter 29 465901 (2017);
          URL http://www.quantum-espresso.org", 
     in publications or presentations arising from this work. More details at
     http://www.quantum-espresso.org/quote

     Parallel version (MPI & OpenMP), running on      20 processor cores
     Number of MPI processes:                20
     Threads/MPI process:                     1

     MPI processes distributed on     1 nodes
     R & G space division:  proc/nbgrp/npool/nimage =      20
     Reading input from wd/eos/eos_004.in
Warning: card &IONS ignored
Warning: card ION_DYNAMICS = 'BFGS', ignored
Warning: card / ignored
Warning: card &CELL ignored
Warning: card CELL_DYNAMICS = 'BFGS', ignored
Warning: card CELL_FACTOR = 2.0, ignored
Warning: card PRESS = 0.0, ignored
Warning: card / ignored

     Current dimensions of program PWSCF are:
     Max number of different atomic species (ntypx) = 10
     Max number of k-points (npk) =  40000
     Max angular momentum in pseudopotentials (lmaxx) =  3
     Message from routine read_upf::
     Pseudo file /rds/homes/b/bxp912/pp/Cr.pbe-spn-kjpaw_psl.1.0.0.UPF has been successfully fixed on the fly.
To avoid this message in the future you can permanently fix 
 your pseudo files following instructions given in: 
https://gitlab.com/QEF/q-e/blob/master/upftools/how_to_fix_upf.md
               file Cr.pbe-spn-kjpaw_psl.1.0.0.UPF: wavefunction(s)  3S 3P 3D renormalized
     Message from routine read_upf::
     Pseudo file /rds/homes/b/bxp912/pp/Cr.pbe-spn-kjpaw_psl.1.0.0.UPF has been successfully fixed on the fly.
To avoid this message in the future you can permanently fix 
 your pseudo files following instructions given in: 
https://gitlab.com/QEF/q-e/blob/master/upftools/how_to_fix_upf.md
               file Cr.pbe-spn-kjpaw_psl.1.0.0.UPF: wavefunction(s)  3S 3P 3D renormalized

     Subspace diagonalization in iterative solution of the eigenvalue problem:
     a serial algorithm will be used

     Found symmetry operation: I + (  0.0000  0.0000  0.5000)
     This is a supercell, fractional translations are disabled
 
     Parallelization info
     --------------------
     sticks:   dense  smooth     PW     G-vecs:    dense   smooth      PW
     Min         193     127     35                 9011     4855     719
     Max         194     129     36                 9014     4858     722
     Sum        3861    2561    717               180251    97137   14411
 


     bravais-lattice index     =            0
     lattice parameter (alat)  =      10.7442  a.u.
     unit-cell volume          =    1198.2364 (a.u.)^3
     number of atoms/cell      =           16
     number of atomic types    =            2
     number of electrons       =       224.00
     number of Kohn-Sham states=          134
     kinetic-energy cutoff     =      71.0000  Ry
     charge density cutoff     =     430.0000  Ry
     convergence threshold     =      1.0E-06
     mixing beta               =       0.1000
     number of iterations used =           10  plain     mixing
     Exchange-correlation      = SLA PW PBX PBC ( 1  4  3  4 0 0)

     celldm(1)=  10.744168  celldm(2)=   0.000000  celldm(3)=   0.000000
     celldm(4)=   0.000000  celldm(5)=   0.000000  celldm(6)=   0.000000

     crystal axes: (cart. coord. in units of alat)
               a(1) = (   0.988571   0.000000   0.000000 )  
               a(2) = (   0.000000   0.988571   0.000000 )  
               a(3) = (   0.000000   0.000000   0.988571 )  

     reciprocal axes: (cart. coord. in units 2 pi/alat)
               b(1) = (  1.011561  0.000000  0.000000 )  
               b(2) = (  0.000000  1.011561  0.000000 )  
               b(3) = (  0.000000  0.000000  1.011561 )  


     PseudoPot. # 1 for Cr read from file:
     /rds/homes/b/bxp912/pp/Cr.pbe-spn-kjpaw_psl.1.0.0.UPF
     MD5 check sum: cb1c17117da000fe5e03c4f1a6841d9c
     Pseudo is Projector augmented-wave + core cor, Zval = 14.0
     Generated using "atomic" code by A. Dal Corso v.5.1
     Shape of augmentation charge: PSQ
     Using radial grid of 1183 points,  6 beta functions with: 
                l(1) =   0
                l(2) =   0
                l(3) =   1
                l(4) =   1
                l(5) =   2
                l(6) =   2
     Q(r) pseudized with 0 coefficients 


     PseudoPot. # 2 for Cr read from file:
     /rds/homes/b/bxp912/pp/Cr.pbe-spn-kjpaw_psl.1.0.0.UPF
     MD5 check sum: cb1c17117da000fe5e03c4f1a6841d9c
     Pseudo is Projector augmented-wave + core cor, Zval = 14.0
     Generated using "atomic" code by A. Dal Corso v.5.1
     Shape of augmentation charge: PSQ
     Using radial grid of 1183 points,  6 beta functions with: 
                l(1) =   0
                l(2) =   0
                l(3) =   1
                l(4) =   1
                l(5) =   2
                l(6) =   2
     Q(r) pseudized with 0 coefficients 


     atomic species   valence    mass     pseudopotential
        Cr1           14.00    55.84500     Cr( 1.00)
        Cr2           14.00    55.84500     Cr( 1.00)

     Starting magnetic structure 
     atomic species   magnetization
        Cr1          0.300
        Cr2         -0.300

     48 Sym. Ops., with inversion, found



   Cartesian axes

     site n.     atom                  positions (alat units)
         1           Cr1 tau(   1) = (   0.0000000   0.0000000   0.0000000  )
         2           Cr2 tau(   2) = (   0.2471429   0.2471429   0.2471426  )
         3           Cr1 tau(   3) = (   0.0000000   0.0000000   0.4942852  )
         4           Cr2 tau(   4) = (   0.2471429   0.2471429   0.7414288  )
         5           Cr1 tau(   5) = (   0.0000000   0.4942859   0.0000000  )
         6           Cr2 tau(   6) = (   0.2471429   0.7414288   0.2471426  )
         7           Cr1 tau(   7) = (   0.0000000   0.4942859   0.4942852  )
         8           Cr2 tau(   8) = (   0.2471429   0.7414288   0.7414288  )
         9           Cr1 tau(   9) = (   0.4942859   0.0000000   0.0000000  )
        10           Cr2 tau(  10) = (   0.7414288   0.2471429   0.2471426  )
        11           Cr1 tau(  11) = (   0.4942859   0.0000000   0.4942852  )
        12           Cr2 tau(  12) = (   0.7414288   0.2471429   0.7414288  )
        13           Cr1 tau(  13) = (   0.4942859   0.4942859   0.0000000  )
        14           Cr2 tau(  14) = (   0.7414288   0.7414288   0.2471426  )
        15           Cr1 tau(  15) = (   0.4942859   0.4942859   0.4942852  )
        16           Cr2 tau(  16) = (   0.7414288   0.7414288   0.7414288  )

     number of k points=    35  Marzari-Vanderbilt smearing, width (Ry)=  0.0400
                       cart. coord. in units 2pi/alat
        k(    1) = (   0.0561978   0.0561978   0.0561978), wk =   0.0109739
        k(    2) = (   0.0561978   0.0561978   0.1685934), wk =   0.0329218
        k(    3) = (   0.0561978   0.0561978   0.2809891), wk =   0.0329218
        k(    4) = (   0.0561978   0.0561978   0.3933847), wk =   0.0329218
        k(    5) = (   0.0561978   0.0561978  -0.5057803), wk =   0.0164609
        k(    6) = (   0.0561978   0.1685934   0.1685934), wk =   0.0329218
        k(    7) = (   0.0561978   0.1685934   0.2809891), wk =   0.0658436
        k(    8) = (   0.0561978   0.1685934   0.3933847), wk =   0.0658436
        k(    9) = (   0.0561978   0.1685934  -0.5057803), wk =   0.0329218
        k(   10) = (   0.0561978   0.2809891   0.2809891), wk =   0.0329218
        k(   11) = (   0.0561978   0.2809891   0.3933847), wk =   0.0658436
        k(   12) = (   0.0561978   0.2809891  -0.5057803), wk =   0.0329218
        k(   13) = (   0.0561978   0.3933847   0.3933847), wk =   0.0329218
        k(   14) = (   0.0561978   0.3933847  -0.5057803), wk =   0.0329218
        k(   15) = (   0.0561978  -0.5057803  -0.5057803), wk =   0.0082305
        k(   16) = (   0.1685934   0.1685934   0.1685934), wk =   0.0109739
        k(   17) = (   0.1685934   0.1685934   0.2809891), wk =   0.0329218
        k(   18) = (   0.1685934   0.1685934   0.3933847), wk =   0.0329218
        k(   19) = (   0.1685934   0.1685934  -0.5057803), wk =   0.0164609
        k(   20) = (   0.1685934   0.2809891   0.2809891), wk =   0.0329218
        k(   21) = (   0.1685934   0.2809891   0.3933847), wk =   0.0658436
        k(   22) = (   0.1685934   0.2809891  -0.5057803), wk =   0.0329218
        k(   23) = (   0.1685934   0.3933847   0.3933847), wk =   0.0329218
        k(   24) = (   0.1685934   0.3933847  -0.5057803), wk =   0.0329218
        k(   25) = (   0.1685934  -0.5057803  -0.5057803), wk =   0.0082305
        k(   26) = (   0.2809891   0.2809891   0.2809891), wk =   0.0109739
        k(   27) = (   0.2809891   0.2809891   0.3933847), wk =   0.0329218
        k(   28) = (   0.2809891   0.2809891  -0.5057803), wk =   0.0164609
        k(   29) = (   0.2809891   0.3933847   0.3933847), wk =   0.0329218
        k(   30) = (   0.2809891   0.3933847  -0.5057803), wk =   0.0329218
        k(   31) = (   0.2809891  -0.5057803  -0.5057803), wk =   0.0082305
        k(   32) = (   0.3933847   0.3933847   0.3933847), wk =   0.0109739
        k(   33) = (   0.3933847   0.3933847  -0.5057803), wk =   0.0164609
        k(   34) = (   0.3933847  -0.5057803  -0.5057803), wk =   0.0082305
        k(   35) = (  -0.5057803  -0.5057803  -0.5057803), wk =   0.0013717

     Dense  grid:   180251 G-vectors     FFT dimensions: (  72,  72,  72)

     Smooth grid:    97137 G-vectors     FFT dimensions: (  60,  60,  60)

     Estimated max dynamical RAM per process >     138.40 MB

     Estimated total dynamical RAM >       2.70 GB
     Generating pointlists ...
     new r_m :   0.1766 (alat units)  1.8972 (a.u.) for type    1
     new r_m :   0.1766 (alat units)  1.8972 (a.u.) for type    2

     Check: negative/imaginary core charge=   -0.000009    0.000000

     Initial potential from superposition of free atoms

     starting charge  223.98764, renormalised to  224.00000
     Starting wfcs are  160 randomized atomic wfcs
     Checking if some PAW data can be deallocated... 

     total cpu time spent up to now is        9.2 secs

     Self-consistent Calculation

     iteration #  1     ecut=    71.00 Ry     beta= 0.10
     Davidson diagonalization with overlap
     ethr =  1.00E-02,  avg # of iterations =  3.1

     Threshold (ethr) on eigenvalues was too large:
     Diagonalizing with lowered threshold

     Davidson diagonalization with overlap
     ethr =  8.25E-04,  avg # of iterations =  3.4

     total cpu time spent up to now is       56.0 secs

     total energy              =   -3970.48988447 Ry
     Harris-Foulkes estimate   =   -3970.39456286 Ry
     estimated scf accuracy    <       1.91317792 Ry

     total magnetization       =    -0.00 Bohr mag/cell
     absolute magnetization    =    37.68 Bohr mag/cell

     iteration #  2     ecut=    71.00 Ry     beta= 0.10
     Davidson diagonalization with overlap
     ethr =  8.54E-04,  avg # of iterations =  1.0

     total cpu time spent up to now is       71.8 secs

     total energy              =   -3970.94171384 Ry
     Harris-Foulkes estimate   =   -3970.50125742 Ry
     estimated scf accuracy    <       1.45123113 Ry

     total magnetization       =     0.00 Bohr mag/cell
     absolute magnetization    =    37.65 Bohr mag/cell

     iteration #  3     ecut=    71.00 Ry     beta= 0.10
     Davidson diagonalization with overlap
     ethr =  6.48E-04,  avg # of iterations =  3.0

     total cpu time spent up to now is       97.2 secs

     total energy              =   -3971.21934360 Ry
     Harris-Foulkes estimate   =   -3971.16761016 Ry
     estimated scf accuracy    <       0.34786495 Ry

     total magnetization       =    -0.00 Bohr mag/cell
     absolute magnetization    =    35.93 Bohr mag/cell

     iteration #  4     ecut=    71.00 Ry     beta= 0.10
     Davidson diagonalization with overlap
     ethr =  1.55E-04,  avg # of iterations =  2.1

     total cpu time spent up to now is      115.8 secs

     total energy              =   -3971.22230572 Ry
     Harris-Foulkes estimate   =   -3971.23141656 Ry
     estimated scf accuracy    <       0.52349977 Ry

     total magnetization       =    -0.00 Bohr mag/cell
     absolute magnetization    =    36.37 Bohr mag/cell

     iteration #  5     ecut=    71.00 Ry     beta= 0.10
     Davidson diagonalization with overlap
     ethr =  1.55E-04,  avg # of iterations =  5.4

     total cpu time spent up to now is      149.7 secs

     total energy              =   -3971.37393199 Ry
     Harris-Foulkes estimate   =   -3971.36751785 Ry
     estimated scf accuracy    <       0.05114432 Ry

     total magnetization       =     0.00 Bohr mag/cell
     absolute magnetization    =    28.94 Bohr mag/cell

     iteration #  6     ecut=    71.00 Ry     beta= 0.10
     Davidson diagonalization with overlap
     ethr =  2.28E-05,  avg # of iterations =  3.2

     total cpu time spent up to now is      171.2 secs

     total energy              =   -3971.36058505 Ry
     Harris-Foulkes estimate   =   -3971.37525956 Ry
     estimated scf accuracy    <       0.04578748 Ry

     total magnetization       =     0.00 Bohr mag/cell
     absolute magnetization    =    28.68 Bohr mag/cell

     iteration #  7     ecut=    71.00 Ry     beta= 0.10
     Davidson diagonalization with overlap
     ethr =  2.04E-05,  avg # of iterations =  1.0

     total cpu time spent up to now is      187.0 secs

     total energy              =   -3971.39210377 Ry
     Harris-Foulkes estimate   =   -3971.36170289 Ry
     estimated scf accuracy    <       0.06223255 Ry

     total magnetization       =     0.00 Bohr mag/cell
     absolute magnetization    =    29.25 Bohr mag/cell

     iteration #  8     ecut=    71.00 Ry     beta= 0.10
     Davidson diagonalization with overlap
     ethr =  2.04E-05,  avg # of iterations =  5.7

     total cpu time spent up to now is      226.6 secs

     total energy              =   -3971.46027902 Ry
     Harris-Foulkes estimate   =   -3971.45415230 Ry
     estimated scf accuracy    <       0.02166740 Ry

     total magnetization       =    -0.00 Bohr mag/cell
     absolute magnetization    =    23.06 Bohr mag/cell

     iteration #  9     ecut=    71.00 Ry     beta= 0.10
     Davidson diagonalization with overlap
     ethr =  9.67E-06,  avg # of iterations =  1.4

     total cpu time spent up to now is      243.2 secs

     total energy              =   -3971.46508685 Ry
     Harris-Foulkes estimate   =   -3971.46096786 Ry
     estimated scf accuracy    <       0.01434304 Ry

     total magnetization       =    -0.00 Bohr mag/cell
     absolute magnetization    =    22.59 Bohr mag/cell

     iteration # 10     ecut=    71.00 Ry     beta= 0.10
     Davidson diagonalization with overlap
     ethr =  6.40E-06,  avg # of iterations =  3.1

     total cpu time spent up to now is      264.9 secs

     total energy              =   -3971.46852260 Ry
     Harris-Foulkes estimate   =   -3971.46583911 Ry
     estimated scf accuracy    <       0.01402823 Ry

     total magnetization       =    -0.00 Bohr mag/cell
     absolute magnetization    =    22.01 Bohr mag/cell

     iteration # 11     ecut=    71.00 Ry     beta= 0.10
     Davidson diagonalization with overlap
     ethr =  6.26E-06,  avg # of iterations =  3.9

     total cpu time spent up to now is      288.7 secs

     total energy              =   -3971.47782098 Ry
     Harris-Foulkes estimate   =   -3971.46929027 Ry
     estimated scf accuracy    <       0.01019621 Ry

     total magnetization       =    -0.01 Bohr mag/cell
     absolute magnetization    =    21.68 Bohr mag/cell

     iteration # 12     ecut=    71.00 Ry     beta= 0.10
     Davidson diagonalization with overlap
     ethr =  4.55E-06,  avg # of iterations =  5.4

     total cpu time spent up to now is      326.6 secs

     total energy              =   -3971.49240227 Ry
     Harris-Foulkes estimate   =   -3971.48725911 Ry
     estimated scf accuracy    <       0.00599688 Ry

     total magnetization       =    -0.01 Bohr mag/cell
     absolute magnetization    =    19.19 Bohr mag/cell

     iteration # 13     ecut=    71.00 Ry     beta= 0.10
     Davidson diagonalization with overlap
     ethr =  2.68E-06,  avg # of iterations =  5.2

     total cpu time spent up to now is      361.4 secs

     total energy              =   -3971.49868748 Ry
     Harris-Foulkes estimate   =   -3971.49886959 Ry
     estimated scf accuracy    <       0.00491842 Ry

     total magnetization       =     0.00 Bohr mag/cell
     absolute magnetization    =    17.03 Bohr mag/cell

     iteration # 14     ecut=    71.00 Ry     beta= 0.10
     Davidson diagonalization with overlap
     ethr =  2.20E-06,  avg # of iterations =  1.0

     total cpu time spent up to now is      377.1 secs

     total energy              =   -3971.49963584 Ry
     Harris-Foulkes estimate   =   -3971.49873256 Ry
     estimated scf accuracy    <       0.00561770 Ry

     total magnetization       =     0.00 Bohr mag/cell
     absolute magnetization    =    17.11 Bohr mag/cell

     iteration # 15     ecut=    71.00 Ry     beta= 0.10
     Davidson diagonalization with overlap
     ethr =  2.20E-06,  avg # of iterations =  1.0

     total cpu time spent up to now is      392.8 secs

     total energy              =   -3971.49464235 Ry
     Harris-Foulkes estimate   =   -3971.49979264 Ry
     estimated scf accuracy    <       0.00357561 Ry

     total magnetization       =    -0.00 Bohr mag/cell
     absolute magnetization    =    16.94 Bohr mag/cell

     iteration # 16     ecut=    71.00 Ry     beta= 0.10
     Davidson diagonalization with overlap
     ethr =  1.60E-06,  avg # of iterations =  5.7

     total cpu time spent up to now is      439.8 secs

     total energy              =   -3971.51207344 Ry
     Harris-Foulkes estimate   =   -3971.51132025 Ry
     estimated scf accuracy    <       0.00162027 Ry

     total magnetization       =    -0.00 Bohr mag/cell
     absolute magnetization    =    13.47 Bohr mag/cell

     iteration # 17     ecut=    71.00 Ry     beta= 0.10
     Davidson diagonalization with overlap
     ethr =  7.23E-07,  avg # of iterations =  4.1

     total cpu time spent up to now is      469.0 secs

     total energy              =   -3971.49503028 Ry
     Harris-Foulkes estimate   =   -3971.51319875 Ry
     estimated scf accuracy    <       0.00092130 Ry

     total magnetization       =     0.00 Bohr mag/cell
     absolute magnetization    =    12.54 Bohr mag/cell

     iteration # 18     ecut=    71.00 Ry     beta= 0.10
     Davidson diagonalization with overlap
     ethr =  4.11E-07,  avg # of iterations =  5.6

     total cpu time spent up to now is      519.1 secs

     total energy              =   -3971.49905405 Ry
     Harris-Foulkes estimate   =   -3971.50676768 Ry
     estimated scf accuracy    <       0.00668930 Ry

     total magnetization       =    -0.01 Bohr mag/cell
     absolute magnetization    =    15.51 Bohr mag/cell

     iteration # 19     ecut=    71.00 Ry     beta= 0.10
     Davidson diagonalization with overlap
     ethr =  4.11E-07,  avg # of iterations =  5.9

     total cpu time spent up to now is      572.4 secs

     total energy              =   -3971.51446401 Ry
     Harris-Foulkes estimate   =   -3971.51435433 Ry
     estimated scf accuracy    <       0.00108095 Ry

     total magnetization       =     0.00 Bohr mag/cell
     absolute magnetization    =    12.08 Bohr mag/cell

     iteration # 20     ecut=    71.00 Ry     beta= 0.10
     Davidson diagonalization with overlap
     ethr =  4.11E-07,  avg # of iterations =  3.7

     total cpu time spent up to now is      599.9 secs

     total energy              =   -3971.49251894 Ry
     Harris-Foulkes estimate   =   -3971.51471142 Ry
     estimated scf accuracy    <       0.00327547 Ry

     total magnetization       =    -0.01 Bohr mag/cell
     absolute magnetization    =    12.24 Bohr mag/cell

     iteration # 21     ecut=    71.00 Ry     beta= 0.10
     Davidson diagonalization with overlap
     ethr =  4.11E-07,  avg # of iterations =  5.9

     total cpu time spent up to now is      652.2 secs

     total energy              =   -3971.50443688 Ry
     Harris-Foulkes estimate   =   -3971.51972923 Ry
     estimated scf accuracy    <       0.00022325 Ry

     total magnetization       =     0.00 Bohr mag/cell
     absolute magnetization    =     7.54 Bohr mag/cell

     iteration # 22     ecut=    71.00 Ry     beta= 0.10
     Davidson diagonalization with overlap
     ethr =  9.97E-08,  avg # of iterations =  6.0

     total cpu time spent up to now is      705.1 secs

     total energy              =   -3971.52001559 Ry
     Harris-Foulkes estimate   =   -3971.52134912 Ry
     estimated scf accuracy    <       0.00008292 Ry

     total magnetization       =     0.00 Bohr mag/cell
     absolute magnetization    =     3.79 Bohr mag/cell

     iteration # 23     ecut=    71.00 Ry     beta= 0.10
     Davidson diagonalization with overlap
     ethr =  3.70E-08,  avg # of iterations =  5.6

     total cpu time spent up to now is      749.4 secs

     total energy              =   -3971.51774867 Ry
     Harris-Foulkes estimate   =   -3971.52108912 Ry
     estimated scf accuracy    <       0.00015957 Ry

     total magnetization       =     0.00 Bohr mag/cell
     absolute magnetization    =     4.73 Bohr mag/cell

     iteration # 24     ecut=    71.00 Ry     beta= 0.10
     Davidson diagonalization with overlap
     ethr =  3.70E-08,  avg # of iterations =  5.6

     total cpu time spent up to now is      800.9 secs

     total energy              =   -3971.51482422 Ry
     Harris-Foulkes estimate   =   -3971.52047844 Ry
     estimated scf accuracy    <       0.00009458 Ry

     total magnetization       =     0.00 Bohr mag/cell
     absolute magnetization    =     6.23 Bohr mag/cell

     iteration # 25     ecut=    71.00 Ry     beta= 0.10
     Davidson diagonalization with overlap
     ethr =  3.70E-08,  avg # of iterations =  6.1

     total cpu time spent up to now is      855.3 secs

     total energy              =   -3971.52124046 Ry
     Harris-Foulkes estimate   =   -3971.52132963 Ry
     estimated scf accuracy    <       0.00004148 Ry

     total magnetization       =     0.00 Bohr mag/cell
     absolute magnetization    =     3.91 Bohr mag/cell

     iteration # 26     ecut=    71.00 Ry     beta= 0.10
     Davidson diagonalization with overlap
     ethr =  1.85E-08,  avg # of iterations =  5.2

     total cpu time spent up to now is      892.3 secs

     total energy              =   -3971.52016523 Ry
     Harris-Foulkes estimate   =   -3971.52142152 Ry
     estimated scf accuracy    <       0.00003134 Ry

     total magnetization       =    -0.00 Bohr mag/cell
     absolute magnetization    =     3.52 Bohr mag/cell

     iteration # 27     ecut=    71.00 Ry     beta= 0.10
     Davidson diagonalization with overlap
     ethr =  1.40E-08,  avg # of iterations =  6.1

     total cpu time spent up to now is      948.6 secs

     total energy              =   -3971.51910348 Ry
     Harris-Foulkes estimate   =   -3971.52162256 Ry
     estimated scf accuracy    <       0.00002393 Ry

     total magnetization       =    -0.00 Bohr mag/cell
     absolute magnetization    =     2.42 Bohr mag/cell

     iteration # 28     ecut=    71.00 Ry     beta= 0.10
     Davidson diagonalization with overlap
     ethr =  1.07E-08,  avg # of iterations =  6.2

     total cpu time spent up to now is     1003.1 secs

     total energy              =   -3971.52172912 Ry
     Harris-Foulkes estimate   =   -3971.52176250 Ry
     estimated scf accuracy    <       0.00000498 Ry

     total magnetization       =    -0.00 Bohr mag/cell
     absolute magnetization    =     0.92 Bohr mag/cell

     iteration # 29     ecut=    71.00 Ry     beta= 0.10
     Davidson diagonalization with overlap
     ethr =  2.22E-09,  avg # of iterations =  5.6

     total cpu time spent up to now is     1043.7 secs

     total energy              =   -3971.52165597 Ry
     Harris-Foulkes estimate   =   -3971.52177173 Ry
     estimated scf accuracy    <       0.00000166 Ry

     total magnetization       =    -0.00 Bohr mag/cell
     absolute magnetization    =     0.74 Bohr mag/cell

     iteration # 30     ecut=    71.00 Ry     beta= 0.10
     Davidson diagonalization with overlap
     ethr =  7.41E-10,  avg # of iterations =  5.7

     total cpu time spent up to now is     1097.1 secs

     total energy              =   -3971.52157123 Ry
     Harris-Foulkes estimate   =   -3971.52175982 Ry
     estimated scf accuracy    <       0.00000286 Ry

     total magnetization       =    -0.00 Bohr mag/cell
     absolute magnetization    =     1.03 Bohr mag/cell

     iteration # 31     ecut=    71.00 Ry     beta= 0.10
     Davidson diagonalization with overlap
     ethr =  7.41E-10,  avg # of iterations =  6.1
 
     Magnetic moment per site:
     atom:    1    charge:   12.1924    magn:    0.0372    constr:    0.0000
     atom:    2    charge:   12.1924    magn:   -0.0358    constr:    0.0000
     atom:    3    charge:   12.1924    magn:    0.0360    constr:    0.0000
     atom:    4    charge:   12.1924    magn:   -0.0358    constr:    0.0000
     atom:    5    charge:   12.1924    magn:    0.0360    constr:    0.0000
     atom:    6    charge:   12.1924    magn:   -0.0358    constr:    0.0000
     atom:    7    charge:   12.1924    magn:    0.0353    constr:    0.0000
     atom:    8    charge:   12.1924    magn:   -0.0358    constr:    0.0000
     atom:    9    charge:   12.1924    magn:    0.0360    constr:    0.0000
     atom:   10    charge:   12.1924    magn:   -0.0358    constr:    0.0000
     atom:   11    charge:   12.1924    magn:    0.0353    constr:    0.0000
     atom:   12    charge:   12.1924    magn:   -0.0358    constr:    0.0000
     atom:   13    charge:   12.1924    magn:    0.0353    constr:    0.0000
     atom:   14    charge:   12.1924    magn:   -0.0358    constr:    0.0000
     atom:   15    charge:   12.1924    magn:    0.0350    constr:    0.0000
     atom:   16    charge:   12.1924    magn:   -0.0358    constr:    0.0000

     total cpu time spent up to now is     1152.3 secs

     End of self-consistent calculation

 ------ SPIN UP ------------


          k = 0.0562 0.0562 0.0562 ( 12071 PWs)   bands (ev):

   -51.4606 -51.2653 -51.2651 -51.2651 -51.2382 -51.2379 -51.2379 -51.2186
   -51.2120 -51.2120 -51.2120 -51.1985 -51.1985 -51.1985 -51.1792 -51.0516
   -23.1948 -23.1948 -23.1946 -23.1897 -23.1896 -23.1896 -22.8670 -22.8670
   -22.8557 -22.7615 -22.7587 -22.7586 -22.7586 -22.7188 -22.7188 -22.6897
   -22.6896 -22.6896 -22.6206 -22.6206 -22.5777 -22.5354 -22.5354 -22.5352
   -22.5145 -22.5143 -22.5143 -22.4990 -22.4990 -22.4990 -22.4617 -22.4616
   -22.4615 -22.4600 -22.4597 -22.4597 -22.4449 -22.4447 -22.4447 -22.1657
   -22.1656 -22.1656 -22.1638 -22.1603 -22.1603 -22.1602 -22.1515 -22.1515
    12.4748  15.8248  15.8248  15.8248  15.8459  15.8460  15.8460  15.9105
    15.9105  16.1935  16.1937  16.1937  16.6132  16.6133  16.6133  17.8412
    17.8731  17.8731  17.8732  17.8898  17.8899  17.8899  17.9528  17.9528
    18.1387  18.1387  18.2051  18.2648  18.2648  18.2649  18.7475  18.7475
    18.7475  19.4984  19.4984  19.5569  19.8632  19.8634  19.8634  19.9858
    19.9858  19.9859  20.0958  20.0958  20.0958  20.2118  20.2118  20.2119
    21.1419  21.1419  21.1419  21.2441  21.2442  21.2445  21.4524  21.4525
    21.4525  21.4997  21.4998  21.4998  21.6707  21.6707  21.6707  21.6796
    21.6796  21.7366  21.7366  21.7366  22.0576  22.0576

          k = 0.0562 0.0562 0.1686 ( 12089 PWs)   bands (ev):

   -51.4534 -51.2962 -51.2636 -51.2635 -51.2398 -51.2396 -51.2369 -51.2198
   -51.2111 -51.2111 -51.1992 -51.1992 -51.1973 -51.1831 -51.1804 -51.0566
   -23.1800 -23.1799 -23.1787 -23.1741 -23.1651 -23.1650 -22.8745 -22.8556
   -22.8382 -22.8269 -22.8097 -22.8097 -22.8058 -22.8043 -22.7475 -22.7474
   -22.6917 -22.6286 -22.6218 -22.5942 -22.5713 -22.5350 -22.5349 -22.5345
   -22.5112 -22.5098 -22.5019 -22.5019 -22.4719 -22.4649 -22.4648 -22.4621
   -22.4620 -22.4597 -22.4596 -22.4040 -22.4014 -22.4013 -22.3878 -22.1910
   -22.1821 -22.1820 -22.1800 -22.1756 -22.1656 -22.1655 -22.1614 -22.1560
    12.6157  15.6380  15.8606  15.8606  15.9235  15.9235  15.9405  15.9606
    15.9837  15.9957  16.2318  16.2319  16.6422  16.6422  16.8482  17.7040
    17.7961  17.8302  17.8533  17.8666  17.8685  17.9335  17.9336  17.9837
    17.9838  18.0027  18.2281  18.2282  18.3807  18.3872  18.6492  18.6493
    19.2017  19.4645  19.4902  19.6013  19.6014  19.6325  19.6858  19.8183
    19.8184  19.8580  20.1936  20.1937  20.3418  20.3419  20.3795  20.5035
    20.6545  20.6546  20.8437  20.9553  20.9554  20.9664  21.1033  21.4293
    21.4294  21.5788  21.5824  21.5824  21.6861  21.6861  21.6957  21.7199
    21.7272  21.7316  21.7317  21.7610  22.0610  22.0784

          k = 0.0562 0.0562 0.2810 ( 12109 PWs)   bands (ev):

   -51.4393 -51.3304 -51.2607 -51.2605 -51.2430 -51.2428 -51.2347 -51.2220
   -51.2095 -51.2095 -51.2007 -51.2007 -51.1952 -51.1826 -51.1528 -51.0667
   -23.1470 -23.1466 -23.1465 -23.1435 -23.1219 -23.1218 -22.9017 -22.8913
   -22.8825 -22.8824 -22.8785 -22.8391 -22.8331 -22.8264 -22.8263 -22.8126
   -22.6642 -22.6534 -22.6333 -22.6143 -22.5396 -22.5335 -22.5314 -22.5314
   -22.5069 -22.5069 -22.4938 -22.4618 -22.4617 -22.4597 -22.4595 -22.4511
   -22.4360 -22.4034 -22.4033 -22.3472 -22.3456 -22.3455 -22.3322 -22.2378
   -22.2084 -22.2083 -22.2080 -22.2056 -22.1818 -22.1817 -22.1812 -22.1728
    12.8918  15.0136  15.9445  15.9445  16.0533  16.0533  16.1289  16.1550
    16.1628  16.1807  16.2706  16.2707  16.6459  16.6460  16.8938  17.3586
    17.5228  17.5974  17.7614  17.8190  17.8318  17.8373  18.0688  18.0689
    18.1517  18.1518  18.2574  18.2575  18.6013  18.6013  18.6817  18.7023
    19.2475  19.2476  19.4403  19.4422  19.4422  19.4671  19.4779  19.5588
    19.7437  19.9647  20.0187  20.0188  20.2626  20.2627  20.5091  20.5091
    20.5101  20.5585  20.5604  20.5605  20.5616  20.7200  20.8560  21.3818
    21.4446  21.4446  21.5758  21.5759  21.7434  21.7654  21.7976  21.8105
    21.8105  22.0261  22.0497  22.0612  22.0672  22.0976

          k = 0.0562 0.0562 0.3934 ( 12113 PWs)   bands (ev):

   -51.4190 -51.3633 -51.2566 -51.2565 -51.2472 -51.2470 -51.2317 -51.2250
   -51.2074 -51.2074 -51.2027 -51.2027 -51.1922 -51.1855 -51.1252 -51.0817
   -23.1007 -23.0989 -23.0963 -23.0962 -23.0624 -23.0623 -22.9751 -22.9707
   -22.9596 -22.9595 -22.9101 -22.9100 -22.8792 -22.8620 -22.8005 -22.7789
   -22.7090 -22.6875 -22.6322 -22.5878 -22.5634 -22.5262 -22.5262 -22.5230
   -22.5132 -22.5132 -22.4612 -22.4610 -22.4598 -22.4597 -22.4572 -22.3740
   -22.3655 -22.3436 -22.3435 -22.3004 -22.2949 -22.2920 -22.2919 -22.2812
   -22.2497 -22.2491 -22.2445 -22.2444 -22.2107 -22.2084 -22.2083 -22.2001
    13.2918  14.3837  16.0600  16.0601  16.2224  16.2224  16.2583  16.2584
    16.3437  16.3658  16.4728  16.4873  16.5647  16.5647  16.7889  16.9648
    17.2145  17.2382  17.7380  17.7640  17.7799  17.7910  18.2732  18.2732
    18.3867  18.3868  18.4545  18.4546  18.6927  18.6927  18.9290  18.9291
    19.0615  19.0677  19.0677  19.0819  19.4094  19.4095  19.4293  19.4687
    19.4790  19.4848  19.6210  19.6211  19.8935  20.0057  20.0129  20.3063
    20.3406  20.8042  20.8042  20.8444  20.8444  21.0981  21.1098  21.2584
    21.2633  21.2633  21.3954  21.3955  21.8080  21.8256  21.9077  21.9577
    21.9746  21.9772  22.0746  22.0901  22.1210  22.1243

          k = 0.0562 0.0562-0.5058 ( 12112 PWs)   bands (ev):

   -51.3936 -51.3931 -51.2523 -51.2521 -51.2516 -51.2514 -51.2287 -51.2280
   -51.2051 -51.2051 -51.2048 -51.2048 -51.1890 -51.1887 -51.1015 -51.1011
   -23.0422 -23.0417 -23.0415 -23.0411 -23.0326 -23.0326 -23.0325 -23.0325
   -22.9905 -22.9904 -22.9904 -22.9903 -22.8748 -22.8745 -22.7588 -22.7583
   -22.7369 -22.7365 -22.5979 -22.5973 -22.5560 -22.5557 -22.5201 -22.5201
   -22.5195 -22.5195 -22.4605 -22.4604 -22.4602 -22.4601 -22.3756 -22.3753
   -22.3065 -22.3061 -22.3025 -22.3021 -22.2900 -22.2899 -22.2899 -22.2898
   -22.2491 -22.2487 -22.2456 -22.2455 -22.2455 -22.2454 -22.2369 -22.2366
    13.7975  13.7978  16.1780  16.1781  16.1782  16.1782  16.4065  16.4065
    16.4066  16.4066  16.5931  16.5933  16.6239  16.6242  16.8397  16.8401
    16.8516  16.8519  17.7482  17.7486  17.7613  17.7616  18.5332  18.5332
    18.5333  18.5333  18.6505  18.6506  18.6506  18.6507  18.9140  18.9141
    18.9142  18.9143  19.1083  19.1084  19.1085  19.1086  19.4388  19.4391
    19.4702  19.4706  19.5083  19.5085  19.5204  19.5205  20.0818  20.0821
    20.7426  20.7429  21.0464  21.0465  21.0465  21.0465  21.1468  21.1468
    21.1468  21.1468  21.5363  21.5366  21.6940  21.6943  21.8820  21.8825
    21.8990  21.8993  22.0448  22.0451  22.0821  22.0826

          k = 0.0562 0.1686 0.1686 ( 12102 PWs)   bands (ev):

   -51.4464 -51.2935 -51.2934 -51.2620 -51.2448 -51.2386 -51.2385 -51.2210
   -51.2102 -51.1981 -51.1981 -51.1966 -51.1834 -51.1833 -51.1815 -51.0615
   -23.1754 -23.1646 -23.1645 -23.1511 -23.1510 -23.1307 -22.8873 -22.8685
   -22.8537 -22.8536 -22.8493 -22.8430 -22.8322 -22.8111 -22.7850 -22.7081
   -22.6793 -22.6793 -22.6111 -22.5927 -22.5926 -22.5465 -22.5226 -22.5225
   -22.5153 -22.5153 -22.5135 -22.4988 -22.4720 -22.4719 -22.4711 -22.4586
   -22.4506 -22.4244 -22.4060 -22.4059 -22.3673 -22.3458 -22.3457 -22.2286
   -22.2082 -22.1930 -22.1929 -22.1796 -22.1795 -22.1698 -22.1598 -22.1517
    12.7543  15.6957  15.6958  15.8429  15.9772  15.9773  16.0347  16.0367
    16.0367  16.0587  16.0771  16.2816  16.6872  16.8815  16.8815  17.5780
    17.7172  17.8001  17.8002  17.9102  17.9102  17.9347  17.9551  17.9552
    17.9600  18.0907  18.1101  18.1668  18.3747  18.4049  18.5345  19.0109
    19.0109  19.3865  19.4384  19.4385  19.4685  19.4978  19.6673  19.7587
    20.0851  20.0851  20.1494  20.1495  20.1804  20.2895  20.4227  20.4802
    20.4803  20.5574  20.5575  20.6873  20.6873  20.8147  21.1312  21.1312
    21.4361  21.5623  21.6113  21.6113  21.6517  21.6894  21.6894  21.6904
    21.7041  21.9108  22.0206  22.0286  22.0287  22.0580

          k = 0.0562 0.1686 0.2810 ( 12103 PWs)   bands (ev):

   -51.4327 -51.3266 -51.2883 -51.2591 -51.2529 -51.2417 -51.2363 -51.2233
   -51.2086 -51.1996 -51.1960 -51.1930 -51.1840 -51.1837 -51.1542 -51.0712
   -23.1520 -23.1342 -23.1330 -23.1236 -23.1106 -23.0785 -22.9219 -22.9217
   -22.9007 -22.8982 -22.8976 -22.8851 -22.8462 -22.8276 -22.7769 -22.7598
   -22.6863 -22.6510 -22.6090 -22.6017 -22.5854 -22.5726 -22.5501 -22.5402
   -22.5291 -22.5225 -22.4941 -22.4757 -22.4726 -22.4608 -22.4398 -22.4312
   -22.4093 -22.4001 -22.3743 -22.3505 -22.3234 -22.2941 -22.2933 -22.2838
   -22.2439 -22.2151 -22.2143 -22.2072 -22.1923 -22.1891 -22.1648 -22.1583
    13.0256  15.0936  15.7855  15.8589  16.0613  16.1651  16.1906  16.1976
    16.2013  16.2382  16.2530  16.3420  16.7193  16.8752  16.9378  17.3925
    17.4413  17.5558  17.8468  17.8698  17.8934  17.9066  17.9672  18.0349
    18.0610  18.1064  18.1493  18.3091  18.4447  18.5671  18.6286  18.8782
    19.1183  19.2339  19.2512  19.3133  19.3353  19.3912  19.4426  19.6384
    19.6930  19.9053  19.9192  20.0853  20.1608  20.2526  20.2547  20.2673
    20.4028  20.5169  20.5456  20.6144  20.6484  20.8425  20.8460  21.2670
    21.4125  21.4773  21.5138  21.5796  21.6226  21.6684  21.7222  21.7488
    21.9498  22.0034  22.0262  22.0488  22.0879  22.1113

          k = 0.0562 0.1686 0.3934 ( 12117 PWs)   bands (ev):

   -51.4129 -51.3587 -51.2810 -51.2625 -51.2551 -51.2458 -51.2333 -51.2263
   -51.2064 -51.2016 -51.1931 -51.1897 -51.1865 -51.1852 -51.1275 -51.0856
   -23.1117 -23.0901 -23.0862 -23.0842 -23.0554 -23.0113 -22.9923 -22.9795
   -22.9683 -22.9630 -22.9176 -22.9093 -22.9038 -22.8469 -22.7956 -22.7371
   -22.7056 -22.6514 -22.6408 -22.5818 -22.5747 -22.5738 -22.5471 -22.5454
   -22.5312 -22.5229 -22.5134 -22.4764 -22.4737 -22.4298 -22.4145 -22.3983
   -22.3624 -22.3524 -22.3427 -22.3253 -22.2995 -22.2881 -22.2808 -22.2485
   -22.2475 -22.2470 -22.2464 -22.2438 -22.2176 -22.2137 -22.1813 -22.1772
    13.4179  14.4833  15.8644  15.8874  16.1751  16.3326  16.3526  16.3803
    16.3974  16.4561  16.5130  16.5508  16.6616  16.7662  16.8389  17.0242
    17.2145  17.2584  17.7836  17.8238  17.8466  17.8542  18.1549  18.2142
    18.2318  18.2783  18.3006  18.4561  18.5708  18.7337  18.9010  18.9611
    18.9832  19.0227  19.0938  19.1018  19.2521  19.2620  19.2922  19.3513
    19.3562  19.4137  19.5089  19.6691  19.7617  19.7728  20.1085  20.5370
    20.5730  20.7719  20.7741  20.8465  20.8598  20.8806  21.0917  21.1670
    21.2005  21.3001  21.3976  21.4557  21.6203  21.7477  21.7834  21.8613
    21.9060  21.9268  21.9470  22.0291  22.0877  22.0967

          k = 0.0562 0.1686-0.5058 ( 12100 PWs)   bands (ev):

   -51.3881 -51.3876 -51.2724 -51.2718 -51.2508 -51.2501 -51.2302 -51.2294
   -51.2042 -51.2038 -51.1900 -51.1897 -51.1872 -51.1869 -51.1047 -51.1043
   -23.0571 -23.0571 -23.0354 -23.0350 -23.0340 -23.0336 -23.0279 -23.0278
   -22.9895 -22.9894 -22.9326 -22.9326 -22.9113 -22.9111 -22.7546 -22.7541
   -22.6913 -22.6911 -22.6125 -22.6120 -22.5611 -22.5606 -22.5539 -22.5537
   -22.5403 -22.5398 -22.4754 -22.4751 -22.4310 -22.4308 -22.4215 -22.4211
   -22.3399 -22.3398 -22.3005 -22.3001 -22.2912 -22.2909 -22.2812 -22.2811
   -22.2550 -22.2546 -22.2435 -22.2435 -22.2087 -22.2087 -22.2072 -22.2070
    13.9125  13.9127  15.8982  15.8983  16.2870  16.2871  16.5134  16.5135
    16.5837  16.5838  16.6352  16.6355  16.7126  16.7129  16.8791  16.8795
    16.8944  16.8947  17.7878  17.7882  17.8218  17.8220  18.4027  18.4029
    18.4293  18.4295  18.4638  18.4639  18.5564  18.5566  18.9283  18.9284
    18.9995  18.9996  19.0878  19.0879  19.2195  19.2196  19.2399  19.2400
    19.3112  19.3113  19.3483  19.3485  19.3856  19.3859  20.3265  20.3267
    20.8627  20.8630  20.9232  20.9232  21.0871  21.0871  21.1505  21.1505
    21.1851  21.1853  21.2020  21.2020  21.6054  21.6057  21.8378  21.8382
    21.8618  21.8621  22.0032  22.0035  22.0891  22.0895

          k = 0.0562 0.2810 0.2810 ( 12103 PWs)   bands (ev):

   -51.4197 -51.3194 -51.3193 -51.2670 -51.2562 -51.2394 -51.2392 -51.2257
   -51.2069 -51.1975 -51.1975 -51.1857 -51.1835 -51.1570 -51.1569 -51.0801
   -23.1388 -23.1066 -23.1065 -23.0890 -23.0890 -23.0186 -22.9503 -22.9469
   -22.9468 -22.9291 -22.9266 -22.9249 -22.8837 -22.8077 -22.7341 -22.6872
   -22.6831 -22.6831 -22.6404 -22.6403 -22.5932 -22.5674 -22.5550 -22.5510
   -22.5509 -22.5184 -22.5184 -22.4956 -22.4954 -22.4894 -22.4184 -22.3865
   -22.3574 -22.3573 -22.3570 -22.3485 -22.3369 -22.2940 -22.2874 -22.2478
   -22.2477 -22.2274 -22.2273 -22.2137 -22.2136 -22.2072 -22.1587 -22.1526
    13.2868  15.2357  15.2358  15.7819  16.2845  16.2845  16.3194  16.3532
    16.3770  16.3770  16.4068  16.4465  16.8127  16.9400  16.9401  17.3633
    17.4575  17.5391  17.5391  17.9152  17.9768  17.9768  18.0172  18.0305
    18.0306  18.0432  18.1265  18.2908  18.5094  18.5375  18.6070  18.9869
    18.9870  19.1226  19.1227  19.1418  19.1823  19.1853  19.2485  19.3942
    19.6863  19.6863  19.7711  19.7712  19.9459  19.9972  19.9973  20.1366
    20.6169  20.6170  20.7008  20.7571  20.8070  20.8071  21.0858  21.2146
    21.2146  21.4070  21.5442  21.5442  21.5919  21.6113  21.6114  21.6326
    21.7140  21.9451  21.9564  21.9650  22.0866  22.1147

          k = 0.0562 0.2810 0.3934 ( 12102 PWs)   bands (ev):

   -51.4009 -51.3496 -51.3091 -51.2820 -51.2523 -51.2433 -51.2361 -51.2288
   -51.2047 -51.1997 -51.1948 -51.1885 -51.1746 -51.1612 -51.1322 -51.0934
   -23.1088 -23.0690 -23.0670 -23.0588 -23.0426 -23.0090 -22.9855 -22.9723
   -22.9718 -22.9579 -22.9446 -22.9446 -22.9336 -22.7774 -22.7716 -22.6921
   -22.6866 -22.6645 -22.6245 -22.6081 -22.5883 -22.5806 -22.5778 -22.5744
   -22.5667 -22.5627 -22.5242 -22.4976 -22.4967 -22.4556 -22.4246 -22.3986
   -22.3678 -22.3377 -22.3353 -22.3149 -22.3098 -22.3011 -22.2659 -22.2488
   -22.2455 -22.2449 -22.2336 -22.2252 -22.2089 -22.2086 -22.1637 -22.1595
    13.6627  14.6699  15.4065  15.6912  16.3924  16.4877  16.5123  16.5304
    16.5386  16.5913  16.6393  16.6629  16.8220  16.8518  16.8563  17.2115
    17.2253  17.2607  17.8361  17.8719  17.9122  17.9363  17.9503  18.0695
    18.1160  18.1639  18.2350  18.2613  18.6894  18.6978  18.7075  18.7862
    18.8391  18.9796  18.9903  19.0646  19.0771  19.0862  19.2147  19.2332
    19.2968  19.3381  19.3877  19.3980  19.5386  19.5794  20.3528  20.3777
    20.7937  20.8089  20.9234  20.9342  20.9428  20.9556  20.9619  21.0579
    21.1904  21.2690  21.3779  21.4342  21.4727  21.6032  21.6399  21.6795
    21.7652  21.7875  21.8564  21.8739  21.9898  22.0958

          k = 0.0562 0.2810-0.5058 ( 12108 PWs)   bands (ev):

   -51.3774 -51.3770 -51.2966 -51.2961 -51.2482 -51.2475 -51.2329 -51.2321
   -51.2023 -51.2020 -51.1918 -51.1915 -51.1673 -51.1669 -51.1111 -51.1107
   -23.0644 -23.0643 -23.0243 -23.0238 -23.0219 -23.0215 -23.0202 -23.0200
   -22.9889 -22.9888 -22.9564 -22.9563 -22.8609 -22.8608 -22.7386 -22.7382
   -22.6362 -22.6360 -22.6287 -22.6283 -22.6044 -22.6040 -22.5719 -22.5715
   -22.5535 -22.5533 -22.5074 -22.5073 -22.4989 -22.4987 -22.3946 -22.3946
   -22.3817 -22.3814 -22.2869 -22.2866 -22.2779 -22.2776 -22.2701 -22.2701
   -22.2683 -22.2679 -22.2425 -22.2424 -22.1806 -22.1805 -22.1787 -22.1786
    14.1330  14.1333  15.5666  15.5668  16.4864  16.4865  16.6819  16.6821
    16.7044  16.7045  16.7075  16.7076  16.9120  16.9123  16.9400  16.9402
    16.9742  16.9744  17.8659  17.8662  17.9030  17.9032  18.1890  18.1892
    18.2216  18.2218  18.2391  18.2394  18.4584  18.4585  18.9854  18.9856
    19.0005  19.0006  19.0074  19.0075  19.0130  19.0131  19.0761  19.0762
    19.1851  19.1852  19.2272  19.2272  19.2804  19.2806  20.6369  20.6370
    20.7585  20.7585  20.8339  20.8340  21.0488  21.0490  21.1779  21.1779
    21.2035  21.2036  21.2506  21.2507  21.3894  21.3897  21.7497  21.7501
    21.7723  21.7726  21.9274  21.9278  21.9729  21.9730

          k = 0.0562 0.3934 0.3934 ( 12122 PWs)   bands (ev):

   -51.3836 -51.3367 -51.3366 -51.3018 -51.2486 -51.2400 -51.2399 -51.2322
   -51.2023 -51.1970 -51.1970 -51.1911 -51.1607 -51.1394 -51.1393 -51.1051
   -23.0893 -23.0413 -23.0412 -23.0261 -23.0260 -23.0105 -23.0104 -22.9954
   -22.9882 -22.9872 -22.9755 -22.9586 -22.8658 -22.7497 -22.6887 -22.6887
   -22.6714 -22.6713 -22.6592 -22.6335 -22.6145 -22.6003 -22.6002 -22.5955
   -22.5689 -22.5255 -22.5254 -22.5136 -22.5131 -22.5130 -22.5064 -22.3931
   -22.3701 -22.3253 -22.3252 -22.3021 -22.2882 -22.2792 -22.2572 -22.2533
   -22.2531 -22.2531 -22.2438 -22.2437 -22.1799 -22.1798 -22.1572 -22.1540
    14.0114  14.9184  14.9185  15.4593  16.6066  16.6621  16.6680  16.6813
    16.6813  16.8060  16.8060  16.8290  16.8291  16.8929  16.9524  17.1871
    17.2068  17.5120  17.5120  17.9195  17.9521  17.9538  18.0107  18.0108
    18.0262  18.0262  18.0977  18.2948  18.3579  18.6125  18.7270  18.7272
    18.7276  18.8836  18.9183  18.9629  19.0236  19.0237  19.0522  19.0524
    19.1450  19.1469  19.1469  19.2606  19.3342  19.9223  19.9224  20.6646
    20.7486  20.8387  20.9156  20.9156  21.0853  21.0854  21.1139  21.1274
    21.2904  21.2904  21.3202  21.4460  21.4554  21.4919  21.4919  21.5192
    21.5193  21.7509  21.7535  21.7642  21.8813  22.0039

          k = 0.0562 0.3934-0.5058 ( 12132 PWs)   bands (ev):

   -51.3621 -51.3616 -51.3206 -51.3201 -51.2446 -51.2439 -51.2365 -51.2357
   -51.1998 -51.1995 -51.1942 -51.1939 -51.1490 -51.1486 -51.1206 -51.1203
   -23.0556 -23.0556 -23.0139 -23.0134 -23.0126 -23.0123 -23.0085 -23.0082
   -22.9986 -22.9986 -22.9909 -22.9907 -22.7787 -22.7787 -22.7141 -22.7137
   -22.6455 -22.6450 -22.6355 -22.6353 -22.6083 -22.6083 -22.6041 -22.6039
   -22.5630 -22.5630 -22.5510 -22.5509 -22.5230 -22.5229 -22.4521 -22.4520
   -22.3458 -22.3454 -22.2883 -22.2879 -22.2715 -22.2713 -22.2662 -22.2659
   -22.2629 -22.2628 -22.2461 -22.2460 -22.1625 -22.1625 -22.1610 -22.1610
    14.4404  14.4407  15.1937  15.1939  16.7287  16.7288  16.7323  16.7325
    16.7639  16.7641  16.9346  16.9346  16.9802  16.9804  17.0629  17.0631
    17.1919  17.1921  17.8848  17.8851  17.9364  17.9367  17.9460  17.9461
    17.9956  17.9958  18.0608  18.0610  18.5159  18.5159  18.7642  18.7644
    18.7989  18.7989  18.8420  18.8422  18.8522  18.8522  18.9044  18.9045
    19.1851  19.1852  19.1971  19.1973  19.5132  19.5132  20.3142  20.3142
    20.8326  20.8328  20.9732  20.9733  21.1439  21.1441  21.2381  21.2383
    21.3143  21.3144  21.3198  21.3200  21.3209  21.3211  21.6236  21.6239
    21.6374  21.6376  21.6570  21.6570  21.8408  21.8411

          k = 0.0562-0.5058-0.5058 ( 12104 PWs)   bands (ev):

   -51.3431 -51.3426 -51.3425 -51.3422 -51.2409 -51.2402 -51.2400 -51.2396
   -51.1971 -51.1969 -51.1968 -51.1966 -51.1335 -51.1332 -51.1331 -51.1329
   -23.0327 -23.0327 -23.0325 -23.0325 -23.0097 -23.0093 -23.0092 -23.0091
   -22.9974 -22.9973 -22.9972 -22.9971 -22.6912 -22.6912 -22.6911 -22.6911
   -22.6822 -22.6817 -22.6816 -22.6814 -22.6274 -22.6274 -22.6273 -22.6273
   -22.5414 -22.5414 -22.5412 -22.5412 -22.5109 -22.5109 -22.5108 -22.5108
   -22.3144 -22.3140 -22.3139 -22.3137 -22.2625 -22.2625 -22.2624 -22.2623
   -22.2552 -22.2548 -22.2548 -22.2547 -22.1555 -22.1555 -22.1554 -22.1554
    14.8060  14.8061  14.8062  14.8063  16.7672  16.7674  16.7675  16.7676
    16.9219  16.9219  16.9220  16.9221  17.0793  17.0794  17.0794  17.0795
    17.5260  17.5261  17.5262  17.5263  17.9230  17.9230  17.9231  17.9232
    17.9759  17.9759  17.9760  17.9761  18.6316  18.6316  18.6318  18.6318
    18.7199  18.7202  18.7202  18.7203  18.8137  18.8139  18.8139  18.8139
    19.1638  19.1640  19.1640  19.1641  19.8940  19.8940  19.8941  19.8941
    20.9417  20.9419  20.9420  20.9421  21.3053  21.3053  21.3053  21.3054
    21.3568  21.3569  21.3570  21.3570  21.4718  21.4719  21.4720  21.4722
    21.4773  21.4773  21.4775  21.4776  21.8104  21.8104

          k = 0.1686 0.1686 0.1686 ( 12149 PWs)   bands (ev):

   -51.4396 -51.2909 -51.2908 -51.2908 -51.2435 -51.2433 -51.2433 -51.2225
   -51.1957 -51.1957 -51.1957 -51.1836 -51.1836 -51.1836 -51.1824 -51.0662
   -23.1596 -23.1596 -23.1594 -23.1193 -23.1192 -23.1192 -22.9048 -22.8835
   -22.8834 -22.8834 -22.8755 -22.8755 -22.7935 -22.7935 -22.7761 -22.7188
   -22.7188 -22.7188 -22.6072 -22.6072 -22.6070 -22.5306 -22.5305 -22.5305
   -22.5266 -22.5266 -22.4792 -22.4791 -22.4791 -22.4612 -22.4611 -22.4611
   -22.4122 -22.4118 -22.4118 -22.4117 -22.3172 -22.3171 -22.3171 -22.2667
   -22.2145 -22.2144 -22.2144 -22.1749 -22.1749 -22.1748 -22.1621 -22.1621
    12.8909  15.7615  15.7616  15.7616  15.9632  15.9632  15.9632  16.1450
    16.1450  16.1450  16.1453  16.1453  16.9364  16.9364  16.9364  17.4712
    17.7778  17.7778  17.7779  17.8358  17.8358  17.9367  17.9367  17.9368
    18.0694  18.0695  18.0695  18.2736  18.3004  18.3004  18.8375  18.8375
    18.8376  19.3471  19.3473  19.3473  19.3679  19.3679  19.8564  19.8564
    19.8565  19.8998  20.0640  20.0640  20.0641  20.2872  20.2872  20.2874
    20.5008  20.5009  20.5009  20.6532  20.6532  20.6532  21.3793  21.3793
    21.3793  21.4839  21.4839  21.4839  21.6091  21.6091  21.6926  21.6926
    21.6926  22.0252  22.0252  22.0253  22.0593  22.0593

          k = 0.1686 0.1686 0.2810 ( 12100 PWs)   bands (ev):

   -51.4262 -51.3230 -51.2858 -51.2857 -51.2513 -51.2512 -51.2407 -51.2252
   -51.1940 -51.1924 -51.1924 -51.1842 -51.1841 -51.1841 -51.1555 -51.0755
   -23.1370 -23.1369 -23.1283 -23.0969 -23.0706 -23.0705 -22.9442 -22.9332
   -22.9331 -22.9101 -22.8985 -22.8772 -22.8524 -22.7834 -22.7833 -22.7500
   -22.7361 -22.6681 -22.6436 -22.6102 -22.6101 -22.5618 -22.5502 -22.5501
   -22.5389 -22.5331 -22.4786 -22.4486 -22.4485 -22.4445 -22.4261 -22.4260
   -22.4170 -22.4168 -22.3639 -22.3532 -22.3240 -22.2792 -22.2791 -22.2709
   -22.2437 -22.2436 -22.2277 -22.2042 -22.1825 -22.1784 -22.1783 -22.1631
    13.1581  15.1788  15.8667  15.8668  15.9817  15.9817  16.1949  16.2801
    16.2993  16.2994  16.3068  16.3545  16.9652  16.9653  17.0104  17.3737
    17.3974  17.6846  17.7866  17.8259  17.8260  17.8958  18.0016  18.0322
    18.0323  18.1102  18.2445  18.2446  18.3832  18.5634  18.6811  18.6811
    19.0418  19.1278  19.1280  19.2326  19.2670  19.3336  19.5415  19.5415
    19.5641  19.5642  19.8416  20.0106  20.0107  20.0397  20.0873  20.0938
    20.4269  20.5720  20.5721  20.7631  20.7631  20.9638  21.0945  21.3318
    21.3318  21.4514  21.5703  21.6148  21.6149  21.6556  21.6975  21.7196
    21.7210  21.7210  21.9975  22.0200  22.0335  22.0620

          k = 0.1686 0.1686 0.3934 ( 12113 PWs)   bands (ev):

   -51.4069 -51.3541 -51.2786 -51.2785 -51.2606 -51.2604 -51.2371 -51.2289
   -51.1916 -51.1893 -51.1893 -51.1864 -51.1852 -51.1851 -51.1298 -51.0894
   -23.0990 -23.0989 -23.0827 -23.0655 -23.0082 -23.0081 -22.9915 -22.9914
   -22.9857 -22.9552 -22.9234 -22.9155 -22.8587 -22.8586 -22.8190 -22.7251
   -22.7022 -22.6921 -22.6040 -22.6028 -22.6027 -22.5984 -22.5703 -22.5702
   -22.5506 -22.5357 -22.5003 -22.4380 -22.4379 -22.4228 -22.4228 -22.3943
   -22.3726 -22.3726 -22.3690 -22.3191 -22.2995 -22.2803 -22.2802 -22.2497
   -22.2474 -22.2429 -22.2427 -22.2309 -22.2127 -22.1912 -22.1911 -22.1754
    13.5437  14.5858  15.9644  15.9645  16.0095  16.0095  16.4787  16.4890
    16.4891  16.5191  16.5198  16.6383  16.8740  16.8740  16.9285  17.0456
    17.2161  17.3205  17.7796  17.8473  17.9307  17.9439  18.0490  18.0492
    18.1888  18.1889  18.4433  18.4434  18.5657  18.5657  18.6969  18.8705
    18.9768  18.9770  19.0816  19.0817  19.1597  19.1679  19.1923  19.2116
    19.2116  19.2880  19.4922  19.4923  19.5417  19.5541  20.3035  20.4038
    20.6727  20.8129  20.8814  20.8814  20.8985  20.8986  21.1734  21.1734
    21.2132  21.2278  21.3363  21.4466  21.4467  21.6807  21.7777  21.8194
    21.9091  21.9377  22.0334  22.0334  22.0436  22.0605

          k = 0.1686 0.1686-0.5058 ( 12080 PWs)   bands (ev):

   -51.3828 -51.3823 -51.2703 -51.2701 -51.2697 -51.2696 -51.2334 -51.2326
   -51.1891 -51.1888 -51.1870 -51.1870 -51.1867 -51.1867 -51.1077 -51.1074
   -23.0490 -23.0489 -23.0489 -23.0488 -23.0274 -23.0270 -23.0246 -23.0242
   -22.9359 -22.9358 -22.9358 -22.9357 -22.9245 -22.9243 -22.7763 -22.7758
   -22.6526 -22.6522 -22.6444 -22.6442 -22.5887 -22.5887 -22.5883 -22.5883
   -22.5212 -22.5209 -22.4732 -22.4731 -22.4296 -22.4295 -22.4293 -22.4292
   -22.3235 -22.3235 -22.3234 -22.3234 -22.3026 -22.3022 -22.2805 -22.2802
   -22.2523 -22.2519 -22.2129 -22.2129 -22.2128 -22.2128 -22.1984 -22.1983
    14.0285  14.0288  16.0132  16.0133  16.0134  16.0134  16.6934  16.6934
    16.6935  16.6935  16.7360  16.7363  16.7438  16.7440  16.9083  16.9086
    16.9515  16.9517  17.8039  17.8042  17.8931  17.8933  18.3842  18.3844
    18.3845  18.3846  18.3874  18.3874  18.3875  18.3876  18.9429  18.9430
    18.9430  18.9430  19.0974  19.0975  19.1081  19.1082  19.1082  19.1083
    19.1562  19.1562  19.2054  19.2055  19.2325  19.2328  20.5449  20.5450
    20.7866  20.7867  20.9574  20.9576  21.0213  21.0214  21.0214  21.0214
    21.1989  21.1990  21.1990  21.1991  21.7503  21.7506  21.7986  21.7990
    21.8536  21.8540  21.9666  21.9670  22.0533  22.0536

          k = 0.1686 0.2810 0.2810 ( 12104 PWs)   bands (ev):

   -51.4135 -51.3159 -51.3158 -51.2808 -51.2648 -51.2481 -51.2480 -51.2288
   -51.1912 -51.1911 -51.1849 -51.1845 -51.1833 -51.1581 -51.1580 -51.0841
   -23.1235 -23.1076 -23.1075 -23.0555 -23.0554 -23.0146 -22.9656 -22.9571
   -22.9534 -22.9532 -22.9126 -22.8935 -22.8477 -22.8264 -22.7696 -22.7097
   -22.7096 -22.6900 -22.6704 -22.6703 -22.6314 -22.5877 -22.5876 -22.5815
   -22.5118 -22.4789 -22.4788 -22.4636 -22.4635 -22.4266 -22.4240 -22.4126
   -22.3853 -22.3819 -22.3597 -22.3596 -22.3282 -22.2799 -22.2581 -22.2464
   -22.2464 -22.2400 -22.2398 -22.2052 -22.2051 -22.1953 -22.1730 -22.1635
    13.4166  15.3310  15.3311  15.9094  16.0030  16.2182  16.2182  16.4102
    16.4615  16.4648  16.5043  16.5043  17.0503  17.0504  17.0805  17.3316
    17.5047  17.5048  17.6190  17.7676  17.8594  17.9816  17.9816  18.0973
    18.1382  18.1383  18.1580  18.2466  18.4419  18.4977  18.5318  18.8397
    18.8398  19.0092  19.0495  19.0496  19.1368  19.1509  19.2571  19.3169
    19.4165  19.4166  19.6253  19.6254  19.6984  19.7296  19.7297  20.3161
    20.6949  20.6950  20.7458  20.9112  20.9977  20.9977  21.1845  21.2108
    21.4468  21.4468  21.4504  21.4504  21.4595  21.5941  21.6412  21.6412
    21.6611  21.9557  21.9610  21.9751  21.9758  22.0454

          k = 0.1686 0.2810 0.3934 ( 12092 PWs)   bands (ev):

   -51.3952 -51.3453 -51.3058 -51.2794 -51.2740 -51.2568 -51.2437 -51.2335
   -51.1896 -51.1885 -51.1862 -51.1853 -51.1748 -51.1621 -51.1342 -51.0969
   -23.0945 -23.0746 -23.0649 -23.0351 -23.0040 -23.0028 -22.9925 -22.9881
   -22.9590 -22.9502 -22.9460 -22.9352 -22.8820 -22.8184 -22.7878 -22.7369
   -22.7269 -22.6590 -22.6412 -22.6378 -22.6359 -22.6302 -22.6118 -22.6116
   -22.5306 -22.5060 -22.4809 -22.4589 -22.4517 -22.4348 -22.4236 -22.4023
   -22.3699 -22.3530 -22.3395 -22.3224 -22.3071 -22.2967 -22.2709 -22.2552
   -22.2442 -22.2378 -22.2233 -22.2112 -22.2109 -22.2075 -22.1765 -22.1686
    13.7879  14.7782  15.5153  15.8191  16.1425  16.2429  16.5495  16.5823
    16.6406  16.6888  16.6922  16.7764  16.9688  16.9717  17.0616  17.2097
    17.2534  17.3417  17.7906  17.8458  17.8857  17.9216  18.0264  18.0282
    18.1147  18.2254  18.2554  18.3757  18.4413  18.5893  18.6244  18.7111
    18.7791  18.8749  18.9147  18.9655  19.0201  19.0373  19.0540  19.0791
    19.1890  19.1963  19.1979  19.2077  19.3292  19.3668  19.9943  20.5727
    20.7635  20.8891  20.9845  20.9936  20.9952  21.0515  21.0687  21.1538
    21.3110  21.3148  21.3218  21.4775  21.4782  21.5892  21.7047  21.7522
    21.8195  21.8642  21.8863  21.9786  22.0454  22.0460

          k = 0.1686 0.2810-0.5058 ( 12096 PWs)   bands (ev):

   -51.3724 -51.3719 -51.2936 -51.2931 -51.2660 -51.2654 -51.2390 -51.2383
   -51.1880 -51.1877 -51.1867 -51.1864 -51.1679 -51.1675 -51.1139 -51.1135
   -23.0533 -23.0532 -23.0342 -23.0341 -23.0125 -23.0121 -23.0108 -23.0105
   -22.9521 -22.9520 -22.9431 -22.9430 -22.8687 -22.8686 -22.7772 -22.7768
   -22.6881 -22.6878 -22.6386 -22.6383 -22.6302 -22.6299 -22.5944 -22.5943
   -22.5359 -22.5359 -22.4964 -22.4962 -22.4428 -22.4426 -22.3849 -22.3846
   -22.3700 -22.3700 -22.3022 -22.3022 -22.2947 -22.2943 -22.2720 -22.2718
   -22.2613 -22.2609 -22.2219 -22.2218 -22.1893 -22.1893 -22.1833 -22.1833
    14.2513  14.2515  15.6879  15.6881  16.2280  16.2281  16.7858  16.7861
    16.8183  16.8184  16.8956  16.8957  16.9423  16.9425  16.9428  16.9431
    17.0578  17.0580  17.8688  17.8691  17.9680  17.9682  18.1524  18.1526
    18.1869  18.1871  18.2622  18.2624  18.4074  18.4075  18.7907  18.7908
    18.9025  18.9027  18.9148  18.9149  18.9593  18.9594  18.9598  18.9598
    19.0291  19.0291  19.0615  19.0615  19.1174  19.1176  20.3448  20.3449
    20.8543  20.8544  21.0038  21.0039  21.1155  21.1157  21.1831  21.1831
    21.2522  21.2524  21.2627  21.2629  21.6807  21.6810  21.7354  21.7357
    21.7909  21.7912  21.8999  21.9002  22.0218  22.0220

          k = 0.1686 0.3934 0.3934 ( 12105 PWs)   bands (ev):

   -51.3784 -51.3326 -51.3325 -51.2986 -51.2676 -51.2517 -51.2516 -51.2393
   -51.1877 -51.1877 -51.1864 -51.1856 -51.1615 -51.1410 -51.1410 -51.1081
   -23.0747 -23.0409 -23.0408 -23.0017 -23.0016 -23.0001 -22.9969 -22.9968
   -22.9896 -22.9667 -22.9626 -22.9154 -22.8723 -22.7954 -22.7374 -22.7136
   -22.7136 -22.7066 -22.7064 -22.6638 -22.6608 -22.6607 -22.6508 -22.5924
   -22.5321 -22.4919 -22.4758 -22.4758 -22.4672 -22.4670 -22.4466 -22.3732
   -22.3667 -22.3222 -22.3221 -22.3178 -22.3089 -22.2791 -22.2664 -22.2663
   -22.2473 -22.2399 -22.2398 -22.2354 -22.1871 -22.1869 -22.1706 -22.1657
    14.1351  15.0346  15.0347  15.5883  16.3480  16.5631  16.5632  16.7066
    16.7751  16.9356  16.9444  16.9446  16.9541  16.9542  17.2143  17.2184
    17.2840  17.5125  17.5125  17.7949  17.9200  18.0038  18.0296  18.0297
    18.0723  18.0723  18.2291  18.2875  18.3221  18.3510  18.6573  18.6762
    18.6764  18.7345  18.8562  18.8563  18.8790  18.9042  18.9043  18.9291
    18.9355  18.9858  18.9858  19.1058  19.1321  19.5982  19.5983  20.3183
    20.8758  21.0307  21.1283  21.1284  21.1665  21.1912  21.1912  21.2192
    21.3690  21.4716  21.4831  21.4831  21.5266  21.5267  21.5590  21.5591
    21.7267  21.7763  21.7888  21.7911  21.8824  21.9932

          k = 0.1686 0.3934-0.5058 ( 12124 PWs)   bands (ev):

   -51.3574 -51.3569 -51.3170 -51.3165 -51.2602 -51.2596 -51.2459 -51.2453
   -51.1871 -51.1868 -51.1865 -51.1862 -51.1503 -51.1499 -51.1230 -51.1227
   -23.0424 -23.0423 -23.0171 -23.0169 -23.0023 -23.0019 -22.9921 -22.9918
   -22.9868 -22.9868 -22.9552 -22.9551 -22.7914 -22.7913 -22.7585 -22.7581
   -22.7067 -22.7066 -22.6853 -22.6849 -22.6717 -22.6716 -22.6264 -22.6263
   -22.5276 -22.5275 -22.4809 -22.4808 -22.4568 -22.4566 -22.4215 -22.4215
   -22.3434 -22.3431 -22.2841 -22.2840 -22.2809 -22.2805 -22.2777 -22.2774
   -22.2686 -22.2683 -22.2364 -22.2363 -22.1744 -22.1744 -22.1717 -22.1717
    14.5615  14.5617  15.3179  15.3181  16.5048  16.5049  16.8396  16.8398
    16.8787  16.8789  16.9211  16.9213  17.1389  17.1390  17.1928  17.1930
    17.2207  17.2209  17.8853  17.8855  17.9400  17.9403  17.9584  17.9586
    17.9688  17.9689  18.1336  18.1338  18.4746  18.4747  18.5433  18.5434
    18.6847  18.6849  18.7566  18.7566  18.7596  18.7597  18.8232  18.8233
    19.0057  19.0059  19.0347  19.0349  19.2404  19.2404  19.9207  19.9207
    21.0773  21.0775  21.1850  21.1850  21.2925  21.2927  21.3443  21.3445
    21.3623  21.3624  21.3686  21.3688  21.4724  21.4726  21.6458  21.6461
    21.6697  21.6699  21.8236  21.8240  21.8699  21.8701

          k = 0.1686-0.5058-0.5058 ( 12100 PWs)   bands (ev):

   -51.3388 -51.3384 -51.3383 -51.3380 -51.2536 -51.2530 -51.2528 -51.2525
   -51.1867 -51.1865 -51.1863 -51.1862 -51.1354 -51.1351 -51.1350 -51.1348
   -23.0190 -23.0190 -23.0188 -23.0188 -23.0041 -23.0039 -23.0038 -23.0036
   -22.9722 -22.9720 -22.9719 -22.9718 -22.7273 -22.7270 -22.7269 -22.7267
   -22.7078 -22.7077 -22.7077 -22.7077 -22.7007 -22.7006 -22.7005 -22.7005
   -22.4745 -22.4745 -22.4744 -22.4744 -22.4692 -22.4692 -22.4691 -22.4691
   -22.3089 -22.3086 -22.3085 -22.3083 -22.2730 -22.2729 -22.2728 -22.2728
   -22.2557 -22.2554 -22.2554 -22.2553 -22.1683 -22.1683 -22.1681 -22.1681
    14.9296  14.9297  14.9298  14.9299  16.7689  16.7690  16.7691  16.7691
    16.8789  16.8791  16.8792  16.8793  17.2736  17.2736  17.2737  17.2737
    17.5475  17.5476  17.5477  17.5478  17.8747  17.8747  17.8748  17.8749
    18.0387  18.0387  18.0388  18.0389  18.5180  18.5182  18.5182  18.5183
    18.5914  18.5914  18.5916  18.5916  18.7390  18.7392  18.7392  18.7392
    18.9926  18.9928  18.9928  18.9929  19.5442  19.5442  19.5442  19.5443
    21.2457  21.2459  21.2459  21.2461  21.3726  21.3728  21.3729  21.3729
    21.5179  21.5181  21.5182  21.5184  21.5230  21.5230  21.5231  21.5232
    21.5577  21.5577  21.5577  21.5578  21.8018  21.8020

          k = 0.2810 0.2810 0.2810 ( 12091 PWs)   bands (ev):

   -51.4015 -51.3092 -51.3091 -51.3091 -51.2608 -51.2607 -51.2607 -51.2343
   -51.1840 -51.1830 -51.1829 -51.1829 -51.1604 -51.1603 -51.1603 -51.0920
   -23.0933 -23.0933 -23.0931 -23.0079 -23.0078 -23.0078 -22.9755 -22.9697
   -22.9696 -22.9696 -22.8885 -22.8885 -22.8507 -22.8507 -22.7572 -22.7571
   -22.7571 -22.6954 -22.6954 -22.6953 -22.6401 -22.6267 -22.6265 -22.6265
   -22.4442 -22.4330 -22.4329 -22.4329 -22.4327 -22.4326 -22.4302 -22.4302
   -22.4302 -22.3649 -22.3649 -22.3647 -22.3028 -22.2713 -22.2712 -22.2712
   -22.2278 -22.2276 -22.2276 -22.2012 -22.2012 -22.2011 -22.1852 -22.1852
    13.6692  15.5038  15.5039  15.5039  16.1563  16.1564  16.1564  16.5791
    16.5791  16.6652  16.6652  16.6652  17.2139  17.2140  17.2140  17.3410
    17.4829  17.4829  17.4831  17.8453  17.8453  17.8619  18.0448  18.0448
    18.0449  18.2870  18.2871  18.2871  18.3321  18.3321  18.6637  18.6637
    18.6637  18.8981  18.8983  18.8983  19.0399  19.0399  19.0400  19.0916
    19.0916  19.3178  19.3180  19.3180  19.4025  19.4025  19.4026  20.5714
    20.7476  20.8705  20.8705  20.8706  21.1567  21.1567  21.1568  21.3498
    21.3499  21.3499  21.5582  21.5582  21.6295  21.6295  21.6295  21.7809
    21.7809  21.7810  21.9683  21.9683  21.9684  21.9726

          k = 0.2810 0.2810 0.3934 ( 12098 PWs)   bands (ev):

   -51.3841 -51.3368 -51.2996 -51.2995 -51.2745 -51.2744 -51.2550 -51.2410
   -51.1832 -51.1827 -51.1753 -51.1753 -51.1640 -51.1639 -51.1383 -51.1037
   -23.0668 -23.0667 -23.0492 -22.9993 -22.9976 -22.9975 -22.9831 -22.9670
   -22.9494 -22.9493 -22.9258 -22.9239 -22.8535 -22.8179 -22.8179 -22.7991
   -22.7551 -22.7014 -22.7013 -22.6825 -22.6806 -22.6619 -22.6618 -22.5912
   -22.5138 -22.4800 -22.4441 -22.4418 -22.4077 -22.4076 -22.3831 -22.3830
   -22.3738 -22.3736 -22.3599 -22.3084 -22.3024 -22.3023 -22.2832 -22.2673
   -22.2424 -22.2171 -22.2158 -22.2157 -22.2045 -22.2018 -22.2017 -22.1826
    14.0305  14.9822  15.7168  15.7168  16.0660  16.0660  16.5062  16.7455
    16.7986  16.8485  16.8485  16.9329  17.1852  17.1896  17.1896  17.2079
    17.3330  17.4001  17.6989  17.6990  17.8674  17.9801  18.1107  18.1266
    18.1494  18.1615  18.1615  18.3825  18.3826  18.4931  18.4931  18.5258
    18.7076  18.7076  18.7765  18.7767  18.7982  18.8464  18.8980  18.9022
    18.9529  19.0002  19.0003  19.0103  19.0901  19.0901  19.5853  20.2920
    20.8645  21.0444  21.0980  21.0980  21.2247  21.2248  21.2806  21.2806
    21.4118  21.4775  21.4961  21.5218  21.5218  21.5417  21.6918  21.6974
    21.8774  21.8912  21.9737  21.9737  21.9757  21.9800

          k = 0.2810 0.2810-0.5058 ( 12112 PWs)   bands (ev):

   -51.3625 -51.3620 -51.2880 -51.2879 -51.2874 -51.2874 -51.2485 -51.2479
   -51.1829 -51.1826 -51.1691 -51.1691 -51.1688 -51.1687 -51.1194 -51.1191
   -23.0326 -23.0325 -23.0325 -23.0324 -22.9931 -22.9926 -22.9910 -22.9908
   -22.9512 -22.9511 -22.8843 -22.8842 -22.8842 -22.8841 -22.8086 -22.8082
   -22.7417 -22.7415 -22.6887 -22.6886 -22.6884 -22.6883 -22.6034 -22.6033
   -22.5285 -22.5284 -22.4468 -22.4465 -22.3884 -22.3883 -22.3881 -22.3880
   -22.3397 -22.3397 -22.3397 -22.3396 -22.2961 -22.2957 -22.2712 -22.2710
   -22.2587 -22.2583 -22.2068 -22.2068 -22.2067 -22.2066 -22.1892 -22.1892
    14.4782  14.4784  15.9182  15.9182  15.9183  15.9184  16.9327  16.9330
    16.9580  16.9583  17.0227  17.0230  17.0340  17.0340  17.0341  17.0341
    17.1955  17.1957  17.9163  17.9166  18.0338  18.0340  18.0728  18.0730
    18.0731  18.0732  18.3192  18.3192  18.3193  18.3193  18.5033  18.5034
    18.7210  18.7211  18.7998  18.7999  18.8000  18.8001  18.8215  18.8215
    18.8215  18.8215  18.8662  18.8663  18.9119  18.9122  19.8916  19.8916
    21.1759  21.1759  21.2340  21.2342  21.2465  21.2466  21.2466  21.2466
    21.3288  21.3288  21.3289  21.3290  21.7270  21.7273  21.7864  21.7867
    21.8489  21.8492  21.8522  21.8525  21.9802  21.9805

          k = 0.2810 0.3934 0.3934 ( 12096 PWs)   bands (ev):

   -51.3681 -51.3248 -51.3247 -51.2926 -51.2906 -51.2675 -51.2674 -51.2500
   -51.1802 -51.1763 -51.1763 -51.1669 -51.1631 -51.1445 -51.1444 -51.1140
   -23.0459 -23.0269 -23.0268 -22.9958 -22.9874 -22.9873 -22.9739 -22.9552
   -22.9552 -22.9368 -22.9326 -22.8855 -22.8591 -22.8488 -22.8146 -22.7604
   -22.7603 -22.7450 -22.7450 -22.7319 -22.7195 -22.7194 -22.7067 -22.5956
   -22.5266 -22.4294 -22.4293 -22.4168 -22.4122 -22.4120 -22.3807 -22.3699
   -22.3443 -22.3394 -22.3334 -22.3187 -22.3186 -22.2860 -22.2859 -22.2761
   -22.2385 -22.2384 -22.2340 -22.2230 -22.2004 -22.2003 -22.1974 -22.1889
    14.3742  15.2551  15.2551  15.8373  15.9748  16.4126  16.4126  16.8936
    16.9905  17.0187  17.1217  17.1217  17.1660  17.1662  17.2167  17.4247
    17.4293  17.5068  17.5068  17.6243  17.9505  18.0682  18.0695  18.0831
    18.0832  18.1556  18.1556  18.2566  18.2711  18.3534  18.4338  18.5892
    18.5893  18.5976  18.6178  18.6179  18.6264  18.6397  18.6398  18.7509
    18.7509  18.8056  18.8210  18.8345  18.8968  19.2015  19.2015  19.8452
    21.1908  21.2339  21.2340  21.2614  21.3053  21.3971  21.4629  21.4787
    21.4788  21.5095  21.5096  21.5259  21.6042  21.6042  21.6730  21.8154
    21.8515  21.8515  21.8541  21.8823  21.9581  21.9699

          k = 0.2810 0.3934-0.5058 ( 12094 PWs)   bands (ev):

   -51.3482 -51.3478 -51.3100 -51.3095 -51.2799 -51.2794 -51.2594 -51.2588
   -51.1780 -51.1777 -51.1711 -51.1708 -51.1529 -51.1525 -51.1278 -51.1275
   -23.0168 -23.0168 -23.0061 -23.0059 -22.9786 -22.9782 -22.9652 -22.9652
   -22.9638 -22.9635 -22.9068 -22.9066 -22.8157 -22.8156 -22.8114 -22.8110
   -22.7753 -22.7751 -22.7418 -22.7415 -22.7385 -22.7383 -22.6686 -22.6685
   -22.4785 -22.4784 -22.4140 -22.4138 -22.3924 -22.3922 -22.3823 -22.3822
   -22.3394 -22.3391 -22.3117 -22.3116 -22.2849 -22.2845 -22.2769 -22.2767
   -22.2712 -22.2708 -22.2314 -22.2313 -22.1974 -22.1974 -22.1920 -22.1919
    14.7939  14.7941  15.5559  15.5561  16.2288  16.2290  16.8226  16.8229
    17.0414  17.0417  17.0991  17.0993  17.2761  17.2763  17.3190  17.3190
    17.3740  17.3742  17.8802  17.8805  17.9044  17.9046  18.0039  18.0041
    18.0102  18.0103  18.2160  18.2162  18.3046  18.3046  18.4004  18.4005
    18.5144  18.5145  18.5266  18.5268  18.6410  18.6410  18.6804  18.6804
    18.7350  18.7352  18.8058  18.8060  18.8743  18.8744  19.4644  19.4644
    21.3709  21.3711  21.3873  21.3874  21.4160  21.4162  21.4426  21.4428
    21.4782  21.4783  21.5394  21.5395  21.7071  21.7075  21.7144  21.7147
    21.7905  21.7908  21.7916  21.7919  21.8844  21.8848

          k = 0.2810-0.5058-0.5058 ( 12124 PWs)   bands (ev):

   -51.3307 -51.3302 -51.3301 -51.3298 -51.2704 -51.2699 -51.2697 -51.2694
   -51.1742 -51.1740 -51.1738 -51.1737 -51.1392 -51.1389 -51.1388 -51.1386
   -22.9917 -22.9917 -22.9916 -22.9916 -22.9835 -22.9832 -22.9831 -22.9830
   -22.9344 -22.9343 -22.9342 -22.9341 -22.7856 -22.7853 -22.7852 -22.7850
   -22.7733 -22.7733 -22.7732 -22.7732 -22.7420 -22.7419 -22.7419 -22.7418
   -22.4288 -22.4287 -22.4286 -22.4286 -22.3988 -22.3988 -22.3987 -22.3987
   -22.2998 -22.2995 -22.2994 -22.2992 -22.2906 -22.2904 -22.2904 -22.2903
   -22.2602 -22.2600 -22.2599 -22.2598 -22.1933 -22.1933 -22.1932 -22.1932
    15.1669  15.1670  15.1671  15.1672  16.5626  16.5627  16.5628  16.5629
    17.0923  17.0924  17.0926  17.0926  17.5149  17.5150  17.5150  17.5150
    17.5879  17.5880  17.5881  17.5882  17.8234  17.8234  17.8235  17.8236
    18.1167  18.1167  18.1168  18.1169  18.3216  18.3218  18.3218  18.3219
    18.5174  18.5175  18.5176  18.5176  18.5183  18.5183  18.5184  18.5185
    18.7424  18.7425  18.7426  18.7427  19.1074  19.1074  19.1075  19.1075
    21.4547  21.4549  21.4550  21.4550  21.5791  21.5793  21.5794  21.5796
    21.5905  21.5906  21.5906  21.5907  21.6422  21.6422  21.6423  21.6425
    21.7823  21.7825  21.7826  21.7828  21.9193  21.9193

          k = 0.3934 0.3934 0.3934 ( 12091 PWs)   bands (ev):

   -51.3534 -51.3137 -51.3135 -51.3135 -51.2841 -51.2839 -51.2839 -51.2618
   -51.1743 -51.1658 -51.1657 -51.1657 -51.1497 -51.1496 -51.1496 -51.1230
   -23.0039 -23.0039 -23.0038 -22.9764 -22.9762 -22.9762 -22.9520 -22.9045
   -22.9044 -22.9044 -22.8994 -22.8994 -22.8863 -22.8863 -22.7954 -22.7954
   -22.7953 -22.7942 -22.7941 -22.7941 -22.7689 -22.7688 -22.7688 -22.6555
   -22.4780 -22.3848 -22.3848 -22.3848 -22.3663 -22.3661 -22.3661 -22.3479
   -22.3479 -22.3205 -22.3205 -22.3204 -22.3122 -22.3121 -22.3121 -22.2800
   -22.2366 -22.2366 -22.2364 -22.2229 -22.2229 -22.2170 -22.2168 -22.2168
    14.7110  15.5531  15.5532  15.5532  16.1871  16.1872  16.1872  17.0008
    17.1374  17.1374  17.2838  17.2838  17.2838  17.4504  17.4504  17.4505
    17.5062  17.5062  17.5062  17.6014  18.0085  18.0085  18.1369  18.1369
    18.1738  18.1738  18.1739  18.2411  18.2411  18.2412  18.3038  18.3038
    18.3038  18.4750  18.4750  18.4750  18.4881  18.4882  18.4882  18.5388
    18.5390  18.5390  18.7075  18.7075  18.8265  18.8265  18.8266  19.3976
    21.3762  21.3762  21.3763  21.5506  21.5805  21.5806  21.5806  21.5933
    21.5933  21.6140  21.6140  21.6140  21.6557  21.6557  21.6558  21.8442
    21.8442  21.8775  21.8775  21.8776  21.9000  21.9000

          k = 0.3934 0.3934-0.5058 ( 12090 PWs)   bands (ev):

   -51.3351 -51.3346 -51.3000 -51.2999 -51.2995 -51.2994 -51.2738 -51.2732
   -51.1696 -51.1692 -51.1570 -51.1569 -51.1566 -51.1566 -51.1351 -51.1347
   -22.9821 -22.9820 -22.9820 -22.9818 -22.9502 -22.9498 -22.9432 -22.9431
   -22.9277 -22.9275 -22.8521 -22.8516 -22.8491 -22.8491 -22.8490 -22.8490
   -22.8304 -22.8302 -22.7989 -22.7988 -22.7987 -22.7986 -22.7244 -22.7243
   -22.4297 -22.4295 -22.3590 -22.3589 -22.3457 -22.3457 -22.3455 -22.3455
   -22.3344 -22.3343 -22.3342 -22.3341 -22.2921 -22.2919 -22.2873 -22.2869
   -22.2675 -22.2671 -22.2304 -22.2303 -22.2303 -22.2302 -22.2171 -22.2171
    15.1169  15.1171  15.8841  15.8841  15.8843  15.8843  16.6010  16.6013
    17.2843  17.2846  17.3780  17.3782  17.4060  17.4060  17.4061  17.4061
    17.5869  17.5872  17.8538  17.8539  17.8540  17.8542  18.0472  18.0473
    18.0865  18.0868  18.1942  18.1943  18.1961  18.1962  18.3080  18.3081
    18.3082  18.3082  18.4582  18.4583  18.4584  18.4585  18.5173  18.5173
    18.5173  18.5173  18.5793  18.5794  18.5944  18.5947  19.0302  19.0303
    21.4915  21.4917  21.5229  21.5229  21.5231  21.5232  21.6639  21.6639
    21.6640  21.6640  21.7243  21.7247  21.7457  21.7460  21.8153  21.8156
    21.8651  21.8654  21.8676  21.8676  21.8679  21.8679

          k = 0.3934-0.5058-0.5058 ( 12108 PWs)   bands (ev):

   -51.3190 -51.3185 -51.3184 -51.3181 -51.2879 -51.2874 -51.2873 -51.2870
   -51.1626 -51.1624 -51.1622 -51.1621 -51.1450 -51.1447 -51.1446 -51.1444
   -22.9520 -22.9520 -22.9518 -22.9518 -22.9484 -22.9481 -22.9480 -22.9479
   -22.8880 -22.8878 -22.8877 -22.8877 -22.8456 -22.8453 -22.8452 -22.8451
   -22.8410 -22.8410 -22.8409 -22.8409 -22.7866 -22.7865 -22.7864 -22.7864
   -22.3850 -22.3849 -22.3848 -22.3848 -22.3342 -22.3342 -22.3340 -22.3340
   -22.3151 -22.3149 -22.3149 -22.3148 -22.2887 -22.2884 -22.2883 -22.2882
   -22.2677 -22.2675 -22.2674 -22.2673 -22.2299 -22.2299 -22.2298 -22.2298
    15.4963  15.4963  15.4965  15.4966  16.2580  16.2581  16.2583  16.2584
    17.3848  17.3850  17.3851  17.3852  17.6422  17.6423  17.6425  17.6426
    17.7660  17.7661  17.7662  17.7663  17.7688  17.7688  17.7689  17.7690
    18.2102  18.2102  18.2103  18.2103  18.2402  18.2405  18.2406  18.2407
    18.2463  18.2463  18.2465  18.2465  18.4208  18.4209  18.4210  18.4210
    18.4970  18.4971  18.4972  18.4973  18.6753  18.6753  18.6753  18.6754
    21.5679  21.5681  21.5682  21.5683  21.6443  21.6445  21.6446  21.6448
    21.7499  21.7501  21.7503  21.7504  21.8379  21.8379  21.8380  21.8381
    21.8470  21.8472  21.8474  21.8475  21.8868  21.8868

          k =-0.5058-0.5058-0.5058 ( 12160 PWs)   bands (ev):

   -51.3047 -51.3041 -51.3041 -51.3040 -51.3038 -51.3036 -51.3036 -51.3034
   -51.1530 -51.1526 -51.1526 -51.1525 -51.1524 -51.1523 -51.1523 -51.1521
   -22.9017 -22.9017 -22.9017 -22.9015 -22.9014 -22.9014 -22.9013 -22.9013
   -22.9012 -22.9011 -22.9011 -22.9011 -22.9010 -22.9010 -22.9010 -22.9010
   -22.8371 -22.8370 -22.8370 -22.8369 -22.8369 -22.8368 -22.8368 -22.8368
   -22.3471 -22.3469 -22.3469 -22.3469 -22.3468 -22.3468 -22.3468 -22.3467
   -22.2776 -22.2776 -22.2775 -22.2773 -22.2773 -22.2772 -22.2772 -22.2772
   -22.2771 -22.2770 -22.2770 -22.2770 -22.2769 -22.2769 -22.2769 -22.2769
    15.8797  15.8797  15.8798  15.8798  15.8799  15.8800  15.8800  15.8801
    17.7038  17.7038  17.7039  17.7039  17.7039  17.7040  17.7040  17.7040
    17.7041  17.7041  17.7041  17.7042  17.7042  17.7042  17.7043  17.7043
    18.3017  18.3017  18.3017  18.3017  18.3018  18.3018  18.3018  18.3019
    18.3143  18.3143  18.3143  18.3145  18.3145  18.3145  18.3145  18.3146
    18.3146  18.3147  18.3147  18.3147  18.3147  18.3147  18.3148  18.3148
    21.7031  21.7032  21.7034  21.7034  21.7034  21.7034  21.7035  21.7035
    21.7036  21.7036  21.7036  21.7037  21.7038  21.7038  21.7038  21.7038
    22.1054  22.1055  22.1055  22.1057  22.1058  22.1058

 ------ SPIN DOWN ----------


          k = 0.0562 0.0562 0.0562 ( 12071 PWs)   bands (ev):

   -51.4607 -51.2652 -51.2652 -51.2652 -51.2381 -51.2381 -51.2381 -51.2187
   -51.2122 -51.2122 -51.2119 -51.1987 -51.1987 -51.1984 -51.1793 -51.0517
   -23.1948 -23.1948 -23.1948 -23.1897 -23.1897 -23.1897 -22.8671 -22.8671
   -22.8558 -22.7616 -22.7588 -22.7586 -22.7586 -22.7189 -22.7189 -22.6898
   -22.6897 -22.6897 -22.6207 -22.6207 -22.5778 -22.5354 -22.5354 -22.5353
   -22.5146 -22.5144 -22.5144 -22.4993 -22.4990 -22.4990 -22.4618 -22.4617
   -22.4617 -22.4599 -22.4599 -22.4599 -22.4449 -22.4449 -22.4448 -22.1657
   -22.1657 -22.1657 -22.1639 -22.1604 -22.1604 -22.1604 -22.1516 -22.1516
    12.4749  15.8247  15.8248  15.8248  15.8459  15.8459  15.8459  15.9104
    15.9104  16.1936  16.1937  16.1937  16.6132  16.6133  16.6133  17.8412
    17.8731  17.8731  17.8731  17.8899  17.8899  17.8899  17.9528  17.9528
    18.1387  18.1387  18.2051  18.2648  18.2648  18.2648  18.7474  18.7474
    18.7474  19.4983  19.4983  19.5569  19.8633  19.8633  19.8633  19.9858
    19.9858  19.9859  20.0958  20.0958  20.0958  20.2118  20.2118  20.2118
    21.1418  21.1420  21.1420  21.2441  21.2441  21.2446  21.4524  21.4525
    21.4525  21.4998  21.4999  21.4999  21.6706  21.6706  21.6706  21.6795
    21.6795  21.7365  21.7366  21.7366  22.0575  22.0575

          k = 0.0562 0.0562 0.1686 ( 12089 PWs)   bands (ev):

   -51.4535 -51.2963 -51.2636 -51.2636 -51.2398 -51.2398 -51.2369 -51.2199
   -51.2113 -51.2111 -51.1995 -51.1993 -51.1974 -51.1832 -51.1805 -51.0567
   -23.1800 -23.1800 -23.1788 -23.1741 -23.1652 -23.1652 -22.8745 -22.8557
   -22.8383 -22.8270 -22.8098 -22.8097 -22.8059 -22.8044 -22.7476 -22.7475
   -22.6918 -22.6287 -22.6219 -22.5943 -22.5714 -22.5351 -22.5350 -22.5346
   -22.5113 -22.5099 -22.5021 -22.5019 -22.4720 -22.4649 -22.4649 -22.4622
   -22.4621 -22.4598 -22.4598 -22.4041 -22.4015 -22.4014 -22.3879 -22.1911
   -22.1821 -22.1821 -22.1801 -22.1757 -22.1656 -22.1656 -22.1615 -22.1561
    12.6158  15.6380  15.8606  15.8606  15.9235  15.9235  15.9405  15.9606
    15.9837  15.9956  16.2319  16.2319  16.6422  16.6422  16.8482  17.7040
    17.7961  17.8302  17.8533  17.8666  17.8685  17.9335  17.9335  17.9837
    17.9837  18.0027  18.2281  18.2281  18.3807  18.3872  18.6492  18.6492
    19.2017  19.4645  19.4902  19.6012  19.6013  19.6325  19.6858  19.8183
    19.8183  19.8579  20.1936  20.1936  20.3418  20.3418  20.3794  20.5034
    20.6545  20.6546  20.8436  20.9554  20.9554  20.9664  21.1033  21.4293
    21.4293  21.5786  21.5823  21.5823  21.6860  21.6861  21.6956  21.7198
    21.7271  21.7316  21.7316  21.7610  22.0609  22.0783

          k = 0.0562 0.0562 0.2810 ( 12109 PWs)   bands (ev):

   -51.4394 -51.3305 -51.2607 -51.2606 -51.2430 -51.2430 -51.2347 -51.2221
   -51.2097 -51.2095 -51.2009 -51.2007 -51.1953 -51.1827 -51.1529 -51.0668
   -23.1471 -23.1467 -23.1467 -23.1436 -23.1219 -23.1219 -22.9018 -22.8914
   -22.8825 -22.8825 -22.8786 -22.8391 -22.8331 -22.8265 -22.8265 -22.8127
   -22.6643 -22.6535 -22.6334 -22.6144 -22.5397 -22.5336 -22.5316 -22.5314
   -22.5071 -22.5069 -22.4939 -22.4619 -22.4618 -22.4597 -22.4597 -22.4512
   -22.4361 -22.4034 -22.4034 -22.3473 -22.3457 -22.3456 -22.3323 -22.2379
   -22.2085 -22.2085 -22.2081 -22.2057 -22.1818 -22.1818 -22.1813 -22.1729
    12.8919  15.0136  15.9445  15.9445  16.0533  16.0533  16.1289  16.1549
    16.1628  16.1807  16.2707  16.2707  16.6459  16.6460  16.8938  17.3586
    17.5228  17.5974  17.7614  17.8190  17.8318  17.8372  18.0688  18.0688
    18.1517  18.1518  18.2574  18.2574  18.6012  18.6013  18.6817  18.7023
    19.2475  19.2475  19.4402  19.4421  19.4422  19.4670  19.4779  19.5588
    19.7437  19.9647  20.0187  20.0187  20.2626  20.2626  20.5090  20.5091
    20.5101  20.5585  20.5604  20.5604  20.5615  20.7200  20.8560  21.3817
    21.4444  21.4445  21.5757  21.5758  21.7433  21.7653  21.7974  21.8104
    21.8105  22.0260  22.0496  22.0611  22.0671  22.0975

          k = 0.0562 0.0562 0.3934 ( 12113 PWs)   bands (ev):

   -51.4191 -51.3634 -51.2566 -51.2566 -51.2472 -51.2472 -51.2318 -51.2250
   -51.2076 -51.2074 -51.2029 -51.2027 -51.1923 -51.1856 -51.1253 -51.0818
   -23.1007 -23.0990 -23.0964 -23.0963 -23.0624 -23.0624 -22.9752 -22.9708
   -22.9596 -22.9596 -22.9101 -22.9101 -22.8793 -22.8621 -22.8005 -22.7790
   -22.7091 -22.6876 -22.6323 -22.5879 -22.5635 -22.5263 -22.5262 -22.5232
   -22.5134 -22.5132 -22.4612 -22.4612 -22.4599 -22.4598 -22.4573 -22.3741
   -22.3655 -22.3437 -22.3437 -22.3005 -22.2950 -22.2921 -22.2920 -22.2813
   -22.2498 -22.2492 -22.2446 -22.2446 -22.2107 -22.2085 -22.2085 -22.2002
    13.2919  14.3837  16.0600  16.0601  16.2224  16.2224  16.2583  16.2584
    16.3436  16.3658  16.4728  16.4873  16.5647  16.5647  16.7888  16.9647
    17.2145  17.2382  17.7379  17.7639  17.7799  17.7910  18.2732  18.2732
    18.3867  18.3867  18.4545  18.4545  18.6926  18.6927  18.9290  18.9290
    19.0615  19.0677  19.0677  19.0819  19.4094  19.4094  19.4292  19.4686
    19.4789  19.4848  19.6210  19.6210  19.8935  20.0057  20.0129  20.3063
    20.3405  20.8041  20.8041  20.8443  20.8443  21.0980  21.1097  21.2583
    21.2632  21.2633  21.3953  21.3954  21.8079  21.8255  21.9076  21.9576
    21.9746  21.9771  22.0745  22.0900  22.1208  22.1242

          k = 0.0562 0.0562-0.5058 ( 12112 PWs)   bands (ev):

   -51.3936 -51.3933 -51.2521 -51.2521 -51.2518 -51.2518 -51.2286 -51.2283
   -51.2054 -51.2052 -51.2050 -51.2048 -51.1892 -51.1887 -51.1016 -51.1012
   -23.0422 -23.0419 -23.0415 -23.0412 -23.0327 -23.0327 -23.0326 -23.0326
   -22.9905 -22.9905 -22.9905 -22.9904 -22.8748 -22.8746 -22.7588 -22.7585
   -22.7369 -22.7367 -22.5978 -22.5975 -22.5562 -22.5558 -22.5201 -22.5199
   -22.5198 -22.5197 -22.4606 -22.4606 -22.4602 -22.4602 -22.3757 -22.3755
   -22.3065 -22.3062 -22.3025 -22.3022 -22.2900 -22.2900 -22.2900 -22.2900
   -22.2492 -22.2489 -22.2456 -22.2456 -22.2456 -22.2455 -22.2369 -22.2367
    13.7976  13.7979  16.1781  16.1781  16.1782  16.1782  16.4065  16.4066
    16.4066  16.4067  16.5931  16.5932  16.6239  16.6242  16.8397  16.8401
    16.8516  16.8518  17.7483  17.7485  17.7613  17.7615  18.5332  18.5332
    18.5332  18.5333  18.6505  18.6505  18.6506  18.6506  18.9141  18.9141
    18.9142  18.9142  19.1083  19.1083  19.1085  19.1085  19.4388  19.4390
    19.4702  19.4705  19.5084  19.5085  19.5204  19.5205  20.0818  20.0820
    20.7425  20.7427  21.0464  21.0464  21.0464  21.0465  21.1466  21.1467
    21.1467  21.1468  21.5363  21.5365  21.6940  21.6943  21.8820  21.8823
    21.8989  21.8992  22.0447  22.0450  22.0820  22.0824

          k = 0.0562 0.1686 0.1686 ( 12102 PWs)   bands (ev):

   -51.4465 -51.2936 -51.2935 -51.2621 -51.2448 -51.2386 -51.2386 -51.2211
   -51.2104 -51.1983 -51.1981 -51.1968 -51.1835 -51.1834 -51.1816 -51.0616
[...]
    21.3623  21.3623  21.3686  21.3687  21.4724  21.4726  21.6458  21.6460
    21.6696  21.6698  21.8236  21.8238  21.8698  21.8700

          k = 0.1686-0.5058-0.5058 ( 12100 PWs)   bands (ev):

   -51.3387 -51.3385 -51.3385 -51.3382 -51.2533 -51.2531 -51.2530 -51.2528
   -51.1869 -51.1867 -51.1866 -51.1860 -51.1355 -51.1353 -51.1352 -51.1347
   -23.0190 -23.0190 -23.0190 -23.0190 -23.0041 -23.0039 -23.0039 -23.0038
   -22.9723 -22.9721 -22.9720 -22.9719 -22.7273 -22.7271 -22.7271 -22.7268
   -22.7079 -22.7079 -22.7077 -22.7077 -22.7007 -22.7007 -22.7006 -22.7006
   -22.4747 -22.4746 -22.4745 -22.4745 -22.4693 -22.4693 -22.4693 -22.4693
   -22.3089 -22.3087 -22.3087 -22.3083 -22.2732 -22.2729 -22.2729 -22.2728
   -22.2557 -22.2555 -22.2555 -22.2554 -22.1683 -22.1683 -22.1683 -22.1683
    14.9296  14.9298  14.9298  14.9300  16.7689  16.7690  16.7690  16.7692
    16.8789  16.8791  16.8791  16.8792  17.2736  17.2736  17.2737  17.2737
    17.5474  17.5476  17.5476  17.5478  17.8746  17.8747  17.8747  17.8749
    18.0386  18.0387  18.0387  18.0388  18.5180  18.5182  18.5182  18.5183
    18.5914  18.5914  18.5915  18.5915  18.7391  18.7391  18.7392  18.7392
    18.9927  18.9927  18.9927  18.9929  19.5441  19.5442  19.5442  19.5442
    21.2457  21.2458  21.2458  21.2460  21.3725  21.3727  21.3727  21.3728
    21.5179  21.5181  21.5181  21.5182  21.5228  21.5229  21.5230  21.5232
    21.5576  21.5576  21.5577  21.5577  21.8014  21.8016

          k = 0.2810 0.2810 0.2810 ( 12091 PWs)   bands (ev):

   -51.4016 -51.3092 -51.3092 -51.3091 -51.2608 -51.2608 -51.2607 -51.2343
   -51.1842 -51.1832 -51.1832 -51.1828 -51.1606 -51.1606 -51.1603 -51.0921
   -23.0933 -23.0933 -23.0933 -23.0080 -23.0079 -23.0079 -22.9756 -22.9697
   -22.9697 -22.9697 -22.8886 -22.8886 -22.8508 -22.8508 -22.7574 -22.7571
   -22.7571 -22.6954 -22.6954 -22.6954 -22.6402 -22.6267 -22.6266 -22.6266
   -22.4443 -22.4331 -22.4331 -22.4330 -22.4328 -22.4327 -22.4304 -22.4302
   -22.4302 -22.3649 -22.3649 -22.3649 -22.3029 -22.2714 -22.2713 -22.2713
   -22.2278 -22.2278 -22.2278 -22.2013 -22.2013 -22.2013 -22.1853 -22.1853
    13.6693  15.5039  15.5039  15.5039  16.1563  16.1564  16.1564  16.5790
    16.5790  16.6651  16.6652  16.6652  17.2139  17.2139  17.2139  17.3410
    17.4829  17.4829  17.4830  17.8452  17.8452  17.8619  18.0448  18.0448
    18.0448  18.2870  18.2870  18.2870  18.3321  18.3321  18.6636  18.6637
    18.6637  18.8982  18.8982  18.8983  19.0399  19.0399  19.0399  19.0916
    19.0916  19.3179  19.3179  19.3179  19.4024  19.4025  19.4025  20.5714
    20.7476  20.8704  20.8704  20.8704  21.1566  21.1567  21.1567  21.3498
    21.3498  21.3498  21.5581  21.5581  21.6293  21.6294  21.6294  21.7808
    21.7809  21.7809  21.9682  21.9682  21.9682  21.9725

          k = 0.2810 0.2810 0.3934 ( 12098 PWs)   bands (ev):

   -51.3842 -51.3369 -51.2996 -51.2996 -51.2745 -51.2745 -51.2551 -51.2411
   -51.1833 -51.1828 -51.1755 -51.1753 -51.1641 -51.1640 -51.1384 -51.1038
   -23.0668 -23.0668 -23.0493 -22.9994 -22.9976 -22.9976 -22.9832 -22.9671
   -22.9495 -22.9494 -22.9259 -22.9240 -22.8536 -22.8181 -22.8180 -22.7992
   -22.7552 -22.7014 -22.7014 -22.6825 -22.6807 -22.6619 -22.6619 -22.5913
   -22.5139 -22.4801 -22.4442 -22.4419 -22.4078 -22.4077 -22.3832 -22.3831
   -22.3738 -22.3738 -22.3600 -22.3085 -22.3025 -22.3024 -22.2833 -22.2674
   -22.2425 -22.2172 -22.2159 -22.2159 -22.2046 -22.2019 -22.2018 -22.1827
    14.0305  14.9822  15.7168  15.7169  16.0660  16.0661  16.5063  16.7455
    16.7985  16.8484  16.8485  16.9328  17.1851  17.1896  17.1896  17.2079
    17.3330  17.4001  17.6989  17.6989  17.8674  17.9801  18.1107  18.1265
    18.1494  18.1615  18.1615  18.3825  18.3826  18.4930  18.4931  18.5258
    18.7075  18.7075  18.7766  18.7766  18.7982  18.8464  18.8980  18.9022
    18.9529  19.0002  19.0002  19.0103  19.0900  19.0901  19.5853  20.2920
    20.8645  21.0443  21.0979  21.0979  21.2247  21.2247  21.2805  21.2805
    21.4117  21.4775  21.4960  21.5217  21.5217  21.5416  21.6917  21.6973
    21.8773  21.8911  21.9736  21.9736  21.9756  21.9798

          k = 0.2810 0.2810-0.5058 ( 12112 PWs)   bands (ev):

   -51.3624 -51.3622 -51.2879 -51.2879 -51.2877 -51.2876 -51.2484 -51.2482
   -51.1830 -51.1826 -51.1693 -51.1691 -51.1690 -51.1688 -51.1195 -51.1192
   -23.0327 -23.0327 -23.0326 -23.0326 -22.9931 -22.9928 -22.9911 -22.9909
   -22.9513 -22.9512 -22.8843 -22.8843 -22.8843 -22.8842 -22.8086 -22.8083
   -22.7418 -22.7416 -22.6887 -22.6887 -22.6885 -22.6885 -22.6034 -22.6034
   -22.5286 -22.5285 -22.4469 -22.4467 -22.3884 -22.3884 -22.3882 -22.3882
   -22.3398 -22.3398 -22.3398 -22.3397 -22.2961 -22.2958 -22.2713 -22.2712
   -22.2587 -22.2584 -22.2069 -22.2068 -22.2068 -22.2068 -22.1893 -22.1893
    14.4783  14.4785  15.9182  15.9182  15.9184  15.9184  16.9328  16.9330
    16.9580  16.9582  17.0227  17.0229  17.0340  17.0340  17.0341  17.0341
    17.1956  17.1957  17.9163  17.9165  18.0338  18.0339  18.0729  18.0729
    18.0731  18.0731  18.3192  18.3192  18.3192  18.3193  18.5033  18.5034
    18.7209  18.7211  18.7998  18.7999  18.8000  18.8000  18.8214  18.8214
    18.8215  18.8215  18.8662  18.8662  18.9119  18.9122  19.8915  19.8916
    21.1758  21.1758  21.2339  21.2340  21.2465  21.2465  21.2465  21.2465
    21.3287  21.3287  21.3288  21.3289  21.7269  21.7271  21.7863  21.7865
    21.8488  21.8490  21.8522  21.8525  21.9801  21.9803

          k = 0.2810 0.3934 0.3934 ( 12096 PWs)   bands (ev):

   -51.3682 -51.3249 -51.3248 -51.2927 -51.2907 -51.2676 -51.2675 -51.2501
   -51.1803 -51.1765 -51.1763 -51.1670 -51.1632 -51.1446 -51.1445 -51.1141
   -23.0460 -23.0269 -23.0269 -22.9959 -22.9874 -22.9874 -22.9740 -22.9553
   -22.9553 -22.9368 -22.9327 -22.8855 -22.8592 -22.8489 -22.8147 -22.7604
   -22.7604 -22.7452 -22.7450 -22.7320 -22.7196 -22.7195 -22.7068 -22.5957
   -22.5267 -22.4295 -22.4294 -22.4168 -22.4122 -22.4122 -22.3808 -22.3699
   -22.3443 -22.3395 -22.3335 -22.3188 -22.3188 -22.2861 -22.2860 -22.2762
   -22.2386 -22.2385 -22.2341 -22.2231 -22.2004 -22.2004 -22.1975 -22.1890
    14.3743  15.2551  15.2552  15.8374  15.9748  16.4126  16.4126  16.8935
    16.9905  17.0187  17.1217  17.1217  17.1661  17.1661  17.2168  17.4247
    17.4293  17.5068  17.5068  17.6243  17.9505  18.0682  18.0694  18.0831
    18.0832  18.1556  18.1556  18.2565  18.2710  18.3533  18.4338  18.5892
    18.5892  18.5975  18.6178  18.6179  18.6264  18.6398  18.6398  18.7508
    18.7509  18.8056  18.8209  18.8344  18.8967  19.2014  19.2015  19.8451
    21.1908  21.2338  21.2338  21.2613  21.3052  21.3970  21.4627  21.4787
    21.4787  21.5095  21.5095  21.5257  21.6041  21.6041  21.6729  21.8153
    21.8514  21.8515  21.8540  21.8822  21.9580  21.9699

          k = 0.2810 0.3934-0.5058 ( 12094 PWs)   bands (ev):

   -51.3482 -51.3480 -51.3099 -51.3097 -51.2799 -51.2796 -51.2593 -51.2590
   -51.1782 -51.1778 -51.1712 -51.1709 -51.1530 -51.1527 -51.1279 -51.1276
   -23.0169 -23.0169 -23.0062 -23.0061 -22.9786 -22.9783 -22.9653 -22.9653
   -22.9638 -22.9637 -22.9068 -22.9067 -22.8158 -22.8157 -22.8114 -22.8112
   -22.7753 -22.7752 -22.7418 -22.7416 -22.7385 -22.7384 -22.6686 -22.6686
   -22.4786 -22.4785 -22.4141 -22.4139 -22.3925 -22.3923 -22.3824 -22.3823
   -22.3395 -22.3393 -22.3118 -22.3117 -22.2849 -22.2847 -22.2769 -22.2768
   -22.2712 -22.2710 -22.2315 -22.2314 -22.1975 -22.1975 -22.1920 -22.1920
    14.7939  14.7942  15.5560  15.5562  16.2288  16.2290  16.8227  16.8229
    17.0414  17.0416  17.0991  17.0992  17.2760  17.2762  17.3189  17.3190
    17.3740  17.3742  17.8802  17.8804  17.9044  17.9046  18.0039  18.0040
    18.0101  18.0103  18.2160  18.2161  18.3045  18.3046  18.4004  18.4005
    18.5143  18.5144  18.5266  18.5268  18.6410  18.6410  18.6804  18.6804
    18.7350  18.7351  18.8058  18.8060  18.8743  18.8743  19.4644  19.4644
    21.3709  21.3710  21.3873  21.3873  21.4159  21.4160  21.4425  21.4427
    21.4782  21.4782  21.5394  21.5394  21.7071  21.7073  21.7144  21.7146
    21.7904  21.7907  21.7916  21.7918  21.8844  21.8846

          k = 0.2810-0.5058-0.5058 ( 12124 PWs)   bands (ev):

   -51.3305 -51.3303 -51.3303 -51.3300 -51.2702 -51.2700 -51.2699 -51.2697
   -51.1744 -51.1742 -51.1740 -51.1735 -51.1393 -51.1391 -51.1390 -51.1385
   -22.9917 -22.9917 -22.9917 -22.9917 -22.9835 -22.9833 -22.9833 -22.9831
   -22.9345 -22.9343 -22.9343 -22.9342 -22.7856 -22.7854 -22.7853 -22.7851
   -22.7733 -22.7733 -22.7733 -22.7733 -22.7421 -22.7420 -22.7419 -22.7419
   -22.4289 -22.4288 -22.4287 -22.4287 -22.3988 -22.3988 -22.3988 -22.3988
   -22.2998 -22.2996 -22.2995 -22.2992 -22.2907 -22.2905 -22.2905 -22.2904
   -22.2603 -22.2601 -22.2600 -22.2599 -22.1933 -22.1933 -22.1933 -22.1933
    15.1669  15.1671  15.1672  15.1673  16.5626  16.5628  16.5628  16.5629
    17.0923  17.0924  17.0925  17.0926  17.5149  17.5150  17.5150  17.5150
    17.5878  17.5880  17.5880  17.5882  17.8233  17.8234  17.8235  17.8236
    18.1167  18.1168  18.1168  18.1168  18.3216  18.3218  18.3218  18.3219
    18.5175  18.5175  18.5175  18.5175  18.5183  18.5183  18.5184  18.5184
    18.7424  18.7425  18.7425  18.7427  19.1074  19.1074  19.1075  19.1075
    21.4546  21.4548  21.4548  21.4550  21.5790  21.5792  21.5792  21.5794
    21.5905  21.5905  21.5905  21.5907  21.6421  21.6422  21.6422  21.6423
    21.7822  21.7824  21.7824  21.7827  21.9193  21.9193

          k = 0.3934 0.3934 0.3934 ( 12091 PWs)   bands (ev):

   -51.3535 -51.3137 -51.3137 -51.3136 -51.2841 -51.2841 -51.2840 -51.2619
   -51.1744 -51.1659 -51.1659 -51.1657 -51.1498 -51.1498 -51.1496 -51.1231
   -23.0039 -23.0039 -23.0039 -22.9763 -22.9763 -22.9763 -22.9521 -22.9046
   -22.9044 -22.9044 -22.8995 -22.8995 -22.8864 -22.8864 -22.7954 -22.7954
   -22.7954 -22.7943 -22.7941 -22.7941 -22.7689 -22.7689 -22.7689 -22.6556
   -22.4781 -22.3850 -22.3848 -22.3848 -22.3663 -22.3663 -22.3663 -22.3480
   -22.3480 -22.3205 -22.3205 -22.3205 -22.3123 -22.3121 -22.3121 -22.2801
   -22.2366 -22.2366 -22.2366 -22.2230 -22.2230 -22.2170 -22.2170 -22.2170
    14.7110  15.5532  15.5533  15.5533  16.1871  16.1872  16.1872  17.0008
    17.1373  17.1373  17.2838  17.2838  17.2838  17.4504  17.4504  17.4504
    17.5061  17.5062  17.5062  17.6014  18.0085  18.0085  18.1369  18.1369
    18.1738  18.1738  18.1738  18.2411  18.2411  18.2411  18.3037  18.3038
    18.3038  18.4749  18.4750  18.4750  18.4881  18.4881  18.4882  18.5389
    18.5389  18.5389  18.7075  18.7075  18.8264  18.8265  18.8265  19.3976
    21.3761  21.3761  21.3761  21.5506  21.5805  21.5805  21.5805  21.5932
    21.5932  21.6139  21.6139  21.6139  21.6556  21.6557  21.6557  21.8440
    21.8440  21.8774  21.8774  21.8774  21.8999  21.8999

          k = 0.3934 0.3934-0.5058 ( 12090 PWs)   bands (ev):

   -51.3351 -51.3348 -51.3000 -51.2999 -51.2997 -51.2996 -51.2737 -51.2734
   -51.1697 -51.1694 -51.1571 -51.1570 -51.1568 -51.1566 -51.1352 -51.1349
   -22.9821 -22.9821 -22.9820 -22.9820 -22.9502 -22.9499 -22.9433 -22.9432
   -22.9277 -22.9276 -22.8521 -22.8518 -22.8493 -22.8492 -22.8491 -22.8490
   -22.8304 -22.8303 -22.7989 -22.7989 -22.7988 -22.7988 -22.7245 -22.7244
   -22.4297 -22.4296 -22.3591 -22.3590 -22.3458 -22.3457 -22.3457 -22.3456
   -22.3345 -22.3344 -22.3343 -22.3343 -22.2922 -22.2921 -22.2874 -22.2871
   -22.2675 -22.2672 -22.2305 -22.2304 -22.2304 -22.2304 -22.2172 -22.2172
    15.1169  15.1171  15.8841  15.8842  15.8843  15.8844  16.6011  16.6013
    17.2843  17.2845  17.3780  17.3782  17.4059  17.4060  17.4060  17.4061
    17.5869  17.5871  17.8538  17.8539  17.8540  17.8541  18.0472  18.0473
    18.0865  18.0867  18.1941  18.1942  18.1960  18.1962  18.3080  18.3080
    18.3081  18.3082  18.4582  18.4582  18.4584  18.4584  18.5172  18.5173
    18.5173  18.5173  18.5793  18.5794  18.5944  18.5946  19.0302  19.0302
    21.4914  21.4915  21.5228  21.5228  21.5230  21.5230  21.6639  21.6639
    21.6639  21.6639  21.7243  21.7245  21.7457  21.7459  21.8153  21.8155
    21.8650  21.8652  21.8675  21.8675  21.8677  21.8678

          k = 0.3934-0.5058-0.5058 ( 12108 PWs)   bands (ev):

   -51.3188 -51.3186 -51.3186 -51.3183 -51.2877 -51.2875 -51.2875 -51.2872
   -51.1627 -51.1626 -51.1624 -51.1620 -51.1451 -51.1449 -51.1448 -51.1443
   -22.9520 -22.9520 -22.9520 -22.9520 -22.9484 -22.9482 -22.9482 -22.9480
   -22.8881 -22.8879 -22.8878 -22.8878 -22.8456 -22.8454 -22.8454 -22.8452
   -22.8410 -22.8410 -22.8410 -22.8410 -22.7867 -22.7866 -22.7865 -22.7865
   -22.3851 -22.3850 -22.3849 -22.3849 -22.3342 -22.3342 -22.3342 -22.3342
   -22.3152 -22.3150 -22.3150 -22.3149 -22.2888 -22.2886 -22.2885 -22.2882
   -22.2678 -22.2676 -22.2676 -22.2674 -22.2300 -22.2300 -22.2299 -22.2299
    15.4963  15.4964  15.4965  15.4967  16.2581  16.2582  16.2583  16.2584
    17.3848  17.3850  17.3850  17.3851  17.6422  17.6424  17.6424  17.6426
    17.7659  17.7661  17.7661  17.7663  17.7687  17.7689  17.7689  17.7690
    18.2102  18.2102  18.2102  18.2103  18.2403  18.2405  18.2405  18.2406
    18.2461  18.2463  18.2464  18.2467  18.4209  18.4209  18.4209  18.4209
    18.4970  18.4971  18.4971  18.4973  18.6753  18.6753  18.6753  18.6753
    21.5678  21.5680  21.5680  21.5682  21.6442  21.6444  21.6444  21.6447
    21.7499  21.7500  21.7501  21.7503  21.8378  21.8379  21.8379  21.8380
    21.8469  21.8471  21.8471  21.8474  21.8866  21.8867

          k =-0.5058-0.5058-0.5058 ( 12160 PWs)   bands (ev):

   -51.3044 -51.3042 -51.3042 -51.3041 -51.3039 -51.3039 -51.3039 -51.3035
   -51.1530 -51.1529 -51.1528 -51.1528 -51.1525 -51.1525 -51.1524 -51.1518
   -22.9017 -22.9016 -22.9016 -22.9015 -22.9015 -22.9015 -22.9015 -22.9015
   -22.9012 -22.9012 -22.9012 -22.9012 -22.9012 -22.9011 -22.9011 -22.9011
   -22.8373 -22.8370 -22.8370 -22.8370 -22.8370 -22.8369 -22.8369 -22.8368
   -22.3473 -22.3470 -22.3470 -22.3470 -22.3470 -22.3468 -22.3468 -22.3468
   -22.2776 -22.2776 -22.2776 -22.2775 -22.2774 -22.2774 -22.2774 -22.2774
   -22.2771 -22.2771 -22.2771 -22.2771 -22.2771 -22.2770 -22.2770 -22.2770
    15.8797  15.8798  15.8798  15.8799  15.8800  15.8800  15.8801  15.8802
    17.7038  17.7038  17.7039  17.7039  17.7039  17.7039  17.7039  17.7040
    17.7041  17.7041  17.7041  17.7041  17.7041  17.7041  17.7043  17.7043
    18.3016  18.3018  18.3018  18.3018  18.3018  18.3018  18.3018  18.3018
    18.3143  18.3143  18.3143  18.3143  18.3143  18.3144  18.3145  18.3145
    18.3146  18.3146  18.3146  18.3147  18.3147  18.3148  18.3148  18.3148
    21.7031  21.7031  21.7033  21.7033  21.7033  21.7033  21.7033  21.7033
    21.7035  21.7035  21.7035  21.7036  21.7036  21.7036  21.7038  21.7038
    22.1054  22.1054  22.1055  22.1055  22.1057  22.1057

     the Fermi energy is    20.4394 ev

!    total energy              =   -3971.52178098 Ry
     Harris-Foulkes estimate   =   -3971.52177875 Ry
     estimated scf accuracy    <       0.00000085 Ry

     total all-electron energy =    -33628.044660 Ry

     The total energy is the sum of the following terms:

     one-electron contribution =    -844.22402434 Ry
     hartree contribution      =     566.85115145 Ry
     xc contribution           =    -357.16351980 Ry
     ewald contribution        =   -2148.99365677 Ry
     one-center paw contrib.   =   -1188.00395871 Ry
     smearing contrib. (-TS)   =       0.01222718 Ry

     total magnetization       =    -0.00 Bohr mag/cell
     absolute magnetization    =     0.62 Bohr mag/cell

     convergence has been achieved in  31 iterations

     Forces acting on atoms (cartesian axes, Ry/au):

     atom    1 type  1   force =     0.00000000   -0.00000000    0.00000000
     atom    2 type  2   force =    -0.00000101   -0.00000101   -0.00000101
     atom    3 type  1   force =     0.00000000    0.00000000    0.00000000
     atom    4 type  2   force =    -0.00000101   -0.00000101    0.00000101
     atom    5 type  1   force =     0.00000000    0.00000000    0.00000000
     atom    6 type  2   force =    -0.00000101    0.00000101   -0.00000101
     atom    7 type  1   force =     0.00000000    0.00000000   -0.00000000
     atom    8 type  2   force =    -0.00000101    0.00000101    0.00000101
     atom    9 type  1   force =     0.00000000    0.00000000    0.00000000
     atom   10 type  2   force =     0.00000101   -0.00000101   -0.00000101
     atom   11 type  1   force =     0.00000000    0.00000000    0.00000000
     atom   12 type  2   force =     0.00000101   -0.00000101    0.00000101
     atom   13 type  1   force =     0.00000000    0.00000000    0.00000000
     atom   14 type  2   force =     0.00000101    0.00000101   -0.00000101
     atom   15 type  1   force =     0.00000000    0.00000000    0.00000000
     atom   16 type  2   force =     0.00000101    0.00000101    0.00000101

     Total force =     0.000005     Total SCF correction =     0.000424
     SCF correction compared to forces is large: reduce conv_thr to get better values


     Computing stress (Cartesian axis) and pressure

          total   stress  (Ry/bohr**3)                   (kbar)     P=  105.49
   0.00071708   0.00000000   0.00000000        105.49      0.00      0.00
   0.00000000   0.00071708   0.00000000          0.00    105.49      0.00
   0.00000000   0.00000000   0.00071708          0.00      0.00    105.49


     Writing output data file eqilAzeroiqNvcKr.save/
 
     init_run     :      7.39s CPU      7.71s WALL (       1 calls)
     electrons    :   1122.02s CPU   1143.13s WALL (       1 calls)
     forces       :      2.30s CPU      2.43s WALL (       1 calls)
     stress       :      9.95s CPU     10.03s WALL (       1 calls)

     Called by init_run:
     wfcinit      :      6.68s CPU      6.95s WALL (       1 calls)
     potinit      :      0.32s CPU      0.34s WALL (       1 calls)
     hinit0       :      0.21s CPU      0.21s WALL (       1 calls)

     Called by electrons:
     c_bands      :   1042.14s CPU   1059.63s WALL (      32 calls)
     sum_band     :     68.86s CPU     71.62s WALL (      32 calls)
     v_of_rho     :      0.81s CPU      0.87s WALL (      32 calls)
     newd         :      1.77s CPU      2.16s WALL (      32 calls)
     PAW_pot      :      8.33s CPU      8.69s WALL (      32 calls)
     mix_rho      :      0.26s CPU      0.28s WALL (      32 calls)

     Called by c_bands:
     init_us_2    :      4.57s CPU      4.65s WALL (    4690 calls)
     cegterg      :   1014.88s CPU   1032.10s WALL (    2240 calls)

     Called by sum_band:
     sum_band:bec :      0.69s CPU      0.70s WALL (    2240 calls)
     addusdens    :      3.25s CPU      3.66s WALL (      32 calls)

     Called by *egterg:
     h_psi        :    349.82s CPU    360.27s WALL (   11958 calls)
     s_psi        :     26.13s CPU     26.27s WALL (   11958 calls)
     g_psi        :      1.42s CPU      1.44s WALL (    9648 calls)
     cdiaghg      :    521.71s CPU    523.14s WALL (   11818 calls)

     Called by h_psi:
     h_psi:pot    :    347.46s CPU    357.88s WALL (   11958 calls)
     h_psi:calbec :     30.86s CPU     33.73s WALL (   11958 calls)
     vloc_psi     :    289.49s CPU    296.90s WALL (   11958 calls)
     add_vuspsi   :     27.02s CPU     27.19s WALL (   11958 calls)

     General routines
     calbec       :     44.26s CPU     48.20s WALL (   14548 calls)
     fft          :      0.64s CPU      0.71s WALL (     842 calls)
     ffts         :      0.06s CPU      0.07s WALL (     128 calls)
     fftw         :    318.00s CPU    326.11s WALL ( 2075676 calls)
     interpolate  :      0.08s CPU      0.09s WALL (      64 calls)
 
     Parallel routines
     fft_scatt_xy :     25.41s CPU     26.06s WALL ( 2076646 calls)
     fft_scatt_yz :    185.88s CPU    190.81s WALL ( 2076646 calls)
 
     PWSCF        : 19m 5.37s CPU    19m33.03s WALL

 
   This run was terminated on:  21: 8:34  15Jun2020            

=------------------------------------------------------------------------------=
   JOB DONE.
=------------------------------------------------------------------------------=
