--------------------------------------------------------------------------
WARNING: There was an error initializing an OpenFabrics device.

  Local host:   bear-pg0211u06a
  Local device: mlx5_0
--------------------------------------------------------------------------

     Program PWSCF v.6.3 starts on 15Jun2020 at 19:45:28 

     This program is part of the open-source Quantum ESPRESSO suite
     for quantum simulation of materials; please cite
         "P. Giannozzi et al., J. Phys.:Condens. Matter 21 395502 (2009);
         "P. Giannozzi et al., J. Phys.:Condens. Matter 29 465901 (2017);
          URL http://www.quantum-espresso.org", 
     in publications or presentations arising from this work. More details at
     http://www.quantum-espresso.org/quote

     Parallel version (MPI & OpenMP), running on      20 processor cores
     Number of MPI processes:                20
     Threads/MPI process:                     1

     MPI processes distributed on     1 nodes
     R & G space division:  proc/nbgrp/npool/nimage =      20
     Reading input from wd/eos/eos_001.in
Warning: card &IONS ignored
Warning: card ION_DYNAMICS = 'BFGS', ignored
Warning: card / ignored
Warning: card &CELL ignored
Warning: card CELL_DYNAMICS = 'BFGS', ignored
Warning: card CELL_FACTOR = 2.0, ignored
Warning: card PRESS = 0.0, ignored
Warning: card / ignored

     Current dimensions of program PWSCF are:
     Max number of different atomic species (ntypx) = 10
     Max number of k-points (npk) =  40000
     Max angular momentum in pseudopotentials (lmaxx) =  3
     Message from routine read_upf::
     Pseudo file /rds/homes/b/bxp912/pp/Cr.pbe-spn-kjpaw_psl.1.0.0.UPF has been successfully fixed on the fly.
To avoid this message in the future you can permanently fix 
 your pseudo files following instructions given in: 
https://gitlab.com/QEF/q-e/blob/master/upftools/how_to_fix_upf.md
               file Cr.pbe-spn-kjpaw_psl.1.0.0.UPF: wavefunction(s)  3S 3P 3D renormalized
     Message from routine read_upf::
     Pseudo file /rds/homes/b/bxp912/pp/Cr.pbe-spn-kjpaw_psl.1.0.0.UPF has been successfully fixed on the fly.
To avoid this message in the future you can permanently fix 
 your pseudo files following instructions given in: 
https://gitlab.com/QEF/q-e/blob/master/upftools/how_to_fix_upf.md
               file Cr.pbe-spn-kjpaw_psl.1.0.0.UPF: wavefunction(s)  3S 3P 3D renormalized

     Subspace diagonalization in iterative solution of the eigenvalue problem:
     a serial algorithm will be used

     Found symmetry operation: I + (  0.0000  0.0000  0.5000)
     This is a supercell, fractional translations are disabled
 
     Parallelization info
     --------------------
     sticks:   dense  smooth     PW     G-vecs:    dense   smooth      PW
     Min         189     125     34                 8783     4717     698
     Max         190     127     35                 8786     4718     701
     Sum        3793    2509    697               175685    94341   13997
 


     bravais-lattice index     =            0
     lattice parameter (alat)  =      10.7442  a.u.
     unit-cell volume          =    1167.3378 (a.u.)^3
     number of atoms/cell      =           16
     number of atomic types    =            2
     number of electrons       =       224.00
     number of Kohn-Sham states=          134
     kinetic-energy cutoff     =      71.0000  Ry
     charge density cutoff     =     430.0000  Ry
     convergence threshold     =      1.0E-06
     mixing beta               =       0.1000
     number of iterations used =           10  plain     mixing
     Exchange-correlation      = SLA PW PBX PBC ( 1  4  3  4 0 0)

     celldm(1)=  10.744168  celldm(2)=   0.000000  celldm(3)=   0.000000
     celldm(4)=   0.000000  celldm(5)=   0.000000  celldm(6)=   0.000000

     crystal axes: (cart. coord. in units of alat)
               a(1) = (   0.980000   0.000000   0.000000 )  
               a(2) = (   0.000000   0.980000   0.000000 )  
               a(3) = (   0.000000   0.000000   0.980000 )  

     reciprocal axes: (cart. coord. in units 2 pi/alat)
               b(1) = (  1.020408  0.000000  0.000000 )  
               b(2) = (  0.000000  1.020408  0.000000 )  
               b(3) = (  0.000000  0.000000  1.020408 )  


     PseudoPot. # 1 for Cr read from file:
     /rds/homes/b/bxp912/pp/Cr.pbe-spn-kjpaw_psl.1.0.0.UPF
     MD5 check sum: cb1c17117da000fe5e03c4f1a6841d9c
     Pseudo is Projector augmented-wave + core cor, Zval = 14.0
     Generated using "atomic" code by A. Dal Corso v.5.1
     Shape of augmentation charge: PSQ
     Using radial grid of 1183 points,  6 beta functions with: 
                l(1) =   0
                l(2) =   0
                l(3) =   1
                l(4) =   1
                l(5) =   2
                l(6) =   2
     Q(r) pseudized with 0 coefficients 


     PseudoPot. # 2 for Cr read from file:
     /rds/homes/b/bxp912/pp/Cr.pbe-spn-kjpaw_psl.1.0.0.UPF
     MD5 check sum: cb1c17117da000fe5e03c4f1a6841d9c
     Pseudo is Projector augmented-wave + core cor, Zval = 14.0
     Generated using "atomic" code by A. Dal Corso v.5.1
     Shape of augmentation charge: PSQ
     Using radial grid of 1183 points,  6 beta functions with: 
                l(1) =   0
                l(2) =   0
                l(3) =   1
                l(4) =   1
                l(5) =   2
                l(6) =   2
     Q(r) pseudized with 0 coefficients 


     atomic species   valence    mass     pseudopotential
        Cr1           14.00    55.84500     Cr( 1.00)
        Cr2           14.00    55.84500     Cr( 1.00)

     Starting magnetic structure 
     atomic species   magnetization
        Cr1          0.300
        Cr2         -0.300

     48 Sym. Ops., with inversion, found



   Cartesian axes

     site n.     atom                  positions (alat units)
         1           Cr1 tau(   1) = (   0.0000000   0.0000000   0.0000000  )
         2           Cr2 tau(   2) = (   0.2450000   0.2450000   0.2449998  )
         3           Cr1 tau(   3) = (   0.0000000   0.0000000   0.4899995  )
         4           Cr2 tau(   4) = (   0.2450000   0.2450000   0.7350002  )
         5           Cr1 tau(   5) = (   0.0000000   0.4900002   0.0000000  )
         6           Cr2 tau(   6) = (   0.2450000   0.7350002   0.2449998  )
         7           Cr1 tau(   7) = (   0.0000000   0.4900002   0.4899995  )
         8           Cr2 tau(   8) = (   0.2450000   0.7350002   0.7350002  )
         9           Cr1 tau(   9) = (   0.4900002   0.0000000   0.0000000  )
        10           Cr2 tau(  10) = (   0.7350002   0.2450000   0.2449998  )
        11           Cr1 tau(  11) = (   0.4900002   0.0000000   0.4899995  )
        12           Cr2 tau(  12) = (   0.7350002   0.2450000   0.7350002  )
        13           Cr1 tau(  13) = (   0.4900002   0.4900002   0.0000000  )
        14           Cr2 tau(  14) = (   0.7350002   0.7350002   0.2449998  )
        15           Cr1 tau(  15) = (   0.4900002   0.4900002   0.4899995  )
        16           Cr2 tau(  16) = (   0.7350002   0.7350002   0.7350002  )

     number of k points=    35  Marzari-Vanderbilt smearing, width (Ry)=  0.0400
                       cart. coord. in units 2pi/alat
        k(    1) = (   0.0566893   0.0566893   0.0566893), wk =   0.0109739
        k(    2) = (   0.0566893   0.0566893   0.1700680), wk =   0.0329218
        k(    3) = (   0.0566893   0.0566893   0.2834467), wk =   0.0329218
        k(    4) = (   0.0566893   0.0566893   0.3968254), wk =   0.0329218
        k(    5) = (   0.0566893   0.0566893  -0.5102041), wk =   0.0164609
        k(    6) = (   0.0566893   0.1700680   0.1700680), wk =   0.0329218
        k(    7) = (   0.0566893   0.1700680   0.2834467), wk =   0.0658436
        k(    8) = (   0.0566893   0.1700680   0.3968254), wk =   0.0658436
        k(    9) = (   0.0566893   0.1700680  -0.5102041), wk =   0.0329218
        k(   10) = (   0.0566893   0.2834467   0.2834467), wk =   0.0329218
        k(   11) = (   0.0566893   0.2834467   0.3968254), wk =   0.0658436
        k(   12) = (   0.0566893   0.2834467  -0.5102041), wk =   0.0329218
        k(   13) = (   0.0566893   0.3968254   0.3968254), wk =   0.0329218
        k(   14) = (   0.0566893   0.3968254  -0.5102041), wk =   0.0329218
        k(   15) = (   0.0566893  -0.5102041  -0.5102041), wk =   0.0082305
        k(   16) = (   0.1700680   0.1700680   0.1700680), wk =   0.0109739
        k(   17) = (   0.1700680   0.1700680   0.2834467), wk =   0.0329218
        k(   18) = (   0.1700680   0.1700680   0.3968254), wk =   0.0329218
        k(   19) = (   0.1700680   0.1700680  -0.5102041), wk =   0.0164609
        k(   20) = (   0.1700680   0.2834467   0.2834467), wk =   0.0329218
        k(   21) = (   0.1700680   0.2834467   0.3968254), wk =   0.0658436
        k(   22) = (   0.1700680   0.2834467  -0.5102041), wk =   0.0329218
        k(   23) = (   0.1700680   0.3968254   0.3968254), wk =   0.0329218
        k(   24) = (   0.1700680   0.3968254  -0.5102041), wk =   0.0329218
        k(   25) = (   0.1700680  -0.5102041  -0.5102041), wk =   0.0082305
        k(   26) = (   0.2834467   0.2834467   0.2834467), wk =   0.0109739
        k(   27) = (   0.2834467   0.2834467   0.3968254), wk =   0.0329218
        k(   28) = (   0.2834467   0.2834467  -0.5102041), wk =   0.0164609
        k(   29) = (   0.2834467   0.3968254   0.3968254), wk =   0.0329218
        k(   30) = (   0.2834467   0.3968254  -0.5102041), wk =   0.0329218
        k(   31) = (   0.2834467  -0.5102041  -0.5102041), wk =   0.0082305
        k(   32) = (   0.3968254   0.3968254   0.3968254), wk =   0.0109739
        k(   33) = (   0.3968254   0.3968254  -0.5102041), wk =   0.0164609
        k(   34) = (   0.3968254  -0.5102041  -0.5102041), wk =   0.0082305
        k(   35) = (  -0.5102041  -0.5102041  -0.5102041), wk =   0.0013717

     Dense  grid:   175685 G-vectors     FFT dimensions: (  72,  72,  72)

     Smooth grid:    94341 G-vectors     FFT dimensions: (  60,  60,  60)

     Estimated max dynamical RAM per process >     135.00 MB

     Estimated total dynamical RAM >       2.64 GB
     Generating pointlists ...
     new r_m :   0.1750 (alat units)  1.8807 (a.u.) for type    1
     new r_m :   0.1750 (alat units)  1.8807 (a.u.) for type    2

     Check: negative/imaginary core charge=   -0.000009    0.000000

     Initial potential from superposition of free atoms

     starting charge  223.98764, renormalised to  224.00000
     Starting wfcs are  160 randomized atomic wfcs
     Checking if some PAW data can be deallocated... 

     total cpu time spent up to now is        9.1 secs

     Self-consistent Calculation

     iteration #  1     ecut=    71.00 Ry     beta= 0.10
     Davidson diagonalization with overlap
     ethr =  1.00E-02,  avg # of iterations =  3.1

     Threshold (ethr) on eigenvalues was too large:
     Diagonalizing with lowered threshold

     Davidson diagonalization with overlap
     ethr =  8.59E-04,  avg # of iterations =  3.5

     total cpu time spent up to now is       55.1 secs

     total energy              =   -3970.40088862 Ry
     Harris-Foulkes estimate   =   -3970.30327766 Ry
     estimated scf accuracy    <       1.98612758 Ry

     total magnetization       =    -0.00 Bohr mag/cell
     absolute magnetization    =    36.83 Bohr mag/cell

     iteration #  2     ecut=    71.00 Ry     beta= 0.10
     Davidson diagonalization with overlap
     ethr =  8.87E-04,  avg # of iterations =  1.1

     total cpu time spent up to now is       70.7 secs

     total energy              =   -3970.86798284 Ry
     Harris-Foulkes estimate   =   -3970.41290133 Ry
     estimated scf accuracy    <       1.51125493 Ry

     total magnetization       =     0.00 Bohr mag/cell
     absolute magnetization    =    36.75 Bohr mag/cell

     iteration #  3     ecut=    71.00 Ry     beta= 0.10
     Davidson diagonalization with overlap
     ethr =  6.75E-04,  avg # of iterations =  3.0

     total cpu time spent up to now is       95.7 secs

     total energy              =   -3971.16215665 Ry
     Harris-Foulkes estimate   =   -3971.10820273 Ry
     estimated scf accuracy    <       0.36367108 Ry

     total magnetization       =    -0.00 Bohr mag/cell
     absolute magnetization    =    34.76 Bohr mag/cell

     iteration #  4     ecut=    71.00 Ry     beta= 0.10
     Davidson diagonalization with overlap
     ethr =  1.62E-04,  avg # of iterations =  2.0

     total cpu time spent up to now is      113.4 secs

     total energy              =   -3971.16491054 Ry
     Harris-Foulkes estimate   =   -3971.17438608 Ry
     estimated scf accuracy    <       0.54139683 Ry

     total magnetization       =    -0.00 Bohr mag/cell
     absolute magnetization    =    35.18 Bohr mag/cell

     iteration #  5     ecut=    71.00 Ry     beta= 0.10
     Davidson diagonalization with overlap
     ethr =  1.62E-04,  avg # of iterations =  5.4

     total cpu time spent up to now is      147.0 secs

     total energy              =   -3971.32450015 Ry
     Harris-Foulkes estimate   =   -3971.31938445 Ry
     estimated scf accuracy    <       0.05496640 Ry

     total magnetization       =     0.00 Bohr mag/cell
     absolute magnetization    =    27.49 Bohr mag/cell

     iteration #  6     ecut=    71.00 Ry     beta= 0.10
     Davidson diagonalization with overlap
     ethr =  2.45E-05,  avg # of iterations =  2.9

     total cpu time spent up to now is      167.2 secs

     total energy              =   -3971.31090945 Ry
     Harris-Foulkes estimate   =   -3971.32572640 Ry
     estimated scf accuracy    <       0.05107619 Ry

     total magnetization       =     0.00 Bohr mag/cell
     absolute magnetization    =    27.30 Bohr mag/cell

     iteration #  7     ecut=    71.00 Ry     beta= 0.10
     Davidson diagonalization with overlap
     ethr =  2.28E-05,  avg # of iterations =  1.0

     total cpu time spent up to now is      182.4 secs

     total energy              =   -3971.35265531 Ry
     Harris-Foulkes estimate   =   -3971.31209956 Ry
     estimated scf accuracy    <       0.06924351 Ry

     total magnetization       =     0.00 Bohr mag/cell
     absolute magnetization    =    27.88 Bohr mag/cell

     iteration #  8     ecut=    71.00 Ry     beta= 0.10
     Davidson diagonalization with overlap
     ethr =  2.28E-05,  avg # of iterations =  5.4

     total cpu time spent up to now is      216.3 secs

     total energy              =   -3971.40809016 Ry
     Harris-Foulkes estimate   =   -3971.38604609 Ry
     estimated scf accuracy    <       0.02735463 Ry

     total magnetization       =    -0.00 Bohr mag/cell
     absolute magnetization    =    23.50 Bohr mag/cell

     iteration #  9     ecut=    71.00 Ry     beta= 0.10
     Davidson diagonalization with overlap
     ethr =  1.22E-05,  avg # of iterations =  5.0

     total cpu time spent up to now is      247.8 secs

     total energy              =   -3971.42891753 Ry
     Harris-Foulkes estimate   =   -3971.41896795 Ry
     estimated scf accuracy    <       0.01368904 Ry

     total magnetization       =     0.00 Bohr mag/cell
     absolute magnetization    =    20.90 Bohr mag/cell

     iteration # 10     ecut=    71.00 Ry     beta= 0.10
     Davidson diagonalization with overlap
     ethr =  6.11E-06,  avg # of iterations =  6.0

     total cpu time spent up to now is      288.5 secs

     total energy              =   -3971.44830437 Ry
     Harris-Foulkes estimate   =   -3971.44983461 Ry
     estimated scf accuracy    <       0.01031412 Ry

     total magnetization       =    -0.00 Bohr mag/cell
     absolute magnetization    =    17.11 Bohr mag/cell

     iteration # 11     ecut=    71.00 Ry     beta= 0.10
     Davidson diagonalization with overlap
     ethr =  4.60E-06,  avg # of iterations =  1.0

     total cpu time spent up to now is      303.8 secs

     total energy              =   -3971.45564181 Ry
     Harris-Foulkes estimate   =   -3971.44838362 Ry
     estimated scf accuracy    <       0.01090153 Ry

     total magnetization       =    -0.00 Bohr mag/cell
     absolute magnetization    =    17.28 Bohr mag/cell

     iteration # 12     ecut=    71.00 Ry     beta= 0.10
     Davidson diagonalization with overlap
     ethr =  4.60E-06,  avg # of iterations =  4.0

     total cpu time spent up to now is      331.0 secs

     total energy              =   -3971.46266972 Ry
     Harris-Foulkes estimate   =   -3971.45973577 Ry
     estimated scf accuracy    <       0.00624219 Ry

     total magnetization       =     0.00 Bohr mag/cell
     absolute magnetization    =    15.68 Bohr mag/cell

     iteration # 13     ecut=    71.00 Ry     beta= 0.10
     Davidson diagonalization with overlap
     ethr =  2.79E-06,  avg # of iterations =  4.1

     total cpu time spent up to now is      355.7 secs

     total energy              =   -3971.46527969 Ry
     Harris-Foulkes estimate   =   -3971.46356710 Ry
     estimated scf accuracy    <       0.00487757 Ry

     total magnetization       =     0.00 Bohr mag/cell
     absolute magnetization    =    14.93 Bohr mag/cell

     iteration # 14     ecut=    71.00 Ry     beta= 0.10
     Davidson diagonalization with overlap
     ethr =  2.18E-06,  avg # of iterations =  3.5

     total cpu time spent up to now is      377.8 secs

     total energy              =   -3971.46662993 Ry
     Harris-Foulkes estimate   =   -3971.46566566 Ry
     estimated scf accuracy    <       0.00393910 Ry

     total magnetization       =     0.00 Bohr mag/cell
     absolute magnetization    =    14.53 Bohr mag/cell

     iteration # 15     ecut=    71.00 Ry     beta= 0.10
     Davidson diagonalization with overlap
     ethr =  1.76E-06,  avg # of iterations =  5.0

     total cpu time spent up to now is      414.7 secs

     total energy              =   -3971.47305710 Ry
     Harris-Foulkes estimate   =   -3971.47321715 Ry
     estimated scf accuracy    <       0.00172486 Ry

     total magnetization       =     0.00 Bohr mag/cell
     absolute magnetization    =    12.39 Bohr mag/cell

     iteration # 16     ecut=    71.00 Ry     beta= 0.10
     Davidson diagonalization with overlap
     ethr =  7.70E-07,  avg # of iterations =  1.0

     total cpu time spent up to now is      429.9 secs

     total energy              =   -3971.47350014 Ry
     Harris-Foulkes estimate   =   -3971.47307139 Ry
     estimated scf accuracy    <       0.00187716 Ry

     total magnetization       =     0.00 Bohr mag/cell
     absolute magnetization    =    12.43 Bohr mag/cell

     iteration # 17     ecut=    71.00 Ry     beta= 0.10
     Davidson diagonalization with overlap
     ethr =  7.70E-07,  avg # of iterations =  1.0

     total cpu time spent up to now is      445.2 secs

     total energy              =   -3971.47349833 Ry
     Harris-Foulkes estimate   =   -3971.47351923 Ry
     estimated scf accuracy    <       0.00172439 Ry

     total magnetization       =     0.00 Bohr mag/cell
     absolute magnetization    =    12.34 Bohr mag/cell

     iteration # 18     ecut=    71.00 Ry     beta= 0.10
     Davidson diagonalization with overlap
     ethr =  7.70E-07,  avg # of iterations =  1.0

     total cpu time spent up to now is      460.4 secs

     total energy              =   -3971.46977916 Ry
     Harris-Foulkes estimate   =   -3971.47350087 Ry
     estimated scf accuracy    <       0.00175024 Ry

     total magnetization       =     0.00 Bohr mag/cell
     absolute magnetization    =    12.34 Bohr mag/cell

     iteration # 19     ecut=    71.00 Ry     beta= 0.10
     Davidson diagonalization with overlap
     ethr =  7.70E-07,  avg # of iterations =  5.7

     total cpu time spent up to now is      502.7 secs

     total energy              =   -3971.45620520 Ry
     Harris-Foulkes estimate   =   -3971.48055140 Ry
     estimated scf accuracy    <       0.00082710 Ry

     total magnetization       =     0.00 Bohr mag/cell
     absolute magnetization    =     9.47 Bohr mag/cell

     iteration # 20     ecut=    71.00 Ry     beta= 0.10
     Davidson diagonalization with overlap
     ethr =  3.69E-07,  avg # of iterations =  5.7

     total cpu time spent up to now is      552.9 secs

     total energy              =   -3971.42111463 Ry
     Harris-Foulkes estimate   =   -3971.47167336 Ry
     estimated scf accuracy    <       0.00216468 Ry

     total magnetization       =     0.00 Bohr mag/cell
     absolute magnetization    =    12.87 Bohr mag/cell

     iteration # 21     ecut=    71.00 Ry     beta= 0.10
     Davidson diagonalization with overlap
     ethr =  3.69E-07,  avg # of iterations =  5.8

     total cpu time spent up to now is      601.3 secs

     total energy              =   -3971.44578355 Ry
     Harris-Foulkes estimate   =   -3971.48550885 Ry
     estimated scf accuracy    <       0.00044250 Ry

     total magnetization       =     0.00 Bohr mag/cell
     absolute magnetization    =     5.75 Bohr mag/cell

     iteration # 22     ecut=    71.00 Ry     beta= 0.10
     Davidson diagonalization with overlap
     ethr =  1.98E-07,  avg # of iterations =  5.8

     total cpu time spent up to now is      650.4 secs

     total energy              =   -3971.46359887 Ry
     Harris-Foulkes estimate   =   -3971.47773489 Ry
     estimated scf accuracy    <       0.00131915 Ry

     total magnetization       =    -0.00 Bohr mag/cell
     absolute magnetization    =    10.72 Bohr mag/cell

     iteration # 23     ecut=    71.00 Ry     beta= 0.10
     Davidson diagonalization with overlap
     ethr =  1.98E-07,  avg # of iterations =  5.5

     total cpu time spent up to now is      702.2 secs

     total energy              =   -3971.46490374 Ry
     Harris-Foulkes estimate   =   -3971.48474660 Ry
     estimated scf accuracy    <       0.00150924 Ry

     total magnetization       =    -0.00 Bohr mag/cell
     absolute magnetization    =     6.67 Bohr mag/cell

     iteration # 24     ecut=    71.00 Ry     beta= 0.10
     Davidson diagonalization with overlap
     ethr =  1.98E-07,  avg # of iterations =  6.0

     total cpu time spent up to now is      755.0 secs

     total energy              =   -3971.48717753 Ry
     Harris-Foulkes estimate   =   -3971.48757224 Ry
     estimated scf accuracy    <       0.00064086 Ry

     total magnetization       =    -0.00 Bohr mag/cell
     absolute magnetization    =     2.38 Bohr mag/cell

     iteration # 25     ecut=    71.00 Ry     beta= 0.10
     Davidson diagonalization with overlap
     ethr =  1.98E-07,  avg # of iterations =  4.0

     total cpu time spent up to now is      783.2 secs

     total energy              =   -3971.47932901 Ry
     Harris-Foulkes estimate   =   -3971.48743243 Ry
     estimated scf accuracy    <       0.00065254 Ry

     total magnetization       =    -0.00 Bohr mag/cell
     absolute magnetization    =     2.80 Bohr mag/cell

     iteration # 26     ecut=    71.00 Ry     beta= 0.10
     Davidson diagonalization with overlap
     ethr =  1.98E-07,  avg # of iterations =  5.9

     total cpu time spent up to now is      831.2 secs

     total energy              =   -3971.48272287 Ry
     Harris-Foulkes estimate   =   -3971.48611766 Ry
     estimated scf accuracy    <       0.00054978 Ry

     total magnetization       =    -0.00 Bohr mag/cell
     absolute magnetization    =     5.14 Bohr mag/cell

     iteration # 27     ecut=    71.00 Ry     beta= 0.10
     Davidson diagonalization with overlap
     ethr =  1.98E-07,  avg # of iterations =  5.6

     total cpu time spent up to now is      873.7 secs

     total energy              =   -3971.48729986 Ry
     Harris-Foulkes estimate   =   -3971.48730966 Ry
     estimated scf accuracy    <       0.00036349 Ry

     total magnetization       =    -0.00 Bohr mag/cell
     absolute magnetization    =     3.23 Bohr mag/cell

     iteration # 28     ecut=    71.00 Ry     beta= 0.10
     Davidson diagonalization with overlap
     ethr =  1.62E-07,  avg # of iterations =  4.0

     total cpu time spent up to now is      899.2 secs

     total energy              =   -3971.48704943 Ry
     Harris-Foulkes estimate   =   -3971.48740278 Ry
     estimated scf accuracy    <       0.00021863 Ry

     total magnetization       =    -0.00 Bohr mag/cell
     absolute magnetization    =     2.95 Bohr mag/cell

     iteration # 29     ecut=    71.00 Ry     beta= 0.10
     Davidson diagonalization with overlap
     ethr =  9.76E-08,  avg # of iterations =  5.1

     total cpu time spent up to now is      934.3 secs

     total energy              =   -3971.48570322 Ry
     Harris-Foulkes estimate   =   -3971.48760912 Ry
     estimated scf accuracy    <       0.00005875 Ry

     total magnetization       =    -0.00 Bohr mag/cell
     absolute magnetization    =     2.28 Bohr mag/cell

     iteration # 30     ecut=    71.00 Ry     beta= 0.10
     Davidson diagonalization with overlap
     ethr =  2.62E-08,  avg # of iterations =  5.6

     total cpu time spent up to now is      984.4 secs

     total energy              =   -3971.48405883 Ry
     Harris-Foulkes estimate   =   -3971.48719450 Ry
     estimated scf accuracy    <       0.00009966 Ry

     total magnetization       =    -0.00 Bohr mag/cell
     absolute magnetization    =     3.38 Bohr mag/cell

     iteration # 31     ecut=    71.00 Ry     beta= 0.10
     Davidson diagonalization with overlap
     ethr =  2.62E-08,  avg # of iterations =  6.1

     total cpu time spent up to now is     1039.9 secs

     total energy              =   -3971.48773517 Ry
     Harris-Foulkes estimate   =   -3971.48777333 Ry
     estimated scf accuracy    <       0.00004318 Ry

     total magnetization       =    -0.00 Bohr mag/cell
     absolute magnetization    =     1.64 Bohr mag/cell

     iteration # 32     ecut=    71.00 Ry     beta= 0.10
     Davidson diagonalization with overlap
     ethr =  1.93E-08,  avg # of iterations =  4.0

     total cpu time spent up to now is     1066.2 secs

     total energy              =   -3971.48650126 Ry
     Harris-Foulkes estimate   =   -3971.48775161 Ry
     estimated scf accuracy    <       0.00004283 Ry

     total magnetization       =    -0.00 Bohr mag/cell
     absolute magnetization    =     1.76 Bohr mag/cell

     iteration # 33     ecut=    71.00 Ry     beta= 0.10
     Davidson diagonalization with overlap
     ethr =  1.91E-08,  avg # of iterations =  6.0

     total cpu time spent up to now is     1119.8 secs

     total energy              =   -3971.48778604 Ry
     Harris-Foulkes estimate   =   -3971.48792008 Ry
     estimated scf accuracy    <       0.00002033 Ry

     total magnetization       =    -0.00 Bohr mag/cell
     absolute magnetization    =     0.69 Bohr mag/cell

     iteration # 34     ecut=    71.00 Ry     beta= 0.10
     Davidson diagonalization with overlap
     ethr =  9.07E-09,  avg # of iterations =  5.8

     total cpu time spent up to now is     1160.1 secs

     total energy              =   -3971.48783496 Ry
     Harris-Foulkes estimate   =   -3971.48794384 Ry
     estimated scf accuracy    <       0.00001044 Ry

     total magnetization       =    -0.00 Bohr mag/cell
     absolute magnetization    =     0.33 Bohr mag/cell

     iteration # 35     ecut=    71.00 Ry     beta= 0.10
     Davidson diagonalization with overlap
     ethr =  4.66E-09,  avg # of iterations =  5.7

     total cpu time spent up to now is     1200.6 secs

     total energy              =   -3971.48775218 Ry
     Harris-Foulkes estimate   =   -3971.48792816 Ry
     estimated scf accuracy    <       0.00000864 Ry

     total magnetization       =    -0.00 Bohr mag/cell
     absolute magnetization    =     0.61 Bohr mag/cell

     iteration # 36     ecut=    71.00 Ry     beta= 0.10
     Davidson diagonalization with overlap
     ethr =  3.86E-09,  avg # of iterations =  6.2

     total cpu time spent up to now is     1247.8 secs

     total energy              =   -3971.48749413 Ry
     Harris-Foulkes estimate   =   -3971.48794994 Ry
     estimated scf accuracy    <       0.00000615 Ry

     total magnetization       =    -0.00 Bohr mag/cell
     absolute magnetization    =     0.20 Bohr mag/cell

     iteration # 37     ecut=    71.00 Ry     beta= 0.10
     Davidson diagonalization with overlap
     ethr =  2.74E-09,  avg # of iterations =  6.2

     total cpu time spent up to now is     1303.4 secs

     total energy              =   -3971.48793590 Ry
     Harris-Foulkes estimate   =   -3971.48794753 Ry
     estimated scf accuracy    <       0.00001011 Ry

     total magnetization       =    -0.00 Bohr mag/cell
     absolute magnetization    =     0.40 Bohr mag/cell

     iteration # 38     ecut=    71.00 Ry     beta= 0.10
     Davidson diagonalization with overlap
     ethr =  2.74E-09,  avg # of iterations =  4.6

     total cpu time spent up to now is     1342.7 secs

     total energy              =   -3971.48777105 Ry
     Harris-Foulkes estimate   =   -3971.48794932 Ry
     estimated scf accuracy    <       0.00000292 Ry

     total magnetization       =    -0.00 Bohr mag/cell
     absolute magnetization    =     0.31 Bohr mag/cell

     iteration # 39     ecut=    71.00 Ry     beta= 0.10
     Davidson diagonalization with overlap
     ethr =  1.31E-09,  avg # of iterations =  5.9
 
     Magnetic moment per site:
     atom:    1    charge:   12.1735    magn:    0.0056    constr:    0.0000
     atom:    2    charge:   12.1736    magn:   -0.0046    constr:    0.0000
     atom:    3    charge:   12.1737    magn:    0.0049    constr:    0.0000
     atom:    4    charge:   12.1736    magn:   -0.0046    constr:    0.0000
     atom:    5    charge:   12.1737    magn:    0.0049    constr:    0.0000
     atom:    6    charge:   12.1736    magn:   -0.0046    constr:    0.0000
     atom:    7    charge:   12.1736    magn:    0.0041    constr:    0.0000
     atom:    8    charge:   12.1736    magn:   -0.0046    constr:    0.0000
     atom:    9    charge:   12.1737    magn:    0.0049    constr:    0.0000
     atom:   10    charge:   12.1736    magn:   -0.0046    constr:    0.0000
     atom:   11    charge:   12.1736    magn:    0.0041    constr:    0.0000
     atom:   12    charge:   12.1736    magn:   -0.0046    constr:    0.0000
     atom:   13    charge:   12.1736    magn:    0.0041    constr:    0.0000
     atom:   14    charge:   12.1736    magn:   -0.0046    constr:    0.0000
     atom:   15    charge:   12.1740    magn:    0.0041    constr:    0.0000
     atom:   16    charge:   12.1736    magn:   -0.0046    constr:    0.0000

     total cpu time spent up to now is     1396.2 secs

     End of self-consistent calculation

 ------ SPIN UP ------------


          k = 0.0567 0.0567 0.0567 ( 11786 PWs)   bands (ev):

   -50.8489 -50.6246 -50.6244 -50.6244 -50.5850 -50.5849 -50.5848 -50.5847
   -50.5844 -50.5844 -50.5787 -50.5787 -50.5787 -50.5624 -50.5575 -50.3992
   -22.6194 -22.6194 -22.6194 -22.6140 -22.6139 -22.6139 -22.2605 -22.2605
   -22.2479 -22.1482 -22.1425 -22.1425 -22.1425 -22.1001 -22.1001 -22.0763
   -22.0763 -22.0762 -22.0018 -22.0018 -21.9531 -21.8967 -21.8967 -21.8967
   -21.8764 -21.8764 -21.8764 -21.8456 -21.8456 -21.8456 -21.8378 -21.8378
   -21.8377 -21.8288 -21.8288 -21.8288 -21.8098 -21.8098 -21.8098 -21.5043
   -21.5042 -21.5042 -21.5012 -21.4986 -21.4986 -21.4986 -21.4875 -21.4875
    13.0133  16.3131  16.3131  16.3131  16.3330  16.3330  16.3331  16.3618
    16.3618  16.7764  16.7764  16.7764  17.1850  17.1850  17.1850  18.3901
    18.4003  18.4003  18.4004  18.4178  18.4178  18.4178  18.5075  18.5075
    18.7027  18.7027  18.7751  18.7907  18.7907  18.7907  19.2901  19.2901
    19.2902  20.0863  20.0863  20.1471  20.4666  20.4667  20.4667  20.5931
    20.5931  20.5932  20.7059  20.7059  20.7059  20.8255  20.8255  20.8256
    21.7886  21.7886  21.7886  21.9223  21.9223  21.9223  22.1086  22.1087
    22.1087  22.1933  22.1933  22.1933  22.3389  22.3389  22.3390  22.3413
    22.3413  22.4140  22.4140  22.4141  22.7391  22.7391

          k = 0.0567 0.0567 0.1701 ( 11795 PWs)   bands (ev):

   -50.8410 -50.6644 -50.6226 -50.6225 -50.5889 -50.5887 -50.5840 -50.5839
   -50.5833 -50.5774 -50.5774 -50.5773 -50.5638 -50.5588 -50.5471 -50.4049
   -22.6033 -22.6033 -22.6020 -22.5971 -22.5870 -22.5870 -22.2683 -22.2480
   -22.2289 -22.2201 -22.1994 -22.1994 -22.1973 -22.1944 -22.1360 -22.1359
   -22.0675 -22.0133 -21.9987 -21.9639 -21.9425 -21.9056 -21.8964 -21.8963
   -21.8786 -21.8591 -21.8524 -21.8524 -21.8505 -21.8339 -21.8339 -21.8298
   -21.8297 -21.8254 -21.8254 -21.7629 -21.7611 -21.7610 -21.7453 -21.5318
   -21.5217 -21.5217 -21.5197 -21.5148 -21.5042 -21.5041 -21.4987 -21.4928
    13.1574  16.2244  16.3533  16.3533  16.4138  16.4138  16.4328  16.4371
    16.4515  16.4518  16.8117  16.8117  17.2114  17.2114  17.4032  18.2459
    18.3059  18.3754  18.3806  18.3964  18.4199  18.4630  18.4630  18.5152
    18.5152  18.5599  18.7562  18.7562  18.9601  18.9646  19.1928  19.1928
    19.7635  20.0510  20.0777  20.1939  20.1939  20.2254  20.2817  20.4182
    20.4182  20.4570  20.8071  20.8071  20.9593  20.9593  21.0008  21.1292
    21.3103  21.3103  21.4788  21.6298  21.6298  21.6397  21.7880  22.0870
    22.0870  22.2358  22.2467  22.2467  22.3558  22.3559  22.3652  22.3834
    22.3974  22.3995  22.3996  22.4295  22.7432  22.7743

          k = 0.0567 0.0567 0.2834 ( 11763 PWs)   bands (ev):

   -50.8254 -50.7037 -50.6188 -50.6187 -50.5945 -50.5944 -50.5825 -50.5824
   -50.5808 -50.5769 -50.5769 -50.5750 -50.5663 -50.5612 -50.5123 -50.4160
   -22.5676 -22.5666 -22.5666 -22.5637 -22.5400 -22.5399 -22.3015 -22.2904
   -22.2792 -22.2792 -22.2732 -22.2324 -22.2236 -22.2203 -22.2203 -22.2014
   -22.0348 -22.0287 -22.0062 -22.0000 -21.9121 -21.8921 -21.8921 -21.8844
   -21.8738 -21.8605 -21.8604 -21.8310 -21.8310 -21.8294 -21.8294 -21.8142
   -21.7978 -21.7604 -21.7604 -21.7005 -21.6998 -21.6998 -21.6844 -21.5826
   -21.5502 -21.5502 -21.5500 -21.5473 -21.5214 -21.5214 -21.5204 -21.5113
    13.4399  15.5972  16.4459  16.4459  16.5504  16.5504  16.5866  16.6204
    16.6628  16.6786  16.8411  16.8411  17.2049  17.2050  17.4289  17.8540
    18.0615  18.1418  18.2997  18.3465  18.3599  18.3831  18.6032  18.6032
    18.6894  18.6895  18.7962  18.7963  19.1521  19.1521  19.2747  19.2945
    19.8266  19.8266  20.0258  20.0280  20.0280  20.0486  20.0649  20.1495
    20.3405  20.5578  20.6520  20.6521  20.9118  20.9119  21.1342  21.1342
    21.1706  21.1839  21.1839  21.1875  21.2240  21.3530  21.4949  22.0298
    22.1028  22.1029  22.2404  22.2404  22.4150  22.4358  22.4648  22.4829
    22.4829  22.7176  22.7200  22.7413  22.7511  22.7838

          k = 0.0567 0.0567 0.3968 ( 11779 PWs)   bands (ev):

   -50.8028 -50.7407 -50.6136 -50.6135 -50.6009 -50.6008 -50.5808 -50.5807
   -50.5776 -50.5775 -50.5774 -50.5718 -50.5697 -50.5644 -50.4812 -50.4326
   -22.5174 -22.5154 -22.5121 -22.5121 -22.4757 -22.4757 -22.3811 -22.3767
   -22.3634 -22.3633 -22.3105 -22.3105 -22.2745 -22.2570 -22.1881 -22.1647
   -22.0890 -22.0658 -21.9977 -21.9733 -21.9185 -21.9051 -21.8857 -21.8857
   -21.8693 -21.8693 -21.8294 -21.8293 -21.8289 -21.8288 -21.8214 -21.7302
   -21.7211 -21.6964 -21.6964 -21.6510 -21.6436 -21.6412 -21.6412 -21.6289
   -21.5949 -21.5946 -21.5894 -21.5894 -21.5524 -21.5504 -21.5504 -21.5410
    13.8486  14.9600  16.5746  16.5746  16.7299  16.7300  16.8077  16.8113
    16.8113  16.8447  16.9838  16.9945  17.1053  17.1053  17.3036  17.4478
    17.7484  17.7696  18.2713  18.2998  18.3082  18.3200  18.8151  18.8151
    18.9331  18.9332  19.0138  19.0138  19.2569  19.2569  19.4997  19.4998
    19.6402  19.6402  19.6706  19.6904  20.0143  20.0195  20.0196  20.0552
    20.0663  20.0713  20.2442  20.2442  20.4955  20.6493  20.6587  20.9227
    20.9444  21.4390  21.4390  21.4786  21.4786  21.7334  21.7577  21.9120
    21.9142  21.9142  22.0524  22.0524  22.4830  22.4968  22.5802  22.6436
    22.6479  22.6540  22.7617  22.7851  22.7930  22.8039

          k = 0.0567 0.0567-0.5102 ( 11792 PWs)   bands (ev):

   -50.7744 -50.7740 -50.6076 -50.6076 -50.6074 -50.6071 -50.5791 -50.5791
   -50.5788 -50.5787 -50.5738 -50.5733 -50.5682 -50.5679 -50.4546 -50.4543
   -22.4539 -22.4535 -22.4532 -22.4529 -22.4430 -22.4430 -22.4429 -22.4429
   -22.3977 -22.3977 -22.3976 -22.3976 -22.2701 -22.2698 -22.1428 -22.1424
   -22.1193 -22.1190 -21.9578 -21.9574 -21.9399 -21.9396 -21.8781 -21.8780
   -21.8777 -21.8777 -21.8289 -21.8289 -21.8286 -21.8285 -21.7327 -21.7324
   -21.6567 -21.6564 -21.6524 -21.6521 -21.6388 -21.6387 -21.6387 -21.6386
   -21.5940 -21.5937 -21.5907 -21.5907 -21.5907 -21.5906 -21.5809 -21.5807
    14.3642  14.3645  16.7104  16.7104  16.7105  16.7105  16.9287  16.9287
    16.9288  16.9288  17.0886  17.0889  17.0964  17.0967  17.3653  17.3655
    17.3678  17.3682  18.2784  18.2786  18.2925  18.2927  19.0849  19.0850
    19.0850  19.0851  19.2092  19.2092  19.2093  19.2094  19.4989  19.4989
    19.4990  19.4992  19.7048  19.7049  19.7050  19.7051  20.0243  20.0245
    20.0568  20.0570  20.1352  20.1353  20.1462  20.1463  20.6903  20.6905
    21.3625  21.3629  21.6890  21.6891  21.6891  21.6891  21.7936  21.7936
    21.7936  21.7937  22.1998  22.2000  22.3636  22.3638  22.5620  22.5623
    22.5702  22.5706  22.7243  22.7246  22.7733  22.7737

          k = 0.0567 0.1701 0.1701 ( 11754 PWs)   bands (ev):

   -50.8332 -50.6613 -50.6612 -50.6206 -50.5999 -50.5874 -50.5873 -50.5831
   -50.5762 -50.5762 -50.5690 -50.5654 -50.5598 -50.5476 -50.5475 -50.4102
   -22.5982 -22.5865 -22.5865 -22.5717 -22.5717 -22.5495 -22.2824 -22.2654
   -22.2483 -22.2482 -22.2410 -22.2358 -22.2259 -22.1994 -22.1759 -22.0880
   -22.0602 -22.0601 -21.9915 -21.9625 -21.9624 -21.9090 -21.8903 -21.8902
   -21.8710 -21.8679 -21.8678 -21.8663 -21.8461 -21.8461 -21.8391 -21.8227
   -21.8178 -21.7822 -21.7651 -21.7651 -21.7234 -21.6994 -21.6993 -21.5726
   -21.5500 -21.5337 -21.5337 -21.5192 -21.5192 -21.5079 -21.4977 -21.4880
    13.2992  16.2799  16.2799  16.3419  16.4738  16.4738  16.5155  16.5263
    16.5307  16.5307  16.5366  16.8599  17.2559  17.4349  17.4349  18.1136
    18.2586  18.3134  18.3134  18.4395  18.4395  18.4863  18.4863  18.4871
    18.4903  18.6463  18.6510  18.6941  18.9590  18.9834  19.0760  19.5708
    19.5709  19.9699  20.0245  20.0246  20.0551  20.0885  20.2628  20.3564
    20.6951  20.6951  20.7571  20.7571  20.8167  20.9040  21.0419  21.1330
    21.1330  21.1842  21.1843  21.3558  21.3558  21.4965  21.7777  21.7777
    22.0937  22.2186  22.2766  22.2766  22.3181  22.3525  22.3582  22.3582
    22.3755  22.5861  22.6996  22.7081  22.7082  22.7543

          k = 0.0567 0.1701 0.2834 ( 11768 PWs)   bands (ev):

   -50.8180 -50.6994 -50.6552 -50.6169 -50.6121 -50.5929 -50.5846 -50.5817
   -50.5758 -50.5740 -50.5684 -50.5620 -50.5618 -50.5484 -50.5139 -50.4210
   -22.5725 -22.5537 -22.5519 -22.5421 -22.5278 -22.4930 -22.3231 -22.3223
   -22.2972 -22.2969 -22.2962 -22.2823 -22.2418 -22.2177 -22.1628 -22.1471
   -22.0637 -22.0261 -21.9816 -21.9748 -21.9545 -21.9537 -21.9131 -21.8970
   -21.8905 -21.8786 -21.8692 -21.8443 -21.8439 -21.8234 -21.8035 -21.7925
   -21.7687 -21.7589 -21.7288 -21.7042 -21.6755 -21.6432 -21.6423 -21.6327
   -21.5888 -21.5579 -21.5568 -21.5491 -21.5330 -21.5289 -21.5030 -21.4956
    13.5766  15.6762  16.3628  16.3686  16.5663  16.6592  16.6657  16.6867
    16.7050  16.7064  16.7539  16.9133  17.2808  17.4185  17.4716  17.8931
    17.9729  18.0940  18.3924  18.3991  18.4209  18.4375  18.5203  18.5688
    18.5948  18.6432  18.6826  18.8528  18.9885  19.1589  19.2180  19.4404
    19.6927  19.8072  19.8343  19.8937  19.9170  19.9778  20.0282  20.2542
    20.2881  20.5227  20.5367  20.7305  20.8059  20.8740  20.9074  20.9149
    21.0250  21.1386  21.1691  21.2396  21.2769  21.4793  21.4830  21.9175
    22.0621  22.1366  22.1751  22.2435  22.2894  22.3358  22.3913  22.4137
    22.6279  22.6928  22.6965  22.7306  22.7827  22.7890

          k = 0.0567 0.1701 0.3968 ( 11792 PWs)   bands (ev):

   -50.7960 -50.7355 -50.6467 -50.6244 -50.6117 -50.5992 -50.5809 -50.5798
   -50.5765 -50.5723 -50.5711 -50.5645 -50.5566 -50.5501 -50.4838 -50.4370
   -22.5284 -22.5057 -22.5010 -22.4994 -22.4680 -22.4203 -22.3988 -22.3857
   -22.3738 -22.3670 -22.3188 -22.3070 -22.3021 -22.2417 -22.1829 -22.1195
   -22.0854 -22.0243 -22.0143 -21.9611 -21.9423 -21.9357 -21.9095 -21.9095
   -21.8993 -21.8902 -21.8838 -21.8453 -21.8436 -21.7916 -21.7742 -21.7558
   -21.7177 -21.7076 -21.6965 -21.6762 -21.6487 -21.6367 -21.6290 -21.5936
   -21.5932 -21.5920 -21.5915 -21.5887 -21.5600 -21.5561 -21.5209 -21.5164
    13.9770  15.0599  16.4125  16.4278  16.6930  16.8435  16.8666  16.8838
    16.9082  16.9362  17.0268  17.0608  17.2059  17.2935  17.3501  17.5158
    17.7437  17.7915  18.3199  18.3538  18.3859  18.3883  18.7045  18.7547
    18.7719  18.8271  18.8449  19.0077  19.1243  19.2926  19.5059  19.5627
    19.5644  19.6025  19.6804  19.6884  19.8301  19.8403  19.8726  19.9325
    19.9658  19.9981  20.1295  20.3008  20.3950  20.4103  20.7189  21.1512
    21.2008  21.4049  21.4079  21.4849  21.4903  21.5156  21.7352  21.8058
    21.8520  21.9520  22.0537  22.1151  22.2863  22.4183  22.4540  22.5316
    22.5825  22.6089  22.6185  22.7110  22.7781  22.7817

          k = 0.0567 0.1701-0.5102 ( 11796 PWs)   bands (ev):

   -50.7683 -50.7679 -50.6363 -50.6360 -50.6058 -50.6055 -50.5782 -50.5778
   -50.5768 -50.5764 -50.5679 -50.5676 -50.5529 -50.5525 -50.4582 -50.4579
   -22.4692 -22.4691 -22.4463 -22.4460 -22.4451 -22.4448 -22.4377 -22.4377
   -22.3966 -22.3965 -22.3348 -22.3347 -22.3096 -22.3095 -22.1384 -22.1381
   -22.0699 -22.0697 -21.9801 -21.9798 -21.9319 -21.9316 -21.9272 -21.9269
   -21.9011 -21.9008 -21.8447 -21.8444 -21.7931 -21.7929 -21.7819 -21.7816
   -21.6928 -21.6928 -21.6503 -21.6500 -21.6406 -21.6403 -21.6287 -21.6286
   -21.6004 -21.6001 -21.5885 -21.5885 -21.5508 -21.5507 -21.5491 -21.5490
    14.4806  14.4809  16.4425  16.4426  16.8226  16.8227  17.0390  17.0391
    17.0973  17.0975  17.1202  17.1205  17.2015  17.2018  17.4059  17.4061
    17.4126  17.4129  18.3197  18.3199  18.3562  18.3564  18.9513  18.9514
    18.9826  18.9827  19.0124  19.0125  19.1269  19.1272  19.4964  19.4964
    19.5868  19.5869  19.6837  19.6838  19.8174  19.8175  19.8226  19.8228
    19.9321  19.9322  19.9666  19.9667  19.9688  19.9690  20.9449  20.9450
    21.4888  21.4891  21.5607  21.5607  21.7307  21.7308  21.7962  21.7963
    21.8352  21.8353  21.8506  21.8506  22.2719  22.2721  22.5132  22.5135
    22.5335  22.5339  22.6807  22.6810  22.7758  22.7762

          k = 0.0567 0.2834 0.2834 ( 11792 PWs)   bands (ev):

   -50.8035 -50.6913 -50.6912 -50.6303 -50.6132 -50.5900 -50.5898 -50.5801
   -50.5739 -50.5738 -50.5719 -50.5632 -50.5488 -50.5171 -50.5170 -50.4309
   -22.5582 -22.5233 -22.5233 -22.5044 -22.5044 -22.4280 -22.3539 -22.3492
   -22.3492 -22.3298 -22.3285 -22.3238 -22.2822 -22.1962 -22.1164 -22.0651
   -22.0631 -22.0629 -22.0148 -22.0147 -21.9720 -21.9322 -21.9203 -21.9119
   -21.9119 -21.8870 -21.8869 -21.8680 -21.8680 -21.8588 -21.7786 -21.7440
   -21.7121 -21.7117 -21.7117 -21.7032 -21.6883 -21.6433 -21.6360 -21.5930
   -21.5930 -21.5709 -21.5709 -21.5563 -21.5563 -21.5482 -21.4964 -21.4893
    13.8432  15.8147  15.8148  16.3042  16.7866  16.7962  16.7962  16.8509
    16.8824  16.8841  16.8841  17.0159  17.3742  17.4635  17.4636  17.8912
    17.9914  18.0573  18.0574  18.4637  18.5101  18.5101  18.5662  18.5662
    18.5711  18.5731  18.6626  18.8302  19.0896  19.1022  19.1960  19.5542
    19.5543  19.6976  19.6977  19.7249  19.7576  19.7827  19.8330  19.9779
    20.3129  20.3129  20.4070  20.4071  20.5974  20.6037  20.6037  20.7484
    21.2387  21.2387  21.3286  21.3868  21.4427  21.4428  21.7288  21.8650
    21.8651  22.0570  22.2058  22.2058  22.2564  22.2755  22.2756  22.2988
    22.3771  22.6302  22.6319  22.6341  22.7788  22.7899

          k = 0.0567 0.2834 0.3968 ( 11815 PWs)   bands (ev):

   -50.7826 -50.7253 -50.6795 -50.6482 -50.6082 -50.5960 -50.5859 -50.5782
   -50.5764 -50.5747 -50.5712 -50.5655 -50.5377 -50.5220 -50.4891 -50.4457
   -22.5253 -22.4824 -22.4802 -22.4718 -22.4541 -22.4166 -22.3919 -22.3782
   -22.3765 -22.3608 -22.3480 -22.3454 -22.3361 -22.1633 -22.1598 -22.0709
   -22.0649 -22.0398 -21.9972 -21.9718 -21.9554 -21.9542 -21.9490 -21.9490
   -21.9401 -21.9263 -21.8984 -21.8690 -21.8672 -21.8180 -21.7864 -21.7565
   -21.7230 -21.6908 -21.6882 -21.6664 -21.6598 -21.6495 -21.6127 -21.5938
   -21.5908 -21.5903 -21.5770 -21.5688 -21.5509 -21.5505 -21.5018 -21.4971
    14.2259  15.2462  15.9771  16.2301  16.9164  16.9622  17.0316  17.0557
    17.0710  17.1118  17.1263  17.1783  17.3588  17.3649  17.3717  17.7216
    17.7528  17.7931  18.3749  18.4140  18.4456  18.4829  18.4859  18.6073
    18.6547  18.7052  18.7772  18.8021  19.2648  19.2742  19.2879  19.3823
    19.4039  19.5470  19.5733  19.6465  19.6483  19.6689  19.7931  19.8407
    19.9108  19.9200  20.0115  20.0153  20.1660  20.1702  20.9729  20.9986
    21.4284  21.4358  21.5629  21.5718  21.5801  21.5913  21.5986  21.7040
    21.8403  21.9133  22.0323  22.0906  22.1313  22.2686  22.3051  22.3455
    22.4377  22.4542  22.5343  22.5428  22.6675  22.7818

          k = 0.0567 0.2834-0.5102 ( 11794 PWs)   bands (ev):

   -50.7564 -50.7560 -50.6650 -50.6647 -50.6025 -50.6021 -50.5814 -50.5810
   -50.5764 -50.5761 -50.5684 -50.5681 -50.5290 -50.5286 -50.4653 -50.4650
   -22.4768 -22.4768 -22.4331 -22.4328 -22.4326 -22.4323 -22.4291 -22.4290
   -22.3959 -22.3958 -22.3586 -22.3585 -22.2568 -22.2567 -22.1212 -22.1209
   -22.0090 -22.0089 -21.9996 -21.9994 -21.9751 -21.9748 -21.9371 -21.9369
   -21.9296 -21.9294 -21.8773 -21.8772 -21.8697 -21.8695 -21.7519 -21.7519
   -21.7380 -21.7376 -21.6356 -21.6353 -21.6261 -21.6259 -21.6165 -21.6165
   -21.6147 -21.6144 -21.5876 -21.5876 -21.5200 -21.5199 -21.5179 -21.5179
    14.7035  14.7037  16.1230  16.1232  17.0273  17.0274  17.1674  17.1677
    17.2106  17.2108  17.2390  17.2391  17.4116  17.4119  17.4698  17.4700
    17.4964  17.4966  18.4017  18.4019  18.4416  18.4418  18.7344  18.7346
    18.7651  18.7652  18.7975  18.7978  19.0065  19.0065  19.5759  19.5759
    19.5805  19.5805  19.5881  19.5881  19.6231  19.6232  19.6828  19.6829
    19.7615  19.7615  19.8288  19.8289  19.8607  19.8609  21.2696  21.2697
    21.3900  21.3901  21.4687  21.4687  21.6842  21.6844  21.8243  21.8244
    21.8499  21.8500  21.8992  21.8994  22.0482  22.0484  22.4202  22.4206
    22.4405  22.4408  22.6012  22.6016  22.6521  22.6522

          k = 0.0567 0.3968 0.3968 ( 11789 PWs)   bands (ev):

   -50.7634 -50.7107 -50.7106 -50.6712 -50.6034 -50.5917 -50.5916 -50.5813
   -50.5762 -50.5723 -50.5722 -50.5673 -50.5214 -50.4971 -50.4970 -50.4587
   -22.5039 -22.4522 -22.4521 -22.4362 -22.4362 -22.4178 -22.4177 -22.4022
   -22.3947 -22.3943 -22.3792 -22.3631 -22.2621 -22.1333 -22.0685 -22.0684
   -22.0486 -22.0485 -22.0342 -22.0059 -21.9863 -21.9685 -21.9685 -21.9634
   -21.9456 -21.8988 -21.8988 -21.8853 -21.8813 -21.8812 -21.8765 -21.7504
   -21.7252 -21.6764 -21.6763 -21.6520 -21.6374 -21.6258 -21.6026 -21.5994
   -21.5981 -21.5980 -21.5892 -21.5892 -21.5190 -21.5190 -21.4947 -21.4908
    14.5794  15.4918  15.4919  16.0129  17.0873  17.1622  17.2126  17.2126
    17.2250  17.3289  17.3289  17.3301  17.3301  17.3915  17.5019  17.7244
    17.7321  18.0384  18.0385  18.4643  18.4878  18.4978  18.5489  18.5489
    18.5653  18.5653  18.6364  18.8555  18.9022  19.2067  19.2849  19.2850
    19.3194  19.4674  19.4833  19.5455  19.6316  19.6316  19.6516  19.6516
    19.7197  19.7289  19.7290  19.8410  19.9454  20.5260  20.5261  21.3002
    21.3780  21.4737  21.5561  21.5562  21.7245  21.7245  21.7566  21.7706
    21.9443  21.9444  21.9679  22.1069  22.1125  22.1504  22.1504  22.1782
    22.1783  22.4185  22.4228  22.4297  22.5527  22.6820

          k = 0.0567 0.3968-0.5102 ( 11804 PWs)   bands (ev):

   -50.7392 -50.7389 -50.6925 -50.6922 -50.5979 -50.5975 -50.5868 -50.5864
   -50.5742 -50.5739 -50.5698 -50.5695 -50.5080 -50.5076 -50.4760 -50.4757
   -22.4670 -22.4669 -22.4217 -22.4214 -22.4208 -22.4207 -22.4178 -22.4176
   -22.4044 -22.4044 -22.3981 -22.3980 -22.1673 -22.1673 -22.0946 -22.0943
   -22.0201 -22.0198 -22.0078 -22.0077 -21.9731 -21.9730 -21.9725 -21.9724
   -21.9441 -21.9441 -21.9262 -21.9261 -21.8958 -21.8957 -21.8143 -21.8143
   -21.6985 -21.6982 -21.6362 -21.6358 -21.6178 -21.6176 -21.6139 -21.6137
   -21.6086 -21.6085 -21.5915 -21.5914 -21.5003 -21.5002 -21.4985 -21.4985
    15.0124  15.0127  15.7596  15.7598  17.2211  17.2214  17.2634  17.2636
    17.2744  17.2745  17.4716  17.4717  17.5166  17.5168  17.5911  17.5912
    17.7043  17.7046  18.4280  18.4283  18.4788  18.4789  18.4851  18.4851
    18.5352  18.5354  18.6007  18.6009  19.0659  19.0660  19.3594  19.3594
    19.3619  19.3620  19.4329  19.4329  19.4468  19.4468  19.4914  19.4915
    19.7776  19.7777  19.7787  19.7787  20.1016  20.1016  20.9327  20.9328
    21.4689  21.4689  21.6152  21.6152  21.7938  21.7939  21.8828  21.8830
    21.9653  21.9655  21.9700  21.9702  21.9715  21.9718  22.2881  22.2883
    22.2999  22.3002  22.3249  22.3249  22.5103  22.5106

          k = 0.0567-0.5102-0.5102 ( 11812 PWs)   bands (ev):

   -50.7177 -50.7175 -50.7173 -50.7172 -50.5926 -50.5923 -50.5922 -50.5920
   -50.5720 -50.5718 -50.5716 -50.5715 -50.4904 -50.4901 -50.4900 -50.4899
   -22.4418 -22.4418 -22.4418 -22.4418 -22.4173 -22.4172 -22.4171 -22.4170
   -22.4054 -22.4053 -22.4053 -22.4052 -22.0711 -22.0710 -22.0709 -22.0709
   -22.0605 -22.0603 -22.0601 -22.0600 -21.9989 -21.9989 -21.9989 -21.9989
   -21.9155 -21.9155 -21.9155 -21.9154 -21.8792 -21.8792 -21.8790 -21.8790
   -21.6645 -21.6643 -21.6641 -21.6640 -21.6075 -21.6075 -21.6074 -21.6073
   -21.6018 -21.6018 -21.6017 -21.6016 -21.4929 -21.4929 -21.4928 -21.4928
    15.3770  15.3771  15.3773  15.3774  17.2608  17.2610  17.2611  17.2612
    17.4662  17.4662  17.4663  17.4664  17.6150  17.6151  17.6151  17.6152
    18.0533  18.0535  18.0536  18.0537  18.4632  18.4632  18.4633  18.4634
    18.5158  18.5158  18.5159  18.5159  19.1859  19.1859  19.1860  19.1860
    19.3096  19.3097  19.3097  19.3098  19.4014  19.4015  19.4015  19.4015
    19.7490  19.7491  19.7492  19.7492  20.4967  20.4967  20.4967  20.4968
    21.5834  21.5836  21.5836  21.5837  21.9585  21.9585  21.9586  21.9586
    22.0093  22.0094  22.0095  22.0095  22.1293  22.1295  22.1296  22.1296
    22.1336  22.1338  22.1339  22.1340  22.4778  22.4782

          k = 0.1701 0.1701 0.1701 ( 11728 PWs)   bands (ev):

   -50.8256 -50.6583 -50.6581 -50.6581 -50.5982 -50.5981 -50.5981 -50.5687
   -50.5681 -50.5681 -50.5680 -50.5592 -50.5480 -50.5478 -50.5478 -50.4154
   -22.5810 -22.5810 -22.5809 -22.5370 -22.5370 -22.5370 -22.3047 -22.2805
   -22.2805 -22.2805 -22.2695 -22.2695 -22.1834 -22.1834 -22.1618 -22.1029
   -22.1029 -22.1028 -21.9782 -21.9782 -21.9782 -21.8969 -21.8969 -21.8905
   -21.8905 -21.8905 -21.8428 -21.8428 -21.8427 -21.8277 -21.8277 -21.8277
   -21.7717 -21.7714 -21.7714 -21.7713 -21.6680 -21.6680 -21.6680 -21.6138
   -21.5569 -21.5569 -21.5569 -21.5136 -21.5136 -21.5136 -21.4996 -21.4996
    13.4389  16.3444  16.3445  16.3445  16.4659  16.4659  16.4659  16.6068
    16.6068  16.6403  16.6403  16.6403  17.4913  17.4913  17.4914  18.0011
    18.2911  18.2911  18.2911  18.3799  18.3799  18.4668  18.4668  18.4668
    18.6050  18.6050  18.6050  18.8619  18.8724  18.8724  19.3927  19.3927
    19.3928  19.9322  19.9323  19.9323  19.9504  19.9504  20.4580  20.4580
    20.4580  20.5030  20.6982  20.6982  20.6982  20.8978  20.8978  20.8978
    21.1707  21.1707  21.1707  21.2830  21.2830  21.2831  22.0358  22.0358
    22.0358  22.1433  22.1433  22.1434  22.2676  22.2676  22.3615  22.3615
    22.3615  22.7046  22.7046  22.7046  22.7555  22.7555

          k = 0.1701 0.1701 0.2834 ( 11780 PWs)   bands (ev):

   -50.8108 -50.6953 -50.6523 -50.6522 -50.6101 -50.6099 -50.5948 -50.5734
   -50.5665 -50.5614 -50.5614 -50.5594 -50.5487 -50.5487 -50.5153 -50.4258
   -22.5563 -22.5563 -22.5473 -22.5129 -22.4844 -22.4844 -22.3471 -22.3347
   -22.3346 -22.3093 -22.2947 -22.2749 -22.2447 -22.1727 -22.1727 -22.1357
   -22.1185 -22.0448 -22.0197 -21.9817 -21.9817 -21.9268 -21.9143 -21.9143
   -21.9105 -21.9033 -21.8464 -21.8123 -21.8122 -21.8073 -21.7852 -21.7851
   -21.7773 -21.7773 -21.7195 -21.7073 -21.6764 -21.6269 -21.6268 -21.6180
   -21.5885 -21.5885 -21.5717 -21.5455 -21.5221 -21.5178 -21.5178 -21.5009
    13.7118  15.7611  16.4445  16.4445  16.4950  16.4950  16.7048  16.7457
    16.7776  16.7990  16.7990  16.8566  17.5136  17.5136  17.5481  17.8978
    17.8998  18.2310  18.3247  18.3489  18.3489  18.4257  18.5363  18.5656
    18.5657  18.6715  18.7866  18.7866  18.9738  19.1477  19.2345  19.2346
    19.6077  19.7067  19.7068  19.8124  19.8455  19.9146  20.1319  20.1319
    20.1787  20.1788  20.4708  20.6617  20.6617  20.6917  20.6976  20.7043
    21.0392  21.1934  21.1934  21.3959  21.3959  21.6059  21.7409  21.9847
    21.9848  22.1028  22.2331  22.2799  22.2800  22.3230  22.3601  22.3886
    22.3906  22.3907  22.6855  22.6912  22.7135  22.7512

          k = 0.1701 0.1701 0.3968 ( 11790 PWs)   bands (ev):

   -50.7893 -50.7304 -50.6439 -50.6438 -50.6221 -50.6220 -50.5901 -50.5789
   -50.5645 -50.5606 -50.5563 -50.5562 -50.5502 -50.5501 -50.4863 -50.4412
   -22.5148 -22.5147 -22.4980 -22.4788 -22.4167 -22.4167 -22.3980 -22.3979
   -22.3922 -22.3595 -22.3233 -22.3136 -22.2545 -22.2545 -22.2084 -22.1068
   -22.0831 -22.0705 -21.9742 -21.9736 -21.9736 -21.9625 -21.9372 -21.9372
   -21.9298 -21.9075 -21.8692 -21.8001 -21.8001 -21.7832 -21.7832 -21.7533
   -21.7279 -21.7279 -21.7251 -21.6708 -21.6488 -21.6280 -21.6280 -21.5954
   -21.5922 -21.5874 -21.5874 -21.5745 -21.5551 -21.5318 -21.5317 -21.5144
    14.1052  15.1632  16.5302  16.5302  16.5381  16.5381  16.9502  16.9961
    16.9961  17.0030  17.0394  17.1491  17.4058  17.4059  17.4473  17.5347
    17.7406  17.8609  18.3135  18.3776  18.4657  18.4919  18.5930  18.5931
    18.7279  18.7280  18.9938  18.9938  19.1186  19.1186  19.2973  19.4678
    19.5572  19.5573  19.6759  19.6760  19.7322  19.7442  19.7681  19.7909
    19.7910  19.8669  20.1175  20.1175  20.1626  20.1873  20.9219  21.0266
    21.2926  21.4487  21.5203  21.5203  21.5305  21.5305  21.8200  21.8200
    21.8646  21.8696  21.9925  22.1042  22.1042  22.3478  22.4484  22.4878
    22.5877  22.6114  22.7149  22.7149  22.7245  22.7449

          k = 0.1701 0.1701-0.5102 ( 11794 PWs)   bands (ev):

   -50.7623 -50.7620 -50.6338 -50.6337 -50.6335 -50.6333 -50.5849 -50.5845
   -50.5626 -50.5623 -50.5528 -50.5528 -50.5526 -50.5523 -50.4616 -50.4613
   -22.4603 -22.4603 -22.4603 -22.4603 -22.4376 -22.4373 -22.4349 -22.4346
   -22.3383 -22.3383 -22.3383 -22.3382 -22.3240 -22.3239 -22.1620 -22.1617
   -22.0282 -22.0279 -22.0183 -22.0182 -21.9579 -21.9579 -21.9576 -21.9576
   -21.8918 -21.8915 -21.8395 -21.8394 -21.7907 -21.7907 -21.7904 -21.7904
   -21.6749 -21.6749 -21.6748 -21.6747 -21.6529 -21.6526 -21.6288 -21.6286
   -21.5978 -21.5975 -21.5551 -21.5551 -21.5551 -21.5550 -21.5393 -21.5393
    14.5984  14.5986  16.5608  16.5608  16.5610  16.5610  17.2109  17.2109
    17.2110  17.2110  17.2154  17.2157  17.2441  17.2444  17.4395  17.4397
    17.4703  17.4705  18.3354  18.3356  18.4316  18.4317  18.9330  18.9330
    18.9330  18.9331  18.9448  18.9448  18.9450  18.9451  19.5175  19.5175
    19.5176  19.5176  19.7072  19.7072  19.7073  19.7073  19.7130  19.7131
    19.7311  19.7311  19.8089  19.8091  19.8153  19.8154  21.1732  21.1733
    21.4214  21.4215  21.5880  21.5883  21.6625  21.6625  21.6625  21.6625
    21.8458  21.8458  21.8459  21.8459  22.4219  22.4221  22.4709  22.4712
    22.5264  22.5267  22.6424  22.6428  22.7355  22.7359

          k = 0.1701 0.2834 0.2834 ( 11802 PWs)   bands (ev):

   -50.7967 -50.6873 -50.6872 -50.6465 -50.6278 -50.6061 -50.6060 -50.5798
   -50.5604 -50.5604 -50.5580 -50.5493 -50.5487 -50.5184 -50.5183 -50.4353
   -22.5416 -22.5244 -22.5244 -22.4681 -22.4681 -22.4239 -22.3704 -22.3606
   -22.3562 -22.3562 -22.3106 -22.2924 -22.2397 -22.2194 -22.1572 -22.0923
   -22.0921 -22.0681 -22.0478 -22.0477 -22.0049 -21.9567 -21.9567 -21.9498
   -21.8808 -21.8432 -21.8431 -21.8283 -21.8283 -21.7875 -21.7843 -21.7725
   -21.7435 -21.7376 -21.7144 -21.7144 -21.6809 -21.6277 -21.6039 -21.5915
   -21.5915 -21.5843 -21.5843 -21.5469 -21.5469 -21.5361 -21.5118 -21.5014
    13.9756  15.9111  15.9111  16.4356  16.5794  16.7385  16.7385  16.8820
    16.9422  16.9630  17.0106  17.0106  17.5803  17.5803  17.6335  17.8548
    18.0199  18.0199  18.1621  18.2874  18.4016  18.5145  18.5145  18.6328
    18.6781  18.6781  18.7204  18.8360  18.9912  19.0455  19.1140  19.4002
    19.4002  19.5869  19.6243  19.6243  19.7248  19.7333  19.8351  19.9007
    20.0280  20.0280  20.2613  20.2613  20.3265  20.3266  20.3383  20.9354
    21.3185  21.3185  21.3728  21.5490  21.6404  21.6404  21.8315  21.8621
    22.1042  22.1042  22.1108  22.1109  22.1118  22.2577  22.3064  22.3064
    22.3220  22.6368  22.6421  22.6440  22.6552  22.7308

          k = 0.1701 0.2834 0.3968 ( 11819 PWs)   bands (ev):

   -50.7763 -50.7204 -50.6758 -50.6452 -50.6385 -50.6175 -50.6005 -50.5869
   -50.5592 -50.5576 -50.5558 -50.5505 -50.5381 -50.5230 -50.4913 -50.4495
   -22.5099 -22.4884 -22.4783 -22.4461 -22.4113 -22.4109 -22.3992 -22.3950
   -22.3621 -22.3540 -22.3493 -22.3351 -22.2797 -22.2081 -22.1772 -22.1213
   -22.1089 -22.0355 -22.0148 -22.0124 -22.0102 -22.0038 -21.9837 -21.9834
   -21.9015 -21.8747 -21.8472 -21.8241 -21.8150 -21.7966 -21.7829 -21.7604
   -21.7255 -21.7077 -21.6917 -21.6737 -21.6572 -21.6464 -21.6180 -21.6011
   -21.5893 -21.5822 -21.5664 -21.5532 -21.5532 -21.5491 -21.5157 -21.5070
    14.3536  15.3561  16.0884  16.3619  16.7112  16.7782  17.0610  17.0790
    17.1458  17.1778  17.2059  17.2908  17.4789  17.4866  17.6021  17.7200
    17.7766  17.8871  18.3276  18.3832  18.4200  18.4544  18.5671  18.5791
    18.6525  18.7655  18.8012  18.9220  19.0326  19.1537  19.1786  19.3003
    19.3508  19.4531  19.4795  19.5435  19.6069  19.6135  19.6263  19.6568
    19.7645  19.8098  19.8125  19.8183  19.9466  19.9505  20.6016  21.2032
    21.3973  21.5189  21.6256  21.6306  21.6318  21.6938  21.7116  21.8036
    21.9661  21.9669  21.9684  22.1354  22.1359  22.2522  22.3718  22.4175
    22.4937  22.5410  22.5574  22.6556  22.7270  22.7282

          k = 0.1701 0.2834-0.5102 ( 11798 PWs)   bands (ev):

   -50.7507 -50.7504 -50.6617 -50.6613 -50.6288 -50.6284 -50.5941 -50.5938
   -50.5583 -50.5580 -50.5527 -50.5524 -50.5297 -50.5294 -50.4684 -50.4681
   -22.4647 -22.4647 -22.4443 -22.4443 -22.4209 -22.4206 -22.4202 -22.4199
   -22.3541 -22.3540 -22.3461 -22.3461 -22.2652 -22.2652 -22.1633 -22.1630
   -22.0677 -22.0675 -22.0129 -22.0126 -22.0039 -22.0037 -21.9592 -21.9591
   -21.9125 -21.9124 -21.8641 -21.8638 -21.8051 -21.8049 -21.7409 -21.7406
   -21.7258 -21.7257 -21.6514 -21.6513 -21.6440 -21.6437 -21.6194 -21.6192
   -21.6076 -21.6073 -21.5649 -21.5649 -21.5296 -21.5296 -21.5230 -21.5229
    14.8238  14.8241  16.2479  16.2480  16.7813  16.7814  17.2749  17.2752
    17.3287  17.3289  17.4202  17.4203  17.4441  17.4444  17.4824  17.4826
    17.5787  17.5789  18.4027  18.4029  18.5104  18.5105  18.7009  18.7011
    18.7430  18.7433  18.8055  18.8056  18.9540  18.9541  19.3942  19.3943
    19.4848  19.4848  19.5018  19.5018  19.5267  19.5267  19.5575  19.5576
    19.6011  19.6011  19.6553  19.6553  19.6907  19.6908  20.9659  20.9659
    21.4927  21.4927  21.6451  21.6451  21.7538  21.7540  21.8302  21.8303
    21.8998  21.9000  21.9107  21.9109  22.3497  22.3499  22.4046  22.4049
    22.4607  22.4611  22.5725  22.5728  22.7016  22.7019

          k = 0.1701 0.3968 0.3968 ( 11809 PWs)   bands (ev):

   -50.7575 -50.7062 -50.7061 -50.6676 -50.6309 -50.6113 -50.6112 -50.5953
   -50.5560 -50.5554 -50.5553 -50.5513 -50.5223 -50.4990 -50.4989 -50.4620
   -22.4881 -22.4519 -22.4519 -22.4084 -22.4083 -22.4073 -22.4044 -22.4044
   -22.3964 -22.3720 -22.3650 -22.3159 -22.2694 -22.1830 -22.1218 -22.0929
   -22.0928 -22.0904 -22.0903 -22.0409 -22.0376 -22.0375 -22.0264 -21.9570
   -21.9082 -21.8590 -21.8401 -21.8400 -21.8320 -21.8320 -21.8094 -21.7258
   -21.7247 -21.6735 -21.6735 -21.6691 -21.6583 -21.6271 -21.6128 -21.6128
   -21.5923 -21.5848 -21.5848 -21.5795 -21.5269 -21.5269 -21.5093 -21.5036
    14.7058  15.6108  15.6108  16.1460  16.9161  17.1068  17.1068  17.1918
    17.2794  17.4356  17.4486  17.4487  17.4756  17.4756  17.7602  17.7701
    17.8074  18.0393  18.0394  18.3236  18.4610  18.5544  18.5667  18.5668
    18.6143  18.6143  18.7718  18.8483  18.8654  18.9340  19.2323  19.2324
    19.2420  19.3103  19.4425  19.4570  19.4570  19.4939  19.4939  19.5032
    19.5055  19.5605  19.5605  19.6793  19.7328  20.1909  20.1909  20.9386
    21.5153  21.6731  21.7693  21.7693  21.8101  21.8411  21.8412  21.8677
    22.0186  22.1287  22.1416  22.1417  22.1910  22.1910  22.2193  22.2194
    22.3908  22.4497  22.4551  22.4643  22.5541  22.6710

          k = 0.1701 0.3968-0.5102 ( 11810 PWs)   bands (ev):

   -50.7339 -50.7336 -50.6884 -50.6881 -50.6218 -50.6214 -50.6038 -50.6035
   -50.5555 -50.5551 -50.5530 -50.5526 -50.5094 -50.5091 -50.4787 -50.4784
   -22.4526 -22.4526 -22.4258 -22.4257 -22.4098 -22.4096 -22.3994 -22.3992
   -22.3917 -22.3916 -22.3593 -22.3592 -22.1813 -22.1813 -22.1431 -22.1428
   -22.0881 -22.0880 -22.0639 -22.0636 -22.0495 -22.0494 -21.9990 -21.9990
   -21.8985 -21.8984 -21.8471 -21.8470 -21.8207 -21.8206 -21.7807 -21.7806
   -21.6967 -21.6964 -21.6318 -21.6317 -21.6287 -21.6284 -21.6249 -21.6247
   -21.6156 -21.6155 -21.5808 -21.5807 -21.5133 -21.5132 -21.5103 -21.5102
    15.1362  15.1365  15.8875  15.8877  17.0638  17.0639  17.3328  17.3331
    17.3826  17.3828  17.4720  17.4722  17.6717  17.6717  17.7187  17.7188
    17.7343  17.7345  18.4287  18.4290  18.4797  18.4799  18.4983  18.4984
    18.5109  18.5109  18.6745  18.6747  19.0234  19.0234  19.1309  19.1309
    19.2670  19.2671  19.3156  19.3157  19.3461  19.3462  19.4018  19.4018
    19.5902  19.5903  19.6077  19.6078  19.8196  19.8196  20.5259  20.5259
    21.7226  21.7227  21.8354  21.8354  21.9406  21.9408  21.9949  21.9951
    22.0162  22.0162  22.0205  22.0208  22.1337  22.1338  22.3112  22.3115
    22.3338  22.3341  22.4925  22.4929  22.5437  22.5439

          k = 0.1701-0.5102-0.5102 ( 11824 PWs)   bands (ev):

   -50.7130 -50.7127 -50.7126 -50.7125 -50.6134 -50.6131 -50.6129 -50.6128
   -50.5539 -50.5536 -50.5535 -50.5534 -50.4925 -50.4922 -50.4921 -50.4920
   -22.4268 -22.4268 -22.4267 -22.4267 -22.4119 -22.4118 -22.4117 -22.4116
   -22.3776 -22.3776 -22.3775 -22.3774 -22.1084 -22.1082 -22.1081 -22.1080
   -22.0908 -22.0908 -22.0906 -22.0906 -22.0815 -22.0815 -22.0814 -22.0814
   -21.8386 -21.8386 -21.8385 -21.8385 -21.8343 -21.8343 -21.8342 -21.8342
   -21.6590 -21.6588 -21.6587 -21.6586 -21.6197 -21.6197 -21.6196 -21.6195
   -21.6019 -21.6019 -21.6018 -21.6017 -21.5066 -21.5066 -21.5066 -21.5065
    15.5040  15.5041  15.5042  15.5043  17.3284  17.3285  17.3286  17.3286
    17.3771  17.3772  17.3773  17.3774  17.8069  17.8070  17.8070  17.8071
    18.0756  18.0758  18.0759  18.0760  18.4140  18.4141  18.4142  18.4143
    18.5791  18.5791  18.5792  18.5792  19.0962  19.0963  19.0963  19.0964
    19.1444  19.1444  19.1444  19.1445  19.3191  19.3191  19.3192  19.3192
    19.5693  19.5694  19.5694  19.5694  20.1352  20.1352  20.1352  20.1353
    21.8984  21.8985  21.8985  21.8985  22.0240  22.0242  22.0243  22.0244
    22.1763  22.1766  22.1767  22.1768  22.1825  22.1827  22.1828  22.1829
    22.2235  22.2235  22.2235  22.2235  22.4690  22.4695

          k = 0.2834 0.2834 0.2834 ( 11806 PWs)   bands (ev):

   -50.7833 -50.6797 -50.6795 -50.6795 -50.6230 -50.6228 -50.6228 -50.5889
   -50.5539 -50.5487 -50.5486 -50.5486 -50.5211 -50.5209 -50.5209 -50.4441
   -22.5089 -22.5089 -22.5089 -22.4164 -22.4164 -22.4164 -22.3813 -22.3739
   -22.3738 -22.3738 -22.2844 -22.2844 -22.2455 -22.2455 -22.1441 -22.1441
   -22.1440 -22.0750 -22.0750 -22.0750 -22.0132 -22.0002 -22.0002 -22.0002
   -21.8082 -21.7943 -21.7943 -21.7941 -21.7941 -21.7940 -21.7900 -21.7900
   -21.7899 -21.7202 -21.7202 -21.7202 -21.6528 -21.6182 -21.6182 -21.6182
   -21.5713 -21.5712 -21.5712 -21.5424 -21.5424 -21.5424 -21.5251 -21.5251
    14.2331  16.0842  16.0842  16.0842  16.6898  16.6898  16.6898  17.0599
    17.0599  17.1735  17.1735  17.1735  17.7556  17.7556  17.7556  17.8624
    17.9928  17.9928  17.9928  18.3833  18.3833  18.4603  18.5796  18.5796
    18.5796  18.8323  18.8323  18.8323  18.9030  18.9030  19.2181  19.2181
    19.2182  19.4690  19.4691  19.4691  19.6345  19.6345  19.6345  19.6631
    19.6631  19.9409  19.9410  19.9410  19.9880  19.9880  19.9880  21.2024
    21.3809  21.5009  21.5009  21.5009  21.8050  21.8050  21.8051  22.0034
    22.0034  22.0034  22.2149  22.2149  22.2939  22.2939  22.2939  22.4540
    22.4540  22.4541  22.6447  22.6447  22.6447  22.6531

          k = 0.2834 0.2834 0.3968 ( 11794 PWs)   bands (ev):

   -50.7639 -50.7109 -50.6686 -50.6685 -50.6395 -50.6394 -50.6160 -50.5984
   -50.5511 -50.5488 -50.5389 -50.5388 -50.5252 -50.5251 -50.4959 -50.4572
   -22.4797 -22.4797 -22.4612 -22.4072 -22.4042 -22.4041 -22.3897 -22.3707
   -22.3527 -22.3526 -22.3273 -22.3231 -22.2464 -22.2100 -22.2100 -22.1892
   -22.1398 -22.0817 -22.0817 -22.0616 -22.0602 -22.0386 -22.0386 -21.9572
   -21.8866 -21.8448 -21.8070 -21.8039 -21.7664 -21.7663 -21.7386 -21.7385
   -21.7301 -21.7301 -21.7152 -21.6586 -21.6517 -21.6517 -21.6313 -21.6141
   -21.5873 -21.5598 -21.5582 -21.5581 -21.5459 -21.5431 -21.5430 -21.5223
    14.6006  15.5623  16.2937  16.2937  16.6163  16.6163  17.0498  17.2315
    17.2922  17.3610  17.3610  17.4495  17.7086  17.7115  17.7172  17.7172
    17.8558  17.9660  18.2313  18.2314  18.4028  18.5143  18.6689  18.6692
    18.7002  18.7003  18.7206  18.9357  18.9357  19.0430  19.0430  19.1048
    19.2830  19.2830  19.3471  19.3471  19.3581  19.4123  19.4891  19.5072
    19.5195  19.5785  19.6021  19.6022  19.6651  19.6651  20.1781  20.9119
    21.5042  21.6808  21.7380  21.7380  21.8750  21.8750  21.9318  21.9318
    22.0625  22.1385  22.1599  22.1808  22.1808  22.2029  22.3546  22.3641
    22.5570  22.5603  22.6507  22.6507  22.6528  22.6585

          k = 0.2834 0.2834-0.5102 ( 11804 PWs)   bands (ev):

   -50.7396 -50.7393 -50.6552 -50.6551 -50.6549 -50.6547 -50.6078 -50.6074
   -50.5497 -50.5494 -50.5312 -50.5312 -50.5310 -50.5308 -50.4747 -50.4743
   -22.4424 -22.4424 -22.4423 -22.4423 -22.4003 -22.3999 -22.3981 -22.3979
   -22.3530 -22.3529 -22.2821 -22.2820 -22.2820 -22.2819 -22.1979 -22.1975
   -22.1265 -22.1263 -22.0678 -22.0678 -22.0676 -22.0676 -21.9728 -21.9727
   -21.9008 -21.9007 -21.8096 -21.8093 -21.7453 -21.7453 -21.7450 -21.7450
   -21.6920 -21.6920 -21.6919 -21.6918 -21.6458 -21.6454 -21.6182 -21.6181
   -21.6048 -21.6045 -21.5485 -21.5484 -21.5484 -21.5484 -21.5292 -21.5292
    15.0543  15.0546  16.4847  16.4848  16.4849  16.4849  17.4506  17.4509
    17.4880  17.4882  17.5321  17.5323  17.5525  17.5525  17.5526  17.5526
    17.7182  17.7183  18.4505  18.4507  18.5790  18.5791  18.6235  18.6235
    18.6237  18.6238  18.8635  18.8635  18.8635  18.8636  19.0911  19.0912
    19.3068  19.3070  19.3819  19.3819  19.3819  19.3820  19.3884  19.3885
    19.3885  19.3885  19.4307  19.4307  19.4763  19.4765  20.4965  20.4966
    21.8278  21.8278  21.8775  21.8778  21.8971  21.8972  21.8972  21.8972
    21.9787  21.9788  21.9790  21.9790  22.3959  22.3962  22.4560  22.4563
    22.5193  22.5196  22.5276  22.5278  22.6579  22.6582

          k = 0.2834 0.3968 0.3968 ( 11789 PWs)   bands (ev):

   -50.7460 -50.6974 -50.6973 -50.6607 -50.6583 -50.6313 -50.6312 -50.6101
   -50.5462 -50.5403 -50.5402 -50.5286 -50.5243 -50.5029 -50.5028 -50.4686
   -22.4568 -22.4365 -22.4365 -22.4024 -22.3929 -22.3929 -22.3795 -22.3591
   -22.3590 -22.3376 -22.3345 -22.2833 -22.2547 -22.2417 -22.2059 -22.1455
   -22.1455 -22.1307 -22.1306 -22.1153 -22.1018 -22.1018 -22.0874 -21.9634
   -21.8994 -21.7892 -21.7892 -21.7770 -21.7715 -21.7715 -21.7375 -21.7249
   -21.6968 -21.6917 -21.6865 -21.6700 -21.6699 -21.6340 -21.6339 -21.6234
   -21.5829 -21.5829 -21.5782 -21.5661 -21.5415 -21.5415 -21.5382 -21.5291
    14.9496  15.8358  15.8358  16.4030  16.5538  16.9733  16.9733  17.3876
    17.5029  17.5213  17.6434  17.6434  17.6784  17.6784  17.7976  17.9490
    17.9727  18.0347  18.0348  18.1471  18.4895  18.6208  18.6209  18.6240
    18.6243  18.7011  18.7011  18.7987  18.8316  18.8997  19.0061  19.1425
    19.1426  19.1621  19.1841  19.1938  19.1938  19.2239  19.2239  19.3153
    19.3154  19.3665  19.4026  19.4058  19.4614  19.7807  19.7807  20.4490
    21.8437  21.8787  21.8787  21.9081  21.9582  22.0537  22.1163  22.1395
    22.1396  22.1698  22.1698  22.1847  22.2661  22.2662  22.3351  22.4867
    22.5269  22.5270  22.5272  22.5543  22.6352  22.6470

          k = 0.2834 0.3968-0.5102 ( 11812 PWs)   bands (ev):

   -50.7237 -50.7233 -50.6805 -50.6801 -50.6458 -50.6455 -50.6214 -50.6211
   -50.5428 -50.5425 -50.5338 -50.5334 -50.5124 -50.5121 -50.4841 -50.4837
   -22.4251 -22.4250 -22.4138 -22.4137 -22.3842 -22.3839 -22.3685 -22.3684
   -22.3683 -22.3683 -22.3065 -22.3064 -22.2074 -22.2073 -22.2011 -22.2008
   -22.1630 -22.1629 -22.1255 -22.1253 -22.1226 -22.1225 -22.0468 -22.0468
   -21.8433 -21.8432 -21.7739 -21.7737 -21.7503 -21.7501 -21.7378 -21.7377
   -21.6925 -21.6923 -21.6616 -21.6615 -21.6332 -21.6329 -21.6242 -21.6240
   -21.6184 -21.6181 -21.5754 -21.5753 -21.5384 -21.5384 -21.5323 -21.5323
    15.3735  15.3737  16.1325  16.1327  16.8032  16.8033  17.3951  17.3954
    17.5429  17.5432  17.6115  17.6117  17.7921  17.7924  17.8483  17.8484
    17.9016  17.9018  18.4239  18.4241  18.4464  18.4466  18.5457  18.5458
    18.5512  18.5513  18.7584  18.7586  18.8724  18.8725  18.9471  18.9472
    19.0877  19.0878  19.0950  19.0952  19.2065  19.2065  19.2369  19.2370
    19.3059  19.3060  19.3687  19.3688  19.4416  19.4417  20.0542  20.0543
    22.0210  22.0213  22.0443  22.0444  22.0691  22.0693  22.0971  22.0973
    22.1376  22.1377  22.2057  22.2057  22.3749  22.3752  22.3810  22.3812
    22.4583  22.4586  22.4647  22.4649  22.5569  22.5572

          k = 0.2834-0.5102-0.5102 ( 11800 PWs)   bands (ev):

   -50.7038 -50.7035 -50.7034 -50.7032 -50.6345 -50.6342 -50.6341 -50.6340
   -50.5377 -50.5374 -50.5373 -50.5372 -50.4968 -50.4965 -50.4964 -50.4963
   -22.3974 -22.3973 -22.3973 -22.3973 -22.3893 -22.3892 -22.3891 -22.3890
   -22.3366 -22.3366 -22.3365 -22.3364 -22.1727 -22.1725 -22.1724 -22.1723
   -22.1607 -22.1607 -22.1607 -22.1607 -22.1272 -22.1272 -22.1271 -22.1271
   -21.7886 -21.7886 -21.7885 -21.7884 -21.7573 -21.7573 -21.7573 -21.7572
   -21.6491 -21.6489 -21.6488 -21.6487 -21.6386 -21.6385 -21.6385 -21.6384
   -21.6063 -21.6062 -21.6062 -21.6061 -21.5337 -21.5337 -21.5336 -21.5336
    15.7475  15.7476  15.7477  15.7478  17.1417  17.1418  17.1419  17.1420
    17.5991  17.5993  17.5994  17.5995  18.0506  18.0506  18.0507  18.0507
    18.1176  18.1177  18.1179  18.1180  18.3615  18.3616  18.3617  18.3618
    18.6580  18.6580  18.6581  18.6581  18.8816  18.8817  18.8817  18.8818
    19.0681  19.0681  19.0682  19.0682  19.0848  19.0848  19.0848  19.0848
    19.3069  19.3069  19.3070  19.3070  19.6841  19.6841  19.6841  19.6842
    22.1092  22.1094  22.1095  22.1096  22.2393  22.2396  22.2397  22.2398
    22.2557  22.2558  22.2559  22.2559  22.3078  22.3079  22.3080  22.3080
    22.4494  22.4498  22.4499  22.4500  22.6005  22.6005

          k = 0.3968 0.3968 0.3968 ( 11779 PWs)   bands (ev):

   -50.7295 -50.6848 -50.6846 -50.6846 -50.6509 -50.6508 -50.6508 -50.6248
   -50.5382 -50.5275 -50.5274 -50.5274 -50.5089 -50.5087 -50.5087 -50.4787
   -22.4113 -22.4113 -22.4113 -22.3809 -22.3808 -22.3808 -22.3556 -22.3039
   -22.3039 -22.3038 -22.2973 -22.2973 -22.2837 -22.2837 -22.1843 -22.1843
   -22.1843 -22.1837 -22.1837 -22.1836 -22.1557 -22.1556 -22.1556 -22.0323
   -21.8431 -21.7406 -21.7406 -21.7405 -21.7215 -21.7215 -21.7215 -21.7019
   -21.7019 -21.6717 -21.6717 -21.6717 -21.6622 -21.6622 -21.6621 -21.6275
   -21.5809 -21.5809 -21.5809 -21.5662 -21.5662 -21.5595 -21.5594 -21.5594
    15.2918  16.1382  16.1382  16.1382  16.7641  16.7641  16.7641  17.6009
    17.6438  17.6438  17.8071  17.8071  17.8071  17.9673  17.9673  17.9673
    18.0420  18.0420  18.0421  18.1292  18.5468  18.5468  18.6945  18.6945
    18.7139  18.7139  18.7140  18.8016  18.8016  18.8016  18.8520  18.8520
    18.8520  19.0250  19.0250  19.0250  19.0554  19.0555  19.0555  19.0951
    19.0952  19.0952  19.2649  19.2649  19.3933  19.3933  19.3933  19.9861
    22.0271  22.0271  22.0271  22.2179  22.2443  22.2443  22.2443  22.2525
    22.2525  22.2761  22.2761  22.2762  22.3231  22.3231  22.3232  22.5159
    22.5159  22.5498  22.5498  22.5499  22.5736  22.5736

          k = 0.3968 0.3968-0.5102 ( 11776 PWs)   bands (ev):

   -50.7089 -50.7086 -50.6691 -50.6690 -50.6688 -50.6686 -50.6388 -50.6384
   -50.5322 -50.5319 -50.5171 -50.5171 -50.5169 -50.5167 -50.4922 -50.4919
   -22.3874 -22.3873 -22.3873 -22.3872 -22.3531 -22.3528 -22.3448 -22.3447
   -22.3291 -22.3289 -22.2457 -22.2454 -22.2436 -22.2436 -22.2435 -22.2433
   -22.2229 -22.2228 -22.1883 -22.1883 -22.1882 -22.1881 -22.1077 -22.1077
   -21.7897 -21.7896 -21.7140 -21.7138 -21.6980 -21.6980 -21.6979 -21.6978
   -21.6873 -21.6873 -21.6871 -21.6871 -21.6405 -21.6404 -21.6361 -21.6358
   -21.6142 -21.6139 -21.5741 -21.5740 -21.5740 -21.5740 -21.5595 -21.5594
    15.7019  15.7021  16.4693  16.4694  16.4695  16.4696  17.1914  17.1917
    17.7956  17.7959  17.8995  17.8997  17.9302  17.9302  17.9304  17.9304
    18.1196  18.1198  18.3969  18.3969  18.3971  18.3972  18.5915  18.5915
    18.6253  18.6255  18.7440  18.7441  18.7555  18.7557  18.8526  18.8526
    18.8527  18.8527  19.0151  19.0151  19.0152  19.0153  19.0739  19.0739
    19.0739  19.0740  19.1333  19.1334  19.1481  19.1483  19.6056  19.6056
    22.1467  22.1469  22.1804  22.1804  22.1807  22.1807  22.3314  22.3314
    22.3314  22.3314  22.3909  22.3913  22.4118  22.4122  22.4882  22.4885
    22.5373  22.5376  22.5395  22.5396  22.5399  22.5399

          k = 0.3968-0.5102-0.5102 ( 11776 PWs)   bands (ev):

   -50.6906 -50.6903 -50.6901 -50.6900 -50.6551 -50.6548 -50.6546 -50.6545
   -50.5238 -50.5235 -50.5234 -50.5233 -50.5034 -50.5031 -50.5030 -50.5029
   -22.3544 -22.3544 -22.3544 -22.3543 -22.3509 -22.3508 -22.3507 -22.3505
   -22.2858 -22.2857 -22.2857 -22.2856 -22.2388 -22.2386 -22.2385 -22.2384
   -22.2342 -22.2342 -22.2342 -22.2341 -22.1755 -22.1755 -22.1754 -22.1753
   -21.7409 -21.7408 -21.7408 -21.7407 -21.6868 -21.6868 -21.6868 -21.6868
   -21.6651 -21.6651 -21.6650 -21.6649 -21.6372 -21.6371 -21.6370 -21.6368
   -21.6146 -21.6145 -21.6144 -21.6143 -21.5736 -21.5736 -21.5736 -21.5736
    16.0843  16.0844  16.0846  16.0847  16.8505  16.8506  16.8507  16.8508
    17.9040  17.9041  17.9042  17.9043  18.1740  18.1742  18.1743  18.1744
    18.3023  18.3025  18.3026  18.3027  18.3100  18.3100  18.3101  18.3102
    18.7530  18.7530  18.7531  18.7531  18.7902  18.7904  18.7905  18.7905
    18.7938  18.7938  18.7938  18.7939  18.9687  18.9687  18.9688  18.9688
    19.0498  19.0499  19.0499  19.0499  19.2382  19.2382  19.2382  19.2383
    22.2269  22.2271  22.2272  22.2274  22.3069  22.3072  22.3073  22.3075
    22.4162  22.4165  22.4166  22.4167  22.5120  22.5121  22.5121  22.5122
    22.5183  22.5186  22.5187  22.5188  22.5633  22.5633

          k =-0.5102-0.5102-0.5102 ( 11752 PWs)   bands (ev):

   -50.6742 -50.6739 -50.6739 -50.6738 -50.6737 -50.6735 -50.6734 -50.6734
   -50.5125 -50.5123 -50.5122 -50.5121 -50.5120 -50.5119 -50.5118 -50.5118
   -22.2998 -22.2998 -22.2998 -22.2997 -22.2997 -22.2997 -22.2997 -22.2996
   -22.2995 -22.2995 -22.2995 -22.2994 -22.2994 -22.2993 -22.2993 -22.2993
   -22.2301 -22.2301 -22.2301 -22.2301 -22.2300 -22.2300 -22.2300 -22.2298
   -21.6995 -21.6994 -21.6994 -21.6994 -21.6993 -21.6993 -21.6993 -21.6991
   -21.6251 -21.6251 -21.6251 -21.6250 -21.6250 -21.6250 -21.6250 -21.6250
   -21.6248 -21.6248 -21.6248 -21.6247 -21.6247 -21.6247 -21.6246 -21.6246
    16.4736  16.4737  16.4737  16.4738  16.4738  16.4739  16.4739  16.4740
    18.2379  18.2379  18.2381  18.2381  18.2381  18.2381  18.2382  18.2382
    18.2382  18.2382  18.2383  18.2383  18.2384  18.2384  18.2384  18.2384
    18.8527  18.8527  18.8527  18.8527  18.8528  18.8528  18.8528  18.8529
    18.8595  18.8595  18.8595  18.8595  18.8596  18.8596  18.8596  18.8596
    18.8596  18.8597  18.8597  18.8597  18.8598  18.8598  18.8598  18.8598
    22.3679  22.3679  22.3681  22.3681  22.3682  22.3682  22.3682  22.3683
    22.3684  22.3684  22.3685  22.3686  22.3686  22.3686  22.3686  22.3686
    22.7907  22.7907  22.7908  22.7909  22.7909  22.7910

 ------ SPIN DOWN ----------


          k = 0.0567 0.0567 0.0567 ( 11786 PWs)   bands (ev):

   -50.8490 -50.6246 -50.6246 -50.6245 -50.5850 -50.5849 -50.5849 -50.5847
   -50.5847 -50.5846 -50.5788 -50.5788 -50.5786 -50.5625 -50.5576 -50.3993
   -22.6195 -22.6194 -22.6194 -22.6140 -22.6140 -22.6140 -22.2605 -22.2605
   -22.2480 -22.1482 -22.1426 -22.1426 -22.1425 -22.1002 -22.1002 -22.0764
   -22.0764 -22.0764 -22.0018 -22.0018 -21.9532 -21.8968 -21.8968 -21.8968
   -21.8765 -21.8765 -21.8765 -21.8456 -21.8456 -21.8456 -21.8379 -21.8379
   -21.8379 -21.8289 -21.8288 -21.8288 -21.8099 -21.8099 -21.8098 -21.5043
   -21.5043 -21.5043 -21.5013 -21.4987 -21.4987 -21.4987 -21.4875 -21.4875
    13.0133  16.3131  16.3131  16.3131  16.3330  16.3330  16.3330  16.3618
    16.3618  16.7764  16.7765  16.7765  17.1850  17.1850  17.1850  18.3900
    18.4003  18.4003  18.4003  18.4178  18.4178  18.4178  18.5075  18.5075
    18.7027  18.7027  18.7751  18.7907  18.7907  18.7907  19.2901  19.2901
    19.2901  20.0863  20.0863  20.1471  20.4666  20.4666  20.4667  20.5931
    20.5931  20.5931  20.7058  20.7058  20.7058  20.8255  20.8255  20.8255
    21.7886  21.7886  21.7886  21.9223  21.9223  21.9225  22.1086  22.1086
    22.1086  22.1933  22.1934  22.1934  22.3388  22.3389  22.3389  22.3413
    22.3413  22.4140  22.4140  22.4140  22.7390  22.7390

          k = 0.0567 0.0567 0.1701 ( 11795 PWs)   bands (ev):

   -50.8411 -50.6645 -50.6226 -50.6226 -50.5889 -50.5888 -50.5840 -50.5840
   -50.5834 -50.5775 -50.5775 -50.5774 -50.5639 -50.5589 -50.5472 -50.4049
   -22.6034 -22.6033 -22.6021 -22.5971 -22.5871 -22.5870 -22.2684 -22.2481
   -22.2290 -22.2202 -22.1995 -22.1994 -22.1974 -22.1945 -22.1361 -22.1360
   -22.0676 -22.0134 -21.9988 -21.9640 -21.9426 -21.9057 -21.8964 -21.8964
   -21.8787 -21.8592 -21.8525 -21.8524 -21.8506 -21.8340 -21.8340 -21.8298
   -21.8298 -21.8254 -21.8254 -21.7630 -21.7612 -21.7611 -21.7454 -21.5319
   -21.5218 -21.5218 -21.5198 -21.5149 -21.5043 -21.5042 -21.4988 -21.4929
    13.1575  16.2244  16.3533  16.3533  16.4138  16.4138  16.4328  16.4371
    16.4515  16.4517  16.8117  16.8117  17.2114  17.2115  17.4032  18.2459
    18.3058  18.3754  18.3805  18.3964  18.4198  18.4629  18.4630  18.5151
    18.5152  18.5599  18.7562  18.7562  18.9601  18.9646  19.1927  19.1928
    19.7634  20.0510  20.0777  20.1938  20.1939  20.2254  20.2816  20.4181
    20.4181  20.4569  20.8070  20.8071  20.9592  20.9592  21.0007  21.1291
    21.3103  21.3103  21.4787  21.6298  21.6298  21.6397  21.7880  22.0870
    22.0870  22.2357  22.2466  22.2467  22.3557  22.3558  22.3651  22.3834
    22.3974  22.3995  22.3995  22.4294  22.7431  22.7742

          k = 0.0567 0.0567 0.2834 ( 11763 PWs)   bands (ev):

   -50.8255 -50.7037 -50.6189 -50.6188 -50.5945 -50.5945 -50.5826 -50.5826
   -50.5809 -50.5770 -50.5770 -50.5751 -50.5664 -50.5613 -50.5124 -50.4161
   -22.5677 -22.5667 -22.5666 -22.5638 -22.5400 -22.5400 -22.3016 -22.2905
   -22.2793 -22.2792 -22.2732 -22.2325 -22.2237 -22.2204 -22.2204 -22.2015
[...]
    22.0161  22.0162  22.0205  22.0207  22.1336  22.1338  22.3112  22.3114
    22.3337  22.3340  22.4925  22.4928  22.5437  22.5438

          k = 0.1701-0.5102-0.5102 ( 11824 PWs)   bands (ev):

   -50.7131 -50.7128 -50.7128 -50.7124 -50.6134 -50.6132 -50.6131 -50.6128
   -50.5540 -50.5538 -50.5537 -50.5533 -50.4926 -50.4923 -50.4923 -50.4919
   -22.4268 -22.4268 -22.4268 -22.4268 -22.4120 -22.4118 -22.4118 -22.4116
   -22.3777 -22.3776 -22.3776 -22.3774 -22.1085 -22.1083 -22.1083 -22.1080
   -22.0908 -22.0908 -22.0908 -22.0908 -22.0816 -22.0815 -22.0815 -22.0815
   -21.8387 -21.8386 -21.8386 -21.8386 -21.8344 -21.8343 -21.8343 -21.8343
   -21.6591 -21.6589 -21.6588 -21.6585 -21.6198 -21.6197 -21.6197 -21.6196
   -21.6021 -21.6019 -21.6019 -21.6018 -21.5067 -21.5067 -21.5066 -21.5066
    15.5040  15.5042  15.5042  15.5044  17.3284  17.3285  17.3286  17.3286
    17.3770  17.3772  17.3772  17.3774  17.8069  17.8070  17.8070  17.8070
    18.0756  18.0758  18.0758  18.0761  18.4140  18.4141  18.4141  18.4143
    18.5790  18.5791  18.5791  18.5792  19.0961  19.0963  19.0963  19.0964
    19.1443  19.1443  19.1444  19.1444  19.3191  19.3191  19.3191  19.3192
    19.5693  19.5693  19.5693  19.5694  20.1352  20.1352  20.1352  20.1352
    21.8983  21.8984  21.8984  21.8985  22.0239  22.0241  22.0242  22.0244
    22.1762  22.1765  22.1765  22.1768  22.1825  22.1826  22.1826  22.1828
    22.2234  22.2234  22.2234  22.2235  22.4692  22.4697

          k = 0.2834 0.2834 0.2834 ( 11806 PWs)   bands (ev):

   -50.7834 -50.6797 -50.6797 -50.6796 -50.6230 -50.6230 -50.6229 -50.5889
   -50.5540 -50.5487 -50.5487 -50.5486 -50.5211 -50.5211 -50.5210 -50.4441
   -22.5090 -22.5090 -22.5090 -22.4165 -22.4165 -22.4165 -22.3814 -22.3739
   -22.3739 -22.3739 -22.2845 -22.2845 -22.2456 -22.2456 -22.1442 -22.1441
   -22.1441 -22.0751 -22.0751 -22.0751 -22.0133 -22.0003 -22.0003 -22.0002
   -21.8082 -21.7944 -21.7944 -21.7942 -21.7941 -21.7941 -21.7901 -21.7901
   -21.7901 -21.7203 -21.7203 -21.7203 -21.6529 -21.6183 -21.6183 -21.6183
   -21.5713 -21.5713 -21.5712 -21.5425 -21.5425 -21.5425 -21.5252 -21.5252
    14.2331  16.0842  16.0842  16.0842  16.6898  16.6898  16.6898  17.0599
    17.0599  17.1735  17.1735  17.1735  17.7556  17.7556  17.7556  17.8623
    17.9928  17.9928  17.9928  18.3832  18.3832  18.4603  18.5795  18.5796
    18.5796  18.8322  18.8322  18.8322  18.9030  18.9030  19.2181  19.2181
    19.2181  19.4690  19.4690  19.4691  19.6345  19.6345  19.6345  19.6630
    19.6630  19.9409  19.9409  19.9410  19.9880  19.9880  19.9880  21.2024
    21.3809  21.5008  21.5008  21.5008  21.8049  21.8050  21.8050  22.0034
    22.0034  22.0034  22.2148  22.2148  22.2938  22.2938  22.2938  22.4540
    22.4540  22.4540  22.6446  22.6446  22.6446  22.6531

          k = 0.2834 0.2834 0.3968 ( 11794 PWs)   bands (ev):

   -50.7640 -50.7110 -50.6687 -50.6686 -50.6395 -50.6395 -50.6160 -50.5984
   -50.5512 -50.5489 -50.5389 -50.5389 -50.5253 -50.5252 -50.4960 -50.4572
   -22.4798 -22.4798 -22.4613 -22.4073 -22.4043 -22.4042 -22.3898 -22.3708
   -22.3527 -22.3527 -22.3274 -22.3232 -22.2464 -22.2101 -22.2101 -22.1893
   -22.1399 -22.0818 -22.0818 -22.0616 -22.0602 -22.0387 -22.0386 -21.9573
   -21.8867 -21.8448 -21.8071 -21.8040 -21.7664 -21.7664 -21.7386 -21.7386
   -21.7302 -21.7302 -21.7153 -21.6587 -21.6518 -21.6518 -21.6313 -21.6141
   -21.5874 -21.5599 -21.5583 -21.5582 -21.5459 -21.5432 -21.5431 -21.5224
    14.6006  15.5623  16.2937  16.2937  16.6163  16.6163  17.0498  17.2315
    17.2922  17.3609  17.3610  17.4495  17.7086  17.7115  17.7172  17.7172
    17.8558  17.9660  18.2313  18.2313  18.4028  18.5142  18.6689  18.6692
    18.7002  18.7002  18.7206  18.9356  18.9356  19.0429  19.0430  19.1048
    19.2829  19.2829  19.3470  19.3471  19.3581  19.4122  19.4891  19.5072
    19.5194  19.5785  19.6021  19.6021  19.6651  19.6651  20.1781  20.9119
    21.5042  21.6807  21.7379  21.7380  21.8749  21.8749  21.9317  21.9317
    22.0624  22.1385  22.1598  22.1807  22.1807  22.2028  22.3546  22.3640
    22.5570  22.5603  22.6506  22.6506  22.6527  22.6584

          k = 0.2834 0.2834-0.5102 ( 11804 PWs)   bands (ev):

   -50.7397 -50.7394 -50.6552 -50.6551 -50.6549 -50.6549 -50.6078 -50.6075
   -50.5498 -50.5495 -50.5313 -50.5312 -50.5310 -50.5310 -50.4747 -50.4744
   -22.4425 -22.4424 -22.4424 -22.4424 -22.4003 -22.4000 -22.3982 -22.3980
   -22.3531 -22.3530 -22.2821 -22.2821 -22.2820 -22.2820 -22.1979 -22.1976
   -22.1266 -22.1264 -22.0679 -22.0679 -22.0677 -22.0677 -21.9728 -21.9728
   -21.9009 -21.9008 -21.8096 -21.8094 -21.7453 -21.7453 -21.7451 -21.7451
   -21.6920 -21.6920 -21.6919 -21.6919 -21.6458 -21.6455 -21.6183 -21.6182
   -21.6049 -21.6046 -21.5486 -21.5485 -21.5485 -21.5485 -21.5293 -21.5293
    15.0544  15.0546  16.4848  16.4848  16.4849  16.4849  17.4506  17.4508
    17.4880  17.4882  17.5321  17.5323  17.5524  17.5525  17.5526  17.5526
    17.7181  17.7183  18.4505  18.4507  18.5790  18.5790  18.6235  18.6235
    18.6237  18.6237  18.8634  18.8635  18.8635  18.8635  19.0911  19.0912
    19.3068  19.3069  19.3818  19.3819  19.3819  19.3820  19.3884  19.3884
    19.3885  19.3885  19.4306  19.4307  19.4763  19.4765  20.4965  20.4965
    21.8277  21.8277  21.8774  21.8777  21.8971  21.8971  21.8971  21.8971
    21.9787  21.9787  21.9789  21.9789  22.3959  22.3961  22.4559  22.4562
    22.5192  22.5195  22.5275  22.5277  22.6578  22.6582

          k = 0.2834 0.3968 0.3968 ( 11789 PWs)   bands (ev):

   -50.7461 -50.6974 -50.6974 -50.6608 -50.6584 -50.6314 -50.6313 -50.6101
   -50.5463 -50.5404 -50.5403 -50.5287 -50.5244 -50.5029 -50.5029 -50.4687
   -22.4569 -22.4366 -22.4366 -22.4024 -22.3930 -22.3930 -22.3796 -22.3591
   -22.3591 -22.3376 -22.3346 -22.2834 -22.2548 -22.2417 -22.2059 -22.1456
   -22.1456 -22.1308 -22.1307 -22.1154 -22.1019 -22.1018 -22.0875 -21.9635
   -21.8995 -21.7893 -21.7893 -21.7771 -21.7716 -21.7716 -21.7375 -21.7250
   -21.6968 -21.6918 -21.6865 -21.6700 -21.6700 -21.6340 -21.6340 -21.6234
   -21.5830 -21.5830 -21.5782 -21.5662 -21.5416 -21.5415 -21.5383 -21.5292
    14.9496  15.8358  15.8358  16.4030  16.5538  16.9733  16.9733  17.3875
    17.5029  17.5213  17.6434  17.6434  17.6784  17.6784  17.7976  17.9490
    17.9727  18.0347  18.0348  18.1471  18.4895  18.6208  18.6208  18.6240
    18.6242  18.7011  18.7011  18.7986  18.8316  18.8997  19.0061  19.1425
    19.1425  19.1621  19.1841  19.1937  19.1937  19.2239  19.2239  19.3153
    19.3153  19.3664  19.4026  19.4058  19.4614  19.7807  19.7807  20.4490
    21.8436  21.8786  21.8787  21.9080  21.9582  22.0536  22.1163  22.1395
    22.1395  22.1697  22.1697  22.1846  22.2661  22.2661  22.3350  22.4867
    22.5269  22.5269  22.5271  22.5542  22.6352  22.6469

          k = 0.2834 0.3968-0.5102 ( 11812 PWs)   bands (ev):

   -50.7237 -50.7234 -50.6805 -50.6802 -50.6459 -50.6456 -50.6215 -50.6212
   -50.5429 -50.5426 -50.5338 -50.5335 -50.5125 -50.5122 -50.4841 -50.4838
   -22.4252 -22.4251 -22.4139 -22.4138 -22.3843 -22.3840 -22.3686 -22.3685
   -22.3684 -22.3684 -22.3065 -22.3064 -22.2075 -22.2074 -22.2012 -22.2009
   -22.1631 -22.1630 -22.1256 -22.1254 -22.1227 -22.1226 -22.0469 -22.0469
   -21.8434 -21.8433 -21.7739 -21.7738 -21.7503 -21.7502 -21.7379 -21.7378
   -21.6926 -21.6923 -21.6617 -21.6616 -21.6333 -21.6330 -21.6242 -21.6241
   -21.6185 -21.6182 -21.5755 -21.5754 -21.5385 -21.5384 -21.5324 -21.5324
    15.3735  15.3737  16.1325  16.1327  16.8032  16.8033  17.3952  17.3954
    17.5429  17.5431  17.6115  17.6117  17.7921  17.7924  17.8483  17.8484
    17.9016  17.9017  18.4239  18.4241  18.4464  18.4466  18.5456  18.5458
    18.5512  18.5512  18.7584  18.7585  18.8724  18.8724  18.9471  18.9472
    19.0877  19.0878  19.0950  19.0951  19.2064  19.2065  19.2369  19.2369
    19.3059  19.3060  19.3687  19.3687  19.4416  19.4416  20.0542  20.0543
    22.0210  22.0212  22.0443  22.0443  22.0690  22.0692  22.0970  22.0972
    22.1375  22.1376  22.2057  22.2057  22.3749  22.3752  22.3809  22.3811
    22.4582  22.4585  22.4647  22.4648  22.5568  22.5571

          k = 0.2834-0.5102-0.5102 ( 11800 PWs)   bands (ev):

   -50.7039 -50.7036 -50.7035 -50.7032 -50.6346 -50.6343 -50.6343 -50.6339
   -50.5378 -50.5375 -50.5375 -50.5371 -50.4969 -50.4966 -50.4966 -50.4962
   -22.3974 -22.3974 -22.3974 -22.3974 -22.3894 -22.3892 -22.3892 -22.3890
   -22.3367 -22.3366 -22.3366 -22.3364 -22.1728 -22.1726 -22.1725 -22.1723
   -22.1608 -22.1608 -22.1608 -22.1608 -22.1273 -22.1272 -22.1272 -22.1272
   -21.7887 -21.7886 -21.7886 -21.7885 -21.7574 -21.7574 -21.7573 -21.7573
   -21.6492 -21.6490 -21.6490 -21.6487 -21.6387 -21.6386 -21.6386 -21.6384
   -21.6064 -21.6063 -21.6063 -21.6061 -21.5338 -21.5338 -21.5337 -21.5337
    15.7475  15.7477  15.7477  15.7479  17.1417  17.1418  17.1419  17.1420
    17.5991  17.5993  17.5993  17.5995  18.0505  18.0506  18.0506  18.0507
    18.1176  18.1178  18.1178  18.1180  18.3615  18.3616  18.3617  18.3618
    18.6580  18.6580  18.6580  18.6581  18.8815  18.8816  18.8817  18.8818
    19.0680  19.0681  19.0681  19.0681  19.0847  19.0848  19.0848  19.0848
    19.3068  19.3069  19.3069  19.3070  19.6841  19.6841  19.6841  19.6841
    22.1091  22.1093  22.1094  22.1096  22.2393  22.2395  22.2395  22.2399
    22.2557  22.2558  22.2558  22.2559  22.3077  22.3079  22.3079  22.3080
    22.4494  22.4496  22.4497  22.4501  22.6004  22.6004

          k = 0.3968 0.3968 0.3968 ( 11779 PWs)   bands (ev):

   -50.7296 -50.6848 -50.6848 -50.6847 -50.6509 -50.6509 -50.6508 -50.6248
   -50.5383 -50.5276 -50.5276 -50.5275 -50.5089 -50.5089 -50.5088 -50.4788
   -22.4114 -22.4114 -22.4114 -22.3810 -22.3810 -22.3809 -22.3557 -22.3039
   -22.3039 -22.3039 -22.2974 -22.2974 -22.2838 -22.2838 -22.1844 -22.1843
   -22.1843 -22.1838 -22.1838 -22.1838 -22.1557 -22.1557 -22.1556 -22.0323
   -21.8432 -21.7406 -21.7406 -21.7406 -21.7216 -21.7216 -21.7215 -21.7020
   -21.7020 -21.6718 -21.6718 -21.6718 -21.6623 -21.6623 -21.6623 -21.6276
   -21.5810 -21.5810 -21.5810 -21.5662 -21.5662 -21.5596 -21.5596 -21.5595
    15.2918  16.1382  16.1382  16.1382  16.7641  16.7641  16.7641  17.6010
    17.6438  17.6438  17.8071  17.8071  17.8071  17.9673  17.9673  17.9673
    18.0420  18.0421  18.0421  18.1292  18.5468  18.5468  18.6945  18.6945
    18.7139  18.7139  18.7139  18.8016  18.8016  18.8016  18.8520  18.8520
    18.8520  19.0249  19.0250  19.0250  19.0554  19.0554  19.0554  19.0951
    19.0951  19.0952  19.2648  19.2648  19.3933  19.3933  19.3933  19.9861
    22.0270  22.0270  22.0270  22.2179  22.2442  22.2442  22.2442  22.2524
    22.2524  22.2760  22.2761  22.2761  22.3230  22.3231  22.3231  22.5158
    22.5158  22.5497  22.5498  22.5498  22.5735  22.5735

          k = 0.3968 0.3968-0.5102 ( 11776 PWs)   bands (ev):

   -50.7090 -50.7087 -50.6692 -50.6691 -50.6688 -50.6688 -50.6388 -50.6385
   -50.5323 -50.5319 -50.5172 -50.5171 -50.5169 -50.5169 -50.4923 -50.4920
   -22.3874 -22.3874 -22.3874 -22.3873 -22.3531 -22.3529 -22.3449 -22.3448
   -22.3292 -22.3290 -22.2458 -22.2455 -22.2436 -22.2436 -22.2435 -22.2435
   -22.2230 -22.2229 -22.1884 -22.1884 -22.1883 -22.1882 -22.1078 -22.1078
   -21.7897 -21.7897 -21.7141 -21.7139 -21.6980 -21.6980 -21.6980 -21.6979
   -21.6874 -21.6873 -21.6872 -21.6872 -21.6406 -21.6405 -21.6361 -21.6358
   -21.6143 -21.6140 -21.5742 -21.5741 -21.5741 -21.5741 -21.5596 -21.5595
    15.7019  15.7021  16.4694  16.4694  16.4696  16.4696  17.1915  17.1917
    17.7956  17.7958  17.8995  17.8997  17.9302  17.9302  17.9304  17.9304
    18.1196  18.1197  18.3969  18.3969  18.3971  18.3971  18.5914  18.5915
    18.6253  18.6255  18.7440  18.7441  18.7555  18.7557  18.8525  18.8526
    18.8526  18.8526  19.0151  19.0151  19.0152  19.0152  19.0739  19.0739
    19.0739  19.0739  19.1332  19.1333  19.1481  19.1482  19.6055  19.6056
    22.1466  22.1469  22.1803  22.1803  22.1806  22.1806  22.3313  22.3313
    22.3314  22.3314  22.3909  22.3912  22.4118  22.4121  22.4882  22.4884
    22.5372  22.5375  22.5395  22.5395  22.5398  22.5398

          k = 0.3968-0.5102-0.5102 ( 11776 PWs)   bands (ev):

   -50.6906 -50.6904 -50.6903 -50.6900 -50.6551 -50.6549 -50.6548 -50.6545
   -50.5239 -50.5236 -50.5236 -50.5232 -50.5035 -50.5032 -50.5032 -50.5028
   -22.3545 -22.3545 -22.3544 -22.3544 -22.3510 -22.3508 -22.3508 -22.3506
   -22.2859 -22.2858 -22.2858 -22.2856 -22.2389 -22.2387 -22.2386 -22.2384
   -22.2343 -22.2343 -22.2342 -22.2342 -22.1756 -22.1755 -22.1755 -22.1754
   -21.7410 -21.7409 -21.7409 -21.7408 -21.6869 -21.6869 -21.6869 -21.6869
   -21.6652 -21.6651 -21.6651 -21.6650 -21.6373 -21.6371 -21.6371 -21.6368
   -21.6147 -21.6145 -21.6145 -21.6143 -21.5737 -21.5737 -21.5736 -21.5736
    16.0844  16.0845  16.0846  16.0847  16.8505  16.8507  16.8507  16.8509
    17.9039  17.9041  17.9041  17.9043  18.1740  18.1742  18.1742  18.1744
    18.3023  18.3025  18.3025  18.3027  18.3099  18.3100  18.3101  18.3102
    18.7530  18.7530  18.7530  18.7531  18.7902  18.7903  18.7904  18.7905
    18.7937  18.7938  18.7938  18.7939  18.9687  18.9687  18.9687  18.9687
    19.0498  19.0498  19.0498  19.0499  19.2382  19.2382  19.2382  19.2383
    22.2268  22.2270  22.2271  22.2274  22.3069  22.3071  22.3072  22.3075
    22.4161  22.4164  22.4164  22.4168  22.5119  22.5121  22.5121  22.5122
    22.5182  22.5185  22.5185  22.5189  22.5632  22.5633

          k =-0.5102-0.5102-0.5102 ( 11752 PWs)   bands (ev):

   -50.6742 -50.6740 -50.6740 -50.6740 -50.6737 -50.6737 -50.6736 -50.6732
   -50.5126 -50.5124 -50.5123 -50.5123 -50.5120 -50.5120 -50.5119 -50.5115
   -22.2999 -22.2999 -22.2999 -22.2998 -22.2998 -22.2998 -22.2998 -22.2998
   -22.2995 -22.2995 -22.2995 -22.2995 -22.2995 -22.2993 -22.2993 -22.2993
   -22.2303 -22.2302 -22.2301 -22.2301 -22.2301 -22.2301 -22.2300 -22.2299
   -21.6996 -21.6995 -21.6995 -21.6995 -21.6994 -21.6994 -21.6994 -21.6993
   -21.6252 -21.6252 -21.6252 -21.6252 -21.6251 -21.6251 -21.6251 -21.6251
   -21.6248 -21.6248 -21.6248 -21.6248 -21.6248 -21.6246 -21.6246 -21.6246
    16.4736  16.4737  16.4737  16.4738  16.4738  16.4739  16.4739  16.4740
    18.2379  18.2379  18.2380  18.2380  18.2380  18.2381  18.2381  18.2381
    18.2383  18.2383  18.2383  18.2383  18.2383  18.2383  18.2385  18.2385
    18.8526  18.8527  18.8527  18.8527  18.8528  18.8528  18.8528  18.8529
    18.8594  18.8594  18.8595  18.8595  18.8595  18.8595  18.8595  18.8596
    18.8597  18.8597  18.8597  18.8597  18.8597  18.8598  18.8598  18.8598
    22.3679  22.3679  22.3680  22.3680  22.3681  22.3681  22.3681  22.3681
    22.3684  22.3684  22.3684  22.3684  22.3684  22.3685  22.3688  22.3688
    22.7905  22.7905  22.7905  22.7906  22.7906  22.7907

     the Fermi energy is    21.0746 ev

!    total energy              =   -3971.48795618 Ry
     Harris-Foulkes estimate   =   -3971.48795484 Ry
     estimated scf accuracy    <       0.00000090 Ry

     total all-electron energy =    -33628.010836 Ry

     The total energy is the sum of the following terms:

     one-electron contribution =    -816.08286636 Ry
     hartree contribution      =     558.00758684 Ry
     xc contribution           =    -357.60695191 Ry
     ewald contribution        =   -2167.78951966 Ry
     one-center paw contrib.   =   -1188.02337280 Ry
     smearing contrib. (-TS)   =       0.00716771 Ry

     total magnetization       =    -0.00 Bohr mag/cell
     absolute magnetization    =     0.08 Bohr mag/cell

     convergence has been achieved in  39 iterations

     Forces acting on atoms (cartesian axes, Ry/au):

     atom    1 type  1   force =     0.00000000    0.00000000    0.00000000
     atom    2 type  2   force =     0.00005611    0.00005611    0.00005611
     atom    3 type  1   force =     0.00000000    0.00000000    0.00000000
     atom    4 type  2   force =     0.00005611    0.00005611   -0.00005611
     atom    5 type  1   force =     0.00000000    0.00000000    0.00000000
     atom    6 type  2   force =     0.00005611   -0.00005611    0.00005611
     atom    7 type  1   force =     0.00000000    0.00000000    0.00000000
     atom    8 type  2   force =     0.00005611   -0.00005611   -0.00005611
     atom    9 type  1   force =     0.00000000    0.00000000    0.00000000
     atom   10 type  2   force =    -0.00005611    0.00005611    0.00005611
     atom   11 type  1   force =     0.00000000    0.00000000    0.00000000
     atom   12 type  2   force =    -0.00005611    0.00005611   -0.00005611
     atom   13 type  1   force =     0.00000000    0.00000000    0.00000000
     atom   14 type  2   force =    -0.00005611   -0.00005611    0.00005611
     atom   15 type  1   force =     0.00000000   -0.00000000    0.00000000
     atom   16 type  2   force =    -0.00005611   -0.00005611   -0.00005611

     Total force =     0.000275     Total SCF correction =     0.001565
     SCF correction compared to forces is large: reduce conv_thr to get better values


     Computing stress (Cartesian axis) and pressure

          total   stress  (Ry/bohr**3)                   (kbar)     P=  187.98
   0.00127789   0.00000000   0.00000000        187.98      0.00      0.00
   0.00000000   0.00127789   0.00000000          0.00    187.98      0.00
   0.00000000   0.00000000   0.00127789          0.00      0.00    187.98


     Writing output data file kDSEDKKGMAmFBqOA.save/
 
     init_run     :      7.20s CPU      7.50s WALL (       1 calls)
     electrons    :   1360.53s CPU   1387.22s WALL (       1 calls)
     forces       :      2.19s CPU      2.33s WALL (       1 calls)
     stress       :      9.49s CPU      9.57s WALL (       1 calls)

     Called by init_run:
     wfcinit      :      6.59s CPU      6.83s WALL (       1 calls)
     potinit      :      0.31s CPU      0.32s WALL (       1 calls)
     hinit0       :      0.12s CPU      0.14s WALL (       1 calls)

     Called by electrons:
     c_bands      :   1263.52s CPU   1285.65s WALL (      40 calls)
     sum_band     :     83.43s CPU     86.94s WALL (      40 calls)
     v_of_rho     :      0.98s CPU      1.06s WALL (      40 calls)
     newd         :      2.03s CPU      2.52s WALL (      40 calls)
     PAW_pot      :     10.35s CPU     10.77s WALL (      40 calls)
     mix_rho      :      0.31s CPU      0.34s WALL (      40 calls)

     Called by c_bands:
     init_us_2    :      5.54s CPU      5.67s WALL (    5810 calls)
     cegterg      :   1230.62s CPU   1252.44s WALL (    2800 calls)

     Called by sum_band:
     sum_band:bec :      0.86s CPU      0.87s WALL (    2800 calls)
     addusdens    :      3.71s CPU      4.21s WALL (      40 calls)

     Called by *egterg:
     h_psi        :    419.71s CPU    433.12s WALL (   15085 calls)
     s_psi        :     30.95s CPU     31.10s WALL (   15085 calls)
     g_psi        :      1.72s CPU      1.73s WALL (   12215 calls)
     cdiaghg      :    639.70s CPU    641.37s WALL (   14945 calls)

     Called by h_psi:
     h_psi:pot    :    416.87s CPU    430.24s WALL (   15085 calls)
     h_psi:calbec :     36.23s CPU     39.85s WALL (   15085 calls)
     vloc_psi     :    348.22s CPU    357.84s WALL (   15085 calls)
     add_vuspsi   :     32.30s CPU     32.48s WALL (   15085 calls)

     General routines
     calbec       :     51.22s CPU     56.15s WALL (   18235 calls)
     fft          :      0.75s CPU      0.85s WALL (    1042 calls)
     ffts         :      0.07s CPU      0.08s WALL (     160 calls)
     fftw         :    382.88s CPU    393.41s WALL ( 2569006 calls)
     interpolate  :      0.11s CPU      0.12s WALL (      80 calls)
 
     Parallel routines
     fft_scatt_xy :     31.60s CPU     32.48s WALL ( 2570208 calls)
     fft_scatt_yz :    223.44s CPU    229.75s WALL ( 2570208 calls)
 
     PWSCF        : 23m 3.12s CPU    23m36.40s WALL

 
   This run was terminated on:  20: 9: 4  15Jun2020            

=------------------------------------------------------------------------------=
   JOB DONE.
=------------------------------------------------------------------------------=
