--------------------------------------------------------------------------
WARNING: No preset parameters were found for the device that Open MPI
detected:

  Local host:            bear-pg0206u20b
  Device name:           mlx5_0
  Device vendor ID:      0x02c9
  Device vendor part ID: 4123

Default device parameters will be used, which may result in lower
performance.  You can edit any of the files specified by the
btl_openib_device_param_files MCA parameter to set values for your
device.

NOTE: You can turn off this warning by setting the MCA parameter
      btl_openib_warn_no_device_params_found to 0.
--------------------------------------------------------------------------
--------------------------------------------------------------------------
WARNING: There was an error initializing an OpenFabrics device.

  Local host:   bear-pg0206u20b
  Local device: mlx5_0
--------------------------------------------------------------------------

     Program PWSCF v.6.3 starts on 16Jun2020 at  3:29:11 

     This program is part of the open-source Quantum ESPRESSO suite
     for quantum simulation of materials; please cite
         "P. Giannozzi et al., J. Phys.:Condens. Matter 21 395502 (2009);
         "P. Giannozzi et al., J. Phys.:Condens. Matter 29 465901 (2017);
          URL http://www.quantum-espresso.org", 
     in publications or presentations arising from this work. More details at
     http://www.quantum-espresso.org/quote

     Parallel version (MPI & OpenMP), running on      20 processor cores
     Number of MPI processes:                20
     Threads/MPI process:                     1

     MPI processes distributed on     1 nodes
     R & G space division:  proc/nbgrp/npool/nimage =      20
     Reading input from wd/eos/eos_010.in
Warning: card &IONS ignored
Warning: card ION_DYNAMICS = 'BFGS', ignored
Warning: card / ignored
Warning: card &CELL ignored
Warning: card CELL_DYNAMICS = 'BFGS', ignored
Warning: card CELL_FACTOR = 2.0, ignored
Warning: card PRESS = 0.0, ignored
Warning: card / ignored

     Current dimensions of program PWSCF are:
     Max number of different atomic species (ntypx) = 10
     Max number of k-points (npk) =  40000
     Max angular momentum in pseudopotentials (lmaxx) =  3
     Message from routine read_upf::
     Pseudo file /rds/homes/b/bxp912/pp/Cr.pbe-spn-kjpaw_psl.1.0.0.UPF has been successfully fixed on the fly.
To avoid this message in the future you can permanently fix 
 your pseudo files following instructions given in: 
https://gitlab.com/QEF/q-e/blob/master/upftools/how_to_fix_upf.md
               file Cr.pbe-spn-kjpaw_psl.1.0.0.UPF: wavefunction(s)  3S 3P 3D renormalized
     Message from routine read_upf::
     Pseudo file /rds/homes/b/bxp912/pp/Cr.pbe-spn-kjpaw_psl.1.0.0.UPF has been successfully fixed on the fly.
To avoid this message in the future you can permanently fix 
 your pseudo files following instructions given in: 
https://gitlab.com/QEF/q-e/blob/master/upftools/how_to_fix_upf.md
               file Cr.pbe-spn-kjpaw_psl.1.0.0.UPF: wavefunction(s)  3S 3P 3D renormalized

     Subspace diagonalization in iterative solution of the eigenvalue problem:
     a serial algorithm will be used

     Found symmetry operation: I + (  0.0000  0.0000  0.5000)
     This is a supercell, fractional translations are disabled
 
     Parallelization info
     --------------------
     sticks:   dense  smooth     PW     G-vecs:    dense   smooth      PW
     Min         199     130     37                 9495     5080     759
     Max         200     131     38                 9500     5085     762
     Sum        3993    2617    749               189935   101673   15203
 


     bravais-lattice index     =            0
     lattice parameter (alat)  =      10.7442  a.u.
     unit-cell volume          =    1261.6596 (a.u.)^3
     number of atoms/cell      =           16
     number of atomic types    =            2
     number of electrons       =       224.00
     number of Kohn-Sham states=          134
     kinetic-energy cutoff     =      71.0000  Ry
     charge density cutoff     =     430.0000  Ry
     convergence threshold     =      1.0E-06
     mixing beta               =       0.1000
     number of iterations used =           10  plain     mixing
     Exchange-correlation      = SLA PW PBX PBC ( 1  4  3  4 0 0)

     celldm(1)=  10.744168  celldm(2)=   0.000000  celldm(3)=   0.000000
     celldm(4)=   0.000000  celldm(5)=   0.000000  celldm(6)=   0.000000

     crystal axes: (cart. coord. in units of alat)
               a(1) = (   1.005714   0.000000   0.000000 )  
               a(2) = (   0.000000   1.005714   0.000000 )  
               a(3) = (   0.000000   0.000000   1.005714 )  

     reciprocal axes: (cart. coord. in units 2 pi/alat)
               b(1) = (  0.994318  0.000000  0.000000 )  
               b(2) = (  0.000000  0.994318  0.000000 )  
               b(3) = (  0.000000  0.000000  0.994318 )  


     PseudoPot. # 1 for Cr read from file:
     /rds/homes/b/bxp912/pp/Cr.pbe-spn-kjpaw_psl.1.0.0.UPF
     MD5 check sum: cb1c17117da000fe5e03c4f1a6841d9c
     Pseudo is Projector augmented-wave + core cor, Zval = 14.0
     Generated using "atomic" code by A. Dal Corso v.5.1
     Shape of augmentation charge: PSQ
     Using radial grid of 1183 points,  6 beta functions with: 
                l(1) =   0
                l(2) =   0
                l(3) =   1
                l(4) =   1
                l(5) =   2
                l(6) =   2
     Q(r) pseudized with 0 coefficients 


     PseudoPot. # 2 for Cr read from file:
     /rds/homes/b/bxp912/pp/Cr.pbe-spn-kjpaw_psl.1.0.0.UPF
     MD5 check sum: cb1c17117da000fe5e03c4f1a6841d9c
     Pseudo is Projector augmented-wave + core cor, Zval = 14.0
     Generated using "atomic" code by A. Dal Corso v.5.1
     Shape of augmentation charge: PSQ
     Using radial grid of 1183 points,  6 beta functions with: 
                l(1) =   0
                l(2) =   0
                l(3) =   1
                l(4) =   1
                l(5) =   2
                l(6) =   2
     Q(r) pseudized with 0 coefficients 


     atomic species   valence    mass     pseudopotential
        Cr1           14.00    55.84500     Cr( 1.00)
        Cr2           14.00    55.84500     Cr( 1.00)

     Starting magnetic structure 
     atomic species   magnetization
        Cr1          0.300
        Cr2         -0.300

     48 Sym. Ops., with inversion, found



   Cartesian axes

     site n.     atom                  positions (alat units)
         1           Cr1 tau(   1) = (   0.0000000   0.0000000   0.0000000  )
         2           Cr2 tau(   2) = (   0.2514286   0.2514286   0.2514283  )
         3           Cr1 tau(   3) = (   0.0000000   0.0000000   0.5028566  )
         4           Cr2 tau(   4) = (   0.2514286   0.2514286   0.7542860  )
         5           Cr1 tau(   5) = (   0.0000000   0.5028573   0.0000000  )
         6           Cr2 tau(   6) = (   0.2514286   0.7542860   0.2514283  )
         7           Cr1 tau(   7) = (   0.0000000   0.5028573   0.5028566  )
         8           Cr2 tau(   8) = (   0.2514286   0.7542860   0.7542860  )
         9           Cr1 tau(   9) = (   0.5028573   0.0000000   0.0000000  )
        10           Cr2 tau(  10) = (   0.7542860   0.2514286   0.2514283  )
        11           Cr1 tau(  11) = (   0.5028573   0.0000000   0.5028566  )
        12           Cr2 tau(  12) = (   0.7542860   0.2514286   0.7542860  )
        13           Cr1 tau(  13) = (   0.5028573   0.5028573   0.0000000  )
        14           Cr2 tau(  14) = (   0.7542860   0.7542860   0.2514283  )
        15           Cr1 tau(  15) = (   0.5028573   0.5028573   0.5028566  )
        16           Cr2 tau(  16) = (   0.7542860   0.7542860   0.7542860  )

     number of k points=    35  Marzari-Vanderbilt smearing, width (Ry)=  0.0400
                       cart. coord. in units 2pi/alat
        k(    1) = (   0.0552399   0.0552399   0.0552399), wk =   0.0109739
        k(    2) = (   0.0552399   0.0552399   0.1657197), wk =   0.0329218
        k(    3) = (   0.0552399   0.0552399   0.2761995), wk =   0.0329218
        k(    4) = (   0.0552399   0.0552399   0.3866793), wk =   0.0329218
        k(    5) = (   0.0552399   0.0552399  -0.4971591), wk =   0.0164609
        k(    6) = (   0.0552399   0.1657197   0.1657197), wk =   0.0329218
        k(    7) = (   0.0552399   0.1657197   0.2761995), wk =   0.0658436
        k(    8) = (   0.0552399   0.1657197   0.3866793), wk =   0.0658436
        k(    9) = (   0.0552399   0.1657197  -0.4971591), wk =   0.0329218
        k(   10) = (   0.0552399   0.2761995   0.2761995), wk =   0.0329218
        k(   11) = (   0.0552399   0.2761995   0.3866793), wk =   0.0658436
        k(   12) = (   0.0552399   0.2761995  -0.4971591), wk =   0.0329218
        k(   13) = (   0.0552399   0.3866793   0.3866793), wk =   0.0329218
        k(   14) = (   0.0552399   0.3866793  -0.4971591), wk =   0.0329218
        k(   15) = (   0.0552399  -0.4971591  -0.4971591), wk =   0.0082305
        k(   16) = (   0.1657197   0.1657197   0.1657197), wk =   0.0109739
        k(   17) = (   0.1657197   0.1657197   0.2761995), wk =   0.0329218
        k(   18) = (   0.1657197   0.1657197   0.3866793), wk =   0.0329218
        k(   19) = (   0.1657197   0.1657197  -0.4971591), wk =   0.0164609
        k(   20) = (   0.1657197   0.2761995   0.2761995), wk =   0.0329218
        k(   21) = (   0.1657197   0.2761995   0.3866793), wk =   0.0658436
        k(   22) = (   0.1657197   0.2761995  -0.4971591), wk =   0.0329218
        k(   23) = (   0.1657197   0.3866793   0.3866793), wk =   0.0329218
        k(   24) = (   0.1657197   0.3866793  -0.4971591), wk =   0.0329218
        k(   25) = (   0.1657197  -0.4971591  -0.4971591), wk =   0.0082305
        k(   26) = (   0.2761995   0.2761995   0.2761995), wk =   0.0109739
        k(   27) = (   0.2761995   0.2761995   0.3866793), wk =   0.0329218
        k(   28) = (   0.2761995   0.2761995  -0.4971591), wk =   0.0164609
        k(   29) = (   0.2761995   0.3866793   0.3866793), wk =   0.0329218
        k(   30) = (   0.2761995   0.3866793  -0.4971591), wk =   0.0329218
        k(   31) = (   0.2761995  -0.4971591  -0.4971591), wk =   0.0082305
        k(   32) = (   0.3866793   0.3866793   0.3866793), wk =   0.0109739
        k(   33) = (   0.3866793   0.3866793  -0.4971591), wk =   0.0164609
        k(   34) = (   0.3866793  -0.4971591  -0.4971591), wk =   0.0082305
        k(   35) = (  -0.4971591  -0.4971591  -0.4971591), wk =   0.0013717

     Dense  grid:   189935 G-vectors     FFT dimensions: (  72,  72,  72)

     Smooth grid:   101673 G-vectors     FFT dimensions: (  60,  60,  60)

     Estimated max dynamical RAM per process >     145.33 MB

     Estimated total dynamical RAM >       2.84 GB
     Generating pointlists ...
     new r_m :   0.1796 (alat units)  1.9301 (a.u.) for type    1
     new r_m :   0.1796 (alat units)  1.9301 (a.u.) for type    2

     Check: negative/imaginary core charge=   -0.000009    0.000000

     Initial potential from superposition of free atoms

     starting charge  223.98764, renormalised to  224.00000
     Starting wfcs are  160 randomized atomic wfcs
     Checking if some PAW data can be deallocated... 

     total cpu time spent up to now is        9.3 secs

     Self-consistent Calculation

     iteration #  1     ecut=    71.00 Ry     beta= 0.10
     Davidson diagonalization with overlap
     ethr =  1.00E-02,  avg # of iterations =  3.2

     Threshold (ethr) on eigenvalues was too large:
     Diagonalizing with lowered threshold

     Davidson diagonalization with overlap
     ethr =  7.50E-04,  avg # of iterations =  3.5

     total cpu time spent up to now is       56.4 secs

     total energy              =   -3970.62203497 Ry
     Harris-Foulkes estimate   =   -3970.52913172 Ry
     estimated scf accuracy    <       1.75732229 Ry

     total magnetization       =    -0.00 Bohr mag/cell
     absolute magnetization    =    39.39 Bohr mag/cell

     iteration #  2     ecut=    71.00 Ry     beta= 0.10
     Davidson diagonalization with overlap
     ethr =  7.85E-04,  avg # of iterations =  1.0

     total cpu time spent up to now is       72.0 secs

     total energy              =   -3971.05257545 Ry
     Harris-Foulkes estimate   =   -3970.63242203 Ry
     estimated scf accuracy    <       1.32823181 Ry

     total magnetization       =     0.00 Bohr mag/cell
     absolute magnetization    =    39.44 Bohr mag/cell

     iteration #  3     ecut=    71.00 Ry     beta= 0.10
     Davidson diagonalization with overlap
     ethr =  5.93E-04,  avg # of iterations =  3.0

     total cpu time spent up to now is       96.9 secs

     total energy              =   -3971.29020676 Ry
     Harris-Foulkes estimate   =   -3971.24893274 Ry
     estimated scf accuracy    <       0.31356114 Ry

     total magnetization       =    -0.00 Bohr mag/cell
     absolute magnetization    =    38.23 Bohr mag/cell

     iteration #  4     ecut=    71.00 Ry     beta= 0.10
     Davidson diagonalization with overlap
     ethr =  1.40E-04,  avg # of iterations =  2.2

     total cpu time spent up to now is      115.6 secs

     total energy              =   -3971.30120161 Ry
     Harris-Foulkes estimate   =   -3971.30033484 Ry
     estimated scf accuracy    <       0.45961178 Ry

     total magnetization       =    -0.00 Bohr mag/cell
     absolute magnetization    =    38.62 Bohr mag/cell

     iteration #  5     ecut=    71.00 Ry     beta= 0.10
     Davidson diagonalization with overlap
     ethr =  1.40E-04,  avg # of iterations =  5.1

     total cpu time spent up to now is      147.8 secs

     total energy              =   -3971.42909569 Ry
     Harris-Foulkes estimate   =   -3971.42436654 Ry
     estimated scf accuracy    <       0.04094903 Ry

     total magnetization       =     0.00 Bohr mag/cell
     absolute magnetization    =    31.85 Bohr mag/cell

     iteration #  6     ecut=    71.00 Ry     beta= 0.10
     Davidson diagonalization with overlap
     ethr =  1.83E-05,  avg # of iterations =  3.9

     total cpu time spent up to now is      171.3 secs

     total energy              =   -3971.42468873 Ry
     Harris-Foulkes estimate   =   -3971.43058511 Ry
     estimated scf accuracy    <       0.03726527 Ry

     total magnetization       =     0.00 Bohr mag/cell
     absolute magnetization    =    31.62 Bohr mag/cell

     iteration #  7     ecut=    71.00 Ry     beta= 0.10
     Davidson diagonalization with overlap
     ethr =  1.66E-05,  avg # of iterations =  1.0

     total cpu time spent up to now is      186.9 secs

     total energy              =   -3971.45249702 Ry
     Harris-Foulkes estimate   =   -3971.42509815 Ry
     estimated scf accuracy    <       0.04412492 Ry

     total magnetization       =     0.00 Bohr mag/cell
     absolute magnetization    =    31.89 Bohr mag/cell

     iteration #  8     ecut=    71.00 Ry     beta= 0.10
     Davidson diagonalization with overlap
     ethr =  1.66E-05,  avg # of iterations =  5.9

     total cpu time spent up to now is      224.1 secs

     total energy              =   -3971.49449192 Ry
     Harris-Foulkes estimate   =   -3971.48123577 Ry
     estimated scf accuracy    <       0.02286251 Ry

     total magnetization       =     0.00 Bohr mag/cell
     absolute magnetization    =    27.77 Bohr mag/cell

     iteration #  9     ecut=    71.00 Ry     beta= 0.10
     Davidson diagonalization with overlap
     ethr =  1.02E-05,  avg # of iterations =  5.0

     total cpu time spent up to now is      255.7 secs

     total energy              =   -3971.50956422 Ry
     Harris-Foulkes estimate   =   -3971.50093360 Ry
     estimated scf accuracy    <       0.00934671 Ry

     total magnetization       =     0.00 Bohr mag/cell
     absolute magnetization    =    25.92 Bohr mag/cell

     iteration # 10     ecut=    71.00 Ry     beta= 0.10
     Davidson diagonalization with overlap
     ethr =  4.17E-06,  avg # of iterations =  5.4

     total cpu time spent up to now is      292.7 secs

     total energy              =   -3971.51342993 Ry
     Harris-Foulkes estimate   =   -3971.51832722 Ry
     estimated scf accuracy    <       0.00860537 Ry

     total magnetization       =     0.00 Bohr mag/cell
     absolute magnetization    =    23.47 Bohr mag/cell

     iteration # 11     ecut=    71.00 Ry     beta= 0.10
     Davidson diagonalization with overlap
     ethr =  3.84E-06,  avg # of iterations =  1.0

     total cpu time spent up to now is      308.2 secs

     total energy              =   -3971.51564968 Ry
     Harris-Foulkes estimate   =   -3971.51395592 Ry
     estimated scf accuracy    <       0.01126010 Ry

     total magnetization       =     0.00 Bohr mag/cell
     absolute magnetization    =    23.98 Bohr mag/cell

     iteration # 12     ecut=    71.00 Ry     beta= 0.10
     Davidson diagonalization with overlap
     ethr =  3.84E-06,  avg # of iterations =  5.8

     total cpu time spent up to now is      350.0 secs

     total energy              =   -3971.53420894 Ry
     Harris-Foulkes estimate   =   -3971.53287970 Ry
     estimated scf accuracy    <       0.00376151 Ry

     total magnetization       =    -0.00 Bohr mag/cell
     absolute magnetization    =    20.49 Bohr mag/cell

     iteration # 13     ecut=    71.00 Ry     beta= 0.10
     Davidson diagonalization with overlap
     ethr =  1.68E-06,  avg # of iterations =  3.0

     total cpu time spent up to now is      370.7 secs

     total energy              =   -3971.53364717 Ry
     Harris-Foulkes estimate   =   -3971.53452248 Ry
     estimated scf accuracy    <       0.00278767 Ry

     total magnetization       =     0.00 Bohr mag/cell
     absolute magnetization    =    20.09 Bohr mag/cell

     iteration # 14     ecut=    71.00 Ry     beta= 0.10
     Davidson diagonalization with overlap
     ethr =  1.24E-06,  avg # of iterations =  1.0

     total cpu time spent up to now is      386.2 secs

     total energy              =   -3971.53491694 Ry
     Harris-Foulkes estimate   =   -3971.53375119 Ry
     estimated scf accuracy    <       0.00277172 Ry

     total magnetization       =    -0.01 Bohr mag/cell
     absolute magnetization    =    20.27 Bohr mag/cell

     iteration # 15     ecut=    71.00 Ry     beta= 0.10
     Davidson diagonalization with overlap
     ethr =  1.24E-06,  avg # of iterations =  4.0

     total cpu time spent up to now is      413.8 secs

     total energy              =   -3971.53632277 Ry
     Harris-Foulkes estimate   =   -3971.53559520 Ry
     estimated scf accuracy    <       0.00167244 Ry

     total magnetization       =    -0.01 Bohr mag/cell
     absolute magnetization    =    19.70 Bohr mag/cell

     iteration # 16     ecut=    71.00 Ry     beta= 0.10
     Davidson diagonalization with overlap
     ethr =  7.47E-07,  avg # of iterations =  5.0

     total cpu time spent up to now is      448.0 secs

     total energy              =   -3971.53924883 Ry
     Harris-Foulkes estimate   =   -3971.53872130 Ry
     estimated scf accuracy    <       0.00081482 Ry

     total magnetization       =     0.00 Bohr mag/cell
     absolute magnetization    =    18.37 Bohr mag/cell

     iteration # 17     ecut=    71.00 Ry     beta= 0.10
     Davidson diagonalization with overlap
     ethr =  3.64E-07,  avg # of iterations =  4.1

     total cpu time spent up to now is      473.4 secs

     total energy              =   -3971.53863200 Ry
     Harris-Foulkes estimate   =   -3971.53941293 Ry
     estimated scf accuracy    <       0.00074137 Ry

     total magnetization       =    -0.00 Bohr mag/cell
     absolute magnetization    =    18.04 Bohr mag/cell

     iteration # 18     ecut=    71.00 Ry     beta= 0.10
     Davidson diagonalization with overlap
     ethr =  3.31E-07,  avg # of iterations =  3.7

     total cpu time spent up to now is      497.0 secs

     total energy              =   -3971.53941266 Ry
     Harris-Foulkes estimate   =   -3971.53877155 Ry
     estimated scf accuracy    <       0.00086677 Ry

     total magnetization       =    -0.00 Bohr mag/cell
     absolute magnetization    =    18.35 Bohr mag/cell

     iteration # 19     ecut=    71.00 Ry     beta= 0.10
     Davidson diagonalization with overlap
     ethr =  3.31E-07,  avg # of iterations =  4.1

     total cpu time spent up to now is      524.1 secs

     total energy              =   -3971.53987043 Ry
     Harris-Foulkes estimate   =   -3971.53981493 Ry
     estimated scf accuracy    <       0.00112827 Ry

     total magnetization       =     0.01 Bohr mag/cell
     absolute magnetization    =    17.82 Bohr mag/cell

     iteration # 20     ecut=    71.00 Ry     beta= 0.10
     Davidson diagonalization with overlap
     ethr =  3.31E-07,  avg # of iterations =  1.0

     total cpu time spent up to now is      539.6 secs

     total energy              =   -3971.53950228 Ry
     Harris-Foulkes estimate   =   -3971.53988436 Ry
     estimated scf accuracy    <       0.00081325 Ry

     total magnetization       =     0.01 Bohr mag/cell
     absolute magnetization    =    17.82 Bohr mag/cell

     iteration # 21     ecut=    71.00 Ry     beta= 0.10
     Davidson diagonalization with overlap
     ethr =  3.31E-07,  avg # of iterations =  5.8

     total cpu time spent up to now is      578.2 secs

     total energy              =   -3971.53986823 Ry
     Harris-Foulkes estimate   =   -3971.54175853 Ry
     estimated scf accuracy    <       0.00032198 Ry

     total magnetization       =     0.00 Bohr mag/cell
     absolute magnetization    =    16.50 Bohr mag/cell

     iteration # 22     ecut=    71.00 Ry     beta= 0.10
     Davidson diagonalization with overlap
     ethr =  1.44E-07,  avg # of iterations =  5.5

     total cpu time spent up to now is      620.7 secs

     total energy              =   -3971.54309170 Ry
     Harris-Foulkes estimate   =   -3971.54312889 Ry
     estimated scf accuracy    <       0.00016726 Ry

     total magnetization       =     0.00 Bohr mag/cell
     absolute magnetization    =    14.88 Bohr mag/cell

     iteration # 23     ecut=    71.00 Ry     beta= 0.10
     Davidson diagonalization with overlap
     ethr =  7.47E-08,  avg # of iterations =  1.1

     total cpu time spent up to now is      636.5 secs

     total energy              =   -3971.54074382 Ry
     Harris-Foulkes estimate   =   -3971.54309537 Ry
     estimated scf accuracy    <       0.00017781 Ry

     total magnetization       =     0.00 Bohr mag/cell
     absolute magnetization    =    14.93 Bohr mag/cell

     iteration # 24     ecut=    71.00 Ry     beta= 0.10
     Davidson diagonalization with overlap
     ethr =  7.47E-08,  avg # of iterations =  5.5

     total cpu time spent up to now is      677.3 secs

     total energy              =   -3971.54135094 Ry
     Harris-Foulkes estimate   =   -3971.54226844 Ry
     estimated scf accuracy    <       0.00034565 Ry

     total magnetization       =     0.01 Bohr mag/cell
     absolute magnetization    =    16.03 Bohr mag/cell

     iteration # 25     ecut=    71.00 Ry     beta= 0.10
     Davidson diagonalization with overlap
     ethr =  7.47E-08,  avg # of iterations =  5.6

     total cpu time spent up to now is      720.6 secs

     total energy              =   -3971.54281778 Ry
     Harris-Foulkes estimate   =   -3971.54317395 Ry
     estimated scf accuracy    <       0.00012070 Ry

     total magnetization       =     0.00 Bohr mag/cell
     absolute magnetization    =    14.82 Bohr mag/cell

     iteration # 26     ecut=    71.00 Ry     beta= 0.10
     Davidson diagonalization with overlap
     ethr =  5.39E-08,  avg # of iterations =  4.4

     total cpu time spent up to now is      751.3 secs

     total energy              =   -3971.54181132 Ry
     Harris-Foulkes estimate   =   -3971.54296671 Ry
     estimated scf accuracy    <       0.00029511 Ry

     total magnetization       =     0.01 Bohr mag/cell
     absolute magnetization    =    15.16 Bohr mag/cell

     iteration # 27     ecut=    71.00 Ry     beta= 0.10
     Davidson diagonalization with overlap
     ethr =  5.39E-08,  avg # of iterations =  6.0

     total cpu time spent up to now is      797.2 secs

     total energy              =   -3971.54214055 Ry
     Harris-Foulkes estimate   =   -3971.54354645 Ry
     estimated scf accuracy    <       0.00005504 Ry

     total magnetization       =     0.00 Bohr mag/cell
     absolute magnetization    =    13.97 Bohr mag/cell

     iteration # 28     ecut=    71.00 Ry     beta= 0.10
     Davidson diagonalization with overlap
     ethr =  2.46E-08,  avg # of iterations =  5.9

     total cpu time spent up to now is      843.8 secs

     total energy              =   -3971.54215106 Ry
     Harris-Foulkes estimate   =   -3971.54314535 Ry
     estimated scf accuracy    <       0.00012547 Ry

     total magnetization       =     0.00 Bohr mag/cell
     absolute magnetization    =    14.87 Bohr mag/cell

     iteration # 29     ecut=    71.00 Ry     beta= 0.10
     Davidson diagonalization with overlap
     ethr =  2.46E-08,  avg # of iterations =  5.8

     total cpu time spent up to now is      890.4 secs

     total energy              =   -3971.54352188 Ry
     Harris-Foulkes estimate   =   -3971.54360987 Ry
     estimated scf accuracy    <       0.00005423 Ry

     total magnetization       =    -0.00 Bohr mag/cell
     absolute magnetization    =    13.78 Bohr mag/cell

     iteration # 30     ecut=    71.00 Ry     beta= 0.10
     Davidson diagonalization with overlap
     ethr =  2.42E-08,  avg # of iterations =  5.2

     total cpu time spent up to now is      926.9 secs

     total energy              =   -3971.54343977 Ry
     Harris-Foulkes estimate   =   -3971.54370583 Ry
     estimated scf accuracy    <       0.00002452 Ry

     total magnetization       =     0.00 Bohr mag/cell
     absolute magnetization    =    13.40 Bohr mag/cell

     iteration # 31     ecut=    71.00 Ry     beta= 0.10
     Davidson diagonalization with overlap
     ethr =  1.09E-08,  avg # of iterations =  5.6

     total cpu time spent up to now is      971.7 secs

     total energy              =   -3971.54367233 Ry
     Harris-Foulkes estimate   =   -3971.54378085 Ry
     estimated scf accuracy    <       0.00000271 Ry

     total magnetization       =     0.00 Bohr mag/cell
     absolute magnetization    =    12.87 Bohr mag/cell

     iteration # 32     ecut=    71.00 Ry     beta= 0.10
     Davidson diagonalization with overlap
     ethr =  1.21E-09,  avg # of iterations =  5.7
 
     Magnetic moment per site:
     atom:    1    charge:   12.2325    magn:    0.7315    constr:    0.0000
     atom:    2    charge:   12.2326    magn:   -0.7311    constr:    0.0000
     atom:    3    charge:   12.2325    magn:    0.7311    constr:    0.0000
     atom:    4    charge:   12.2326    magn:   -0.7311    constr:    0.0000
     atom:    5    charge:   12.2325    magn:    0.7311    constr:    0.0000
     atom:    6    charge:   12.2326    magn:   -0.7311    constr:    0.0000
     atom:    7    charge:   12.2325    magn:    0.7309    constr:    0.0000
     atom:    8    charge:   12.2326    magn:   -0.7311    constr:    0.0000
     atom:    9    charge:   12.2325    magn:    0.7311    constr:    0.0000
     atom:   10    charge:   12.2326    magn:   -0.7311    constr:    0.0000
     atom:   11    charge:   12.2325    magn:    0.7309    constr:    0.0000
     atom:   12    charge:   12.2326    magn:   -0.7311    constr:    0.0000
     atom:   13    charge:   12.2325    magn:    0.7309    constr:    0.0000
     atom:   14    charge:   12.2326    magn:   -0.7311    constr:    0.0000
     atom:   15    charge:   12.2325    magn:    0.7310    constr:    0.0000
     atom:   16    charge:   12.2326    magn:   -0.7311    constr:    0.0000

     total cpu time spent up to now is     1024.4 secs

     End of self-consistent calculation

 ------ SPIN UP ------------


          k = 0.0552 0.0552 0.0552 ( 12776 PWs)   bands (ev):

   -52.8329 -52.7853 -52.7851 -52.7851 -52.7692 -52.7691 -52.7691 -52.7539
   -51.9973 -51.9973 -51.9973 -51.9813 -51.9813 -51.9813 -51.9777 -51.9658
   -24.3931 -24.3931 -24.3930 -24.3898 -24.3898 -24.3898 -24.2189 -24.2189
   -24.2189 -24.1930 -24.1873 -24.1873 -24.1609 -24.1609 -24.1551 -24.0509
   -24.0508 -24.0508 -24.0464 -24.0464 -24.0463 -24.0304 -24.0304 -24.0304
   -23.4385 -23.4385 -23.4383 -23.4111 -23.4111 -23.4056 -23.2680 -23.2679
   -23.2679 -23.2645 -23.2645 -23.2644 -23.2533 -23.2533 -23.2532 -23.2245
   -23.2245 -23.2245 -23.2210 -23.2210 -23.2210 -23.1777 -23.1712 -23.1712
    11.4687  14.8656  14.8656  14.8656  14.9659  14.9659  14.9659  15.0571
    15.0571  15.0851  15.0851  15.0851  15.5574  15.5574  15.5575  16.6933
    16.7509  16.7509  16.8735  16.8735  16.8735  16.8889  16.8889  16.8889
    17.1793  17.1793  17.1794  17.2648  17.2648  17.2775  17.8290  17.8290
    17.8290  18.3704  18.3704  18.4229  18.5266  18.5267  18.5267  18.6338
    18.6338  18.6339  19.1118  19.1118  19.1119  19.3348  19.3348  19.3348
    19.7917  19.7917  19.7917  19.9412  19.9412  19.9413  20.1814  20.1814
    20.1814  20.4182  20.4182  20.4182  20.4718  20.4718  20.4987  20.4987
    20.4988  20.5450  20.5450  20.5450  20.5576  20.5576

          k = 0.0552 0.0552 0.1657 ( 12783 PWs)   bands (ev):

   -52.8301 -52.7881 -52.7843 -52.7842 -52.7701 -52.7700 -52.7682 -52.7549
   -51.9963 -51.9963 -51.9960 -51.9823 -51.9823 -51.9804 -51.9789 -51.9667
   -24.3837 -24.3837 -24.3826 -24.3797 -24.3718 -24.3718 -24.2299 -24.2299
   -24.2164 -24.2076 -24.2027 -24.1779 -24.1676 -24.1548 -24.1472 -24.0768
   -24.0767 -24.0572 -24.0541 -24.0460 -24.0460 -24.0397 -24.0314 -24.0314
   -23.4228 -23.4196 -23.4195 -23.4054 -23.3971 -23.3888 -23.2691 -23.2691
   -23.2637 -23.2612 -23.2594 -23.2594 -23.2579 -23.2547 -23.2547 -23.2345
   -23.2345 -23.2325 -23.2305 -23.2220 -23.2220 -23.1947 -23.1764 -23.1747
    11.6032  14.5352  14.9088  14.9088  14.9678  15.0210  15.0210  15.0801
    15.1260  15.1308  15.1308  15.1334  15.5863  15.5863  15.8108  16.5796
    16.7197  16.7214  16.8032  16.8524  16.8662  16.9292  16.9292  16.9756
    16.9756  17.1016  17.1540  17.1540  17.4043  17.4139  17.6872  17.6873
    18.1609  18.3391  18.3586  18.3586  18.3613  18.4549  18.4899  18.6459
    18.7508  18.7508  18.8825  18.8825  19.2240  19.3807  19.3807  19.4315
    19.4315  19.5046  19.6833  19.7004  19.7143  19.7143  19.8289  20.1602
    20.1602  20.3424  20.3424  20.3796  20.4050  20.4864  20.4864  20.5087
    20.5548  20.5576  20.5707  20.6212  20.6750  20.6831

          k = 0.0552 0.0552 0.2762 ( 12757 PWs)   bands (ev):

   -52.8249 -52.7937 -52.7824 -52.7823 -52.7719 -52.7718 -52.7665 -52.7566
   -51.9945 -51.9945 -51.9937 -51.9841 -51.9841 -51.9809 -51.9786 -51.9685
   -24.3645 -24.3645 -24.3625 -24.3603 -24.3391 -24.3391 -24.2503 -24.2503
   -24.2333 -24.2300 -24.2115 -24.1758 -24.1600 -24.1429 -24.1353 -24.1230
   -24.1229 -24.0690 -24.0683 -24.0576 -24.0442 -24.0442 -24.0332 -24.0332
   -23.3934 -23.3891 -23.3876 -23.3875 -23.3716 -23.3629 -23.2832 -23.2685
   -23.2684 -23.2584 -23.2583 -23.2529 -23.2528 -23.2517 -23.2516 -23.2491
   -23.2488 -23.2486 -23.2458 -23.2255 -23.2255 -23.2248 -23.1863 -23.1839
    11.8672  13.9196  14.9875  14.9875  15.1255  15.1255  15.1633  15.1898
    15.1898  15.2626  15.2756  15.3004  15.5997  15.5997  15.8896  16.3722
    16.4082  16.6497  16.6976  16.8149  16.8264  16.8322  17.0527  17.0527
    17.1317  17.1317  17.1786  17.1786  17.6071  17.6071  17.6475  17.6667
    18.0908  18.0908  18.3147  18.3210  18.3467  18.3567  18.3567  18.3781
    18.5885  18.7693  18.7693  18.8642  19.0977  19.0977  19.2179  19.2179
    19.2238  19.2892  19.3337  19.5994  19.5994  19.7411  19.7858  20.1993
    20.2319  20.2320  20.3670  20.3670  20.4275  20.5500  20.5508  20.5598
    20.5599  20.5653  20.5794  20.6279  20.9099  20.9640

          k = 0.0552 0.0552 0.3867 ( 12752 PWs)   bands (ev):

   -52.8177 -52.8011 -52.7800 -52.7799 -52.7744 -52.7743 -52.7642 -52.7589
   -51.9921 -51.9921 -51.9906 -51.9865 -51.9865 -51.9838 -51.9762 -51.9708
   -24.3382 -24.3382 -24.3342 -24.3330 -24.2936 -24.2936 -24.2775 -24.2775
   -24.2658 -24.2642 -24.2042 -24.1853 -24.1798 -24.1797 -24.1362 -24.1263
   -24.1200 -24.0868 -24.0848 -24.0816 -24.0417 -24.0417 -24.0358 -24.0358
   -23.3655 -23.3537 -23.3501 -23.3501 -23.3396 -23.3323 -23.3088 -23.2802
   -23.2802 -23.2746 -23.2720 -23.2664 -23.2663 -23.2642 -23.2595 -23.2594
   -23.2454 -23.2454 -23.2334 -23.2311 -23.2311 -23.2302 -23.2001 -23.1974
    12.2507  13.3051  15.0848  15.0848  15.2124  15.2124  15.2661  15.2661
    15.4339  15.4621  15.4642  15.5441  15.5441  15.6101  15.8205  16.0444
    16.0801  16.3730  16.7011  16.7238  16.7698  16.7794  17.2374  17.2374
    17.3433  17.3433  17.3515  17.3515  17.6454  17.6454  17.8531  17.8531
    17.9771  17.9892  17.9892  17.9965  18.1916  18.1916  18.3000  18.3256
    18.3302  18.3328  18.5193  18.5193  18.7200  18.8297  18.8355  19.0625
    19.2386  19.5525  19.5525  19.7965  19.7965  19.9391  20.0285  20.0731
    20.0731  20.1367  20.1959  20.1959  20.4628  20.5314  20.5446  20.5452
    20.6789  20.7105  20.7938  20.9321  20.9321  20.9423

          k = 0.0552 0.0552-0.4972 ( 12732 PWs)   bands (ev):

   -52.8096 -52.8093 -52.7773 -52.7773 -52.7771 -52.7769 -52.7617 -52.7614
   -51.9894 -51.9894 -51.9891 -51.9891 -51.9873 -51.9870 -51.9737 -51.9734
   -24.3082 -24.3082 -24.3079 -24.3079 -24.3005 -24.3005 -24.3002 -24.3002
   -24.2390 -24.2389 -24.2388 -24.2386 -24.1954 -24.1951 -24.1092 -24.1089
   -24.1072 -24.1069 -24.1026 -24.1024 -24.0388 -24.0388 -24.0385 -24.0385
   -23.3377 -23.3375 -23.3131 -23.3131 -23.3129 -23.3128 -23.3089 -23.3087
   -23.3061 -23.3058 -23.3009 -23.3007 -23.2632 -23.2631 -23.2630 -23.2629
   -23.2379 -23.2379 -23.2378 -23.2378 -23.2165 -23.2162 -23.2134 -23.2132
    12.7376  12.7379  15.1715  15.1716  15.1717  15.1717  15.4187  15.4187
    15.4188  15.4188  15.6590  15.6592  15.7267  15.7270  15.7518  15.7520
    15.9819  15.9822  16.7280  16.7282  16.7386  16.7387  17.4688  17.4688
    17.4689  17.4689  17.5873  17.5873  17.5874  17.5874  17.7494  17.7494
    17.7495  17.7496  18.0576  18.0576  18.0578  18.0578  18.3011  18.3013
    18.3265  18.3267  18.3773  18.3773  18.3892  18.3893  18.8815  18.8817
    19.6120  19.6122  19.8467  19.8467  19.8468  19.8468  19.9985  19.9986
    19.9987  19.9987  20.3985  20.3986  20.5000  20.5003  20.5298  20.5300
    20.5413  20.5417  20.8011  20.8013  20.8118  20.8120

          k = 0.0552 0.1657 0.1657 ( 12757 PWs)   bands (ev):

   -52.8275 -52.7871 -52.7870 -52.7832 -52.7712 -52.7692 -52.7691 -52.7558
   -51.9953 -51.9952 -51.9952 -51.9831 -51.9813 -51.9813 -51.9798 -51.9677
   -24.3787 -24.3740 -24.3739 -24.3627 -24.3627 -24.3507 -24.2391 -24.2280
   -24.2279 -24.2198 -24.2055 -24.1789 -24.1750 -24.1524 -24.1363 -24.0908
   -24.0787 -24.0787 -24.0548 -24.0534 -24.0533 -24.0411 -24.0411 -24.0328
   -23.4086 -23.4085 -23.4033 -23.4026 -23.3862 -23.3693 -23.2766 -23.2681
   -23.2680 -23.2624 -23.2623 -23.2575 -23.2525 -23.2524 -23.2498 -23.2461
   -23.2403 -23.2403 -23.2287 -23.2286 -23.2185 -23.2142 -23.1809 -23.1748
    11.7357  14.5972  14.5972  14.8936  15.0125  15.0125  15.1148  15.1335
    15.1335  15.1855  15.1946  15.2083  15.6285  15.8446  15.8446  16.4910
    16.6718  16.7454  16.8046  16.8046  16.9046  16.9046  16.9463  16.9463
    16.9543  17.0913  17.1101  17.2076  17.2829  17.4669  17.5441  17.9522
    17.9522  18.2687  18.2699  18.2700  18.3145  18.3402  18.5624  18.6001
    18.9117  18.9117  18.9408  18.9408  18.9701  19.0115  19.2255  19.2255
    19.4623  19.4623  19.4913  19.5136  19.5534  19.5535  19.9860  19.9860
    20.2539  20.3568  20.3569  20.3642  20.3792  20.4817  20.4825  20.5074
    20.5074  20.5533  20.5581  20.7673  20.8192  20.8331

          k = 0.0552 0.1657 0.2762 ( 12767 PWs)   bands (ev):

   -52.8224 -52.7924 -52.7850 -52.7814 -52.7732 -52.7710 -52.7674 -52.7575
   -51.9936 -51.9935 -51.9931 -51.9846 -51.9831 -51.9817 -51.9796 -51.9694
   -24.3631 -24.3565 -24.3553 -24.3451 -24.3314 -24.3166 -24.2564 -24.2494
   -24.2412 -24.2264 -24.2238 -24.1860 -24.1647 -24.1416 -24.1289 -24.1238
   -24.1182 -24.0835 -24.0666 -24.0598 -24.0569 -24.0508 -24.0438 -24.0355
   -23.3916 -23.3871 -23.3841 -23.3759 -23.3636 -23.3430 -23.2904 -23.2815
   -23.2750 -23.2717 -23.2620 -23.2555 -23.2548 -23.2534 -23.2505 -23.2452
   -23.2443 -23.2415 -23.2409 -23.2399 -23.2267 -23.2185 -23.1903 -23.1807
    11.9955  14.0011  14.6991  14.8936  15.0933  15.2098  15.2351  15.2567
    15.2614  15.3238  15.3508  15.3538  15.6661  15.8515  15.9338  16.3426
    16.4351  16.5901  16.7272  16.8608  16.8782  16.8957  16.9821  17.0173
    17.0476  17.0878  17.0990  17.2744  17.4294  17.4884  17.6357  17.8101
    18.0056  18.1186  18.1309  18.1982  18.2012  18.2770  18.3134  18.4645
    18.5454  18.6607  18.7377  18.9348  18.9359  19.0080  19.0665  19.0992
    19.1213  19.2725  19.2858  19.6366  19.6468  19.7688  19.8394  20.0946
    20.2263  20.2600  20.3437  20.3814  20.3876  20.4064  20.5349  20.5413
    20.5616  20.5646  20.6544  20.7015  20.8530  20.8690

          k = 0.0552 0.1657 0.3867 ( 12750 PWs)   bands (ev):

   -52.8155 -52.7995 -52.7823 -52.7790 -52.7760 -52.7734 -52.7651 -52.7598
   -51.9915 -51.9911 -51.9903 -51.9867 -51.9856 -51.9843 -51.9772 -51.9718
   -24.3385 -24.3330 -24.3296 -24.3202 -24.2879 -24.2798 -24.2776 -24.2724
   -24.2690 -24.2571 -24.2173 -24.1975 -24.1806 -24.1680 -24.1409 -24.1260
   -24.1106 -24.0927 -24.0848 -24.0827 -24.0548 -24.0474 -24.0472 -24.0391
   -23.3717 -23.3564 -23.3543 -23.3434 -23.3349 -23.3176 -23.3140 -23.2955
   -23.2861 -23.2831 -23.2805 -23.2771 -23.2734 -23.2607 -23.2606 -23.2562
   -23.2368 -23.2352 -23.2336 -23.2265 -23.2239 -23.2223 -23.2034 -23.1920
    12.3724  13.4037  14.8023  14.8946  15.1912  15.3028  15.3722  15.4293
    15.4799  15.5071  15.5513  15.6331  15.6559  15.7685  15.8727  16.0923
    16.0983  16.3738  16.7263  16.8076  16.8124  16.8386  17.1006  17.1758
    17.2043  17.2132  17.2733  17.4057  17.5151  17.6589  17.7956  17.8954
    17.9090  17.9217  17.9533  18.0222  18.1276  18.1323  18.1521  18.1780
    18.2156  18.2820  18.4291  18.4901  18.5596  18.6441  18.8933  19.1630
    19.4051  19.5553  19.5987  19.8094  19.8214  19.8577  19.9270  19.9996
    20.0882  20.1125  20.2038  20.2558  20.4305  20.4888  20.5156  20.5682
    20.6222  20.6368  20.6562  20.7035  20.8363  20.8863

          k = 0.0552 0.1657-0.4972 ( 12742 PWs)   bands (ev):

   -52.8077 -52.8074 -52.7793 -52.7790 -52.7763 -52.7761 -52.7626 -52.7623
   -51.9893 -51.9890 -51.9885 -51.9882 -51.9874 -51.9871 -51.9746 -51.9743
   -24.3087 -24.3085 -24.3066 -24.3063 -24.2997 -24.2995 -24.2900 -24.2897
   -24.2361 -24.2358 -24.2214 -24.2212 -24.2083 -24.2082 -24.1132 -24.1129
   -24.1083 -24.1081 -24.0973 -24.0970 -24.0514 -24.0511 -24.0434 -24.0431
   -23.3460 -23.3459 -23.3239 -23.3237 -23.3194 -23.3192 -23.3115 -23.3113
   -23.3050 -23.3047 -23.2857 -23.2856 -23.2813 -23.2812 -23.2588 -23.2584
   -23.2289 -23.2287 -23.2287 -23.2287 -23.2190 -23.2187 -23.2072 -23.2070
    12.8496  12.8499  14.8704  14.8705  15.2740  15.2742  15.5195  15.5196
    15.6115  15.6116  15.7111  15.7114  15.7911  15.7913  15.7944  15.7947
    16.0176  16.0179  16.7576  16.7577  16.7969  16.7970  17.3324  17.3325
    17.3951  17.3953  17.4140  17.4140  17.4642  17.4644  17.7994  17.7996
    17.8371  17.8372  18.0655  18.0656  18.0983  18.0984  18.1278  18.1278
    18.1619  18.1619  18.2504  18.2505  18.2525  18.2526  19.0528  19.0529
    19.7157  19.7159  19.7563  19.7564  19.8886  19.8887  20.0120  20.0121
    20.0396  20.0397  20.1252  20.1253  20.4498  20.4500  20.4762  20.4765
    20.5848  20.5851  20.7637  20.7639  20.7661  20.7664

          k = 0.0552 0.2762 0.2762 ( 12766 PWs)   bands (ev):

   -52.8177 -52.7900 -52.7899 -52.7796 -52.7757 -52.7693 -52.7692 -52.7592
   -51.9920 -51.9920 -51.9917 -51.9857 -51.9831 -51.9814 -51.9814 -51.9712
   -24.3522 -24.3416 -24.3415 -24.3166 -24.3166 -24.2818 -24.2682 -24.2560
   -24.2463 -24.2462 -24.2295 -24.2007 -24.1629 -24.1482 -24.1328 -24.1123
   -24.1115 -24.1115 -24.0708 -24.0637 -24.0637 -24.0629 -24.0628 -24.0397
   -23.3864 -23.3749 -23.3748 -23.3558 -23.3471 -23.3177 -23.2986 -23.2985
   -23.2929 -23.2920 -23.2724 -23.2667 -23.2667 -23.2533 -23.2512 -23.2511
   -23.2333 -23.2333 -23.2317 -23.2316 -23.2315 -23.2137 -23.1985 -23.1814
    12.2467  14.1489  14.1489  14.7942  15.2929  15.2929  15.3719  15.4137
    15.4353  15.4464  15.4464  15.5081  15.7553  15.9499  15.9499  16.2739
    16.5200  16.5543  16.5543  16.7469  16.9540  16.9540  17.0147  17.0147
    17.0170  17.1090  17.1199  17.2655  17.3021  17.4830  17.6606  17.8920
    17.8920  18.0139  18.0139  18.0310  18.0544  18.0824  18.1426  18.2658
    18.4469  18.4469  18.6614  18.6615  18.6993  18.7882  18.7882  18.9143
    19.4135  19.4136  19.4670  19.7422  19.7616  19.7616  19.9425  20.1112
    20.1113  20.2185  20.3079  20.3080  20.3799  20.4346  20.4346  20.5034
    20.5056  20.5192  20.5787  20.7202  20.7593  20.8243

          k = 0.0552 0.2762 0.3867 ( 12737 PWs)   bands (ev):

   -52.8113 -52.7965 -52.7866 -52.7790 -52.7772 -52.7717 -52.7669 -52.7616
   -51.9905 -51.9898 -51.9893 -51.9872 -51.9851 -51.9838 -51.9790 -51.9736
   -24.3318 -24.3236 -24.3215 -24.2958 -24.2845 -24.2773 -24.2759 -24.2747
   -24.2468 -24.2399 -24.2397 -24.2160 -24.1853 -24.1497 -24.1456 -24.1201
   -24.1071 -24.1025 -24.0901 -24.0780 -24.0753 -24.0686 -24.0576 -24.0452
   -23.3723 -23.3580 -23.3576 -23.3317 -23.3259 -23.3252 -23.3144 -23.3045
   -23.3036 -23.3004 -23.2912 -23.2836 -23.2832 -23.2528 -23.2517 -23.2468
   -23.2376 -23.2271 -23.2257 -23.2231 -23.2156 -23.2128 -23.2098 -23.1882
    12.6094  13.5902  14.3336  14.6737  15.3899  15.4571  15.5608  15.5743
    15.5826  15.5890  15.7196  15.7408  15.7827  15.8799  15.9035  16.1148
    16.2481  16.3709  16.7570  16.8136  16.8755  16.9386  16.9549  17.0403
    17.0663  17.1546  17.1961  17.2332  17.5124  17.6052  17.6407  17.7564
    17.8059  17.8427  17.8905  17.9685  17.9833  17.9854  18.0191  18.0892
    18.1515  18.2094  18.2664  18.3398  18.3484  18.4259  19.0349  19.0820
    19.6111  19.6299  19.7224  19.8002  19.8600  19.8959  19.9035  19.9881
    20.0841  20.1519  20.1878  20.2472  20.2740  20.3658  20.4450  20.4804
    20.5334  20.5697  20.5949  20.6015  20.7084  20.7504

          k = 0.0552 0.2762-0.4972 ( 12736 PWs)   bands (ev):

   -52.8041 -52.8038 -52.7830 -52.7827 -52.7746 -52.7743 -52.7644 -52.7641
   -51.9890 -51.9887 -51.9876 -51.9873 -51.9867 -51.9864 -51.9764 -51.9761
   -24.3048 -24.3047 -24.3039 -24.3037 -24.2988 -24.2985 -24.2713 -24.2711
   -24.2316 -24.2314 -24.2295 -24.2294 -24.1941 -24.1940 -24.1191 -24.1189
   -24.1093 -24.1092 -24.0926 -24.0924 -24.0734 -24.0731 -24.0515 -24.0513
   -23.3510 -23.3509 -23.3369 -23.3368 -23.3335 -23.3334 -23.3106 -23.3104
   -23.3038 -23.3035 -23.3007 -23.3005 -23.2667 -23.2666 -23.2524 -23.2521
   -23.2243 -23.2243 -23.2235 -23.2232 -23.2163 -23.2162 -23.2003 -23.2002
    13.0655  13.0658  14.5180  14.5182  15.4605  15.4606  15.7053  15.7054
    15.7461  15.7462  15.7611  15.7614  15.8555  15.8557  15.9694  15.9696
    16.0783  16.0786  16.8015  16.8017  16.8965  16.8966  17.1258  17.1259
    17.1797  17.1799  17.2103  17.2105  17.4146  17.4146  17.7425  17.7426
    17.8232  17.8232  17.9196  17.9196  18.0248  18.0248  18.0504  18.0505
    18.0617  18.0617  18.0881  18.0882  18.1511  18.1512  19.1640  19.1641
    19.6957  19.6958  19.8604  19.8605  19.9168  19.9169  19.9868  19.9870
    20.0615  20.0617  20.0819  20.0820  20.2583  20.2584  20.4265  20.4267
    20.6357  20.6359  20.6661  20.6663  20.6955  20.6957

          k = 0.0552 0.3867 0.3867 ( 12729 PWs)   bands (ev):

   -52.8055 -52.7925 -52.7924 -52.7831 -52.7748 -52.7694 -52.7693 -52.7639
   -51.9892 -51.9892 -51.9878 -51.9869 -51.9863 -51.9814 -51.9814 -51.9759
   -24.3164 -24.3115 -24.3114 -24.2917 -24.2859 -24.2669 -24.2668 -24.2634
   -24.2633 -24.2424 -24.2358 -24.2019 -24.2004 -24.1413 -24.1314 -24.1313
   -24.1146 -24.0957 -24.0957 -24.0957 -24.0923 -24.0709 -24.0708 -24.0533
   -23.3645 -23.3552 -23.3551 -23.3322 -23.3279 -23.3278 -23.3266 -23.3179
   -23.3147 -23.3145 -23.2924 -23.2924 -23.2685 -23.2489 -23.2410 -23.2410
   -23.2347 -23.2347 -23.2234 -23.2188 -23.2087 -23.2086 -23.2067 -23.1897
    12.9485  13.8427  13.8427  14.4158  15.6127  15.6479  15.6479  15.6966
    15.7159  15.8473  15.8473  15.8823  15.8823  15.9167  15.9513  16.0719
    16.3188  16.5171  16.5171  16.7745  16.9330  16.9351  16.9351  17.0399
    17.0442  17.0442  17.0700  17.2344  17.3245  17.3520  17.6621  17.6621
    17.7020  17.7660  17.7660  17.7885  17.8404  17.9572  18.0168  18.0169
    18.0340  18.0717  18.0717  18.1322  18.1552  18.7135  18.7135  19.1671
    19.7195  19.7466  19.7466  19.9114  19.9171  19.9661  19.9661  20.0147
    20.1231  20.1891  20.1891  20.2592  20.2699  20.2699  20.3136  20.3563
    20.3563  20.4242  20.5396  20.6378  20.6548  20.6639

          k = 0.0552 0.3867-0.4972 ( 12706 PWs)   bands (ev):

   -52.7992 -52.7989 -52.7879 -52.7876 -52.7722 -52.7719 -52.7668 -52.7665
   -51.9887 -51.9883 -51.9879 -51.9876 -51.9843 -51.9840 -51.9788 -51.9785
   -24.3011 -24.3009 -24.2984 -24.2981 -24.2936 -24.2936 -24.2534 -24.2533
   -24.2496 -24.2495 -24.2287 -24.2286 -24.1642 -24.1642 -24.1226 -24.1225
   -24.1182 -24.1181 -24.0982 -24.0980 -24.0849 -24.0847 -24.0624 -24.0621
   -23.3489 -23.3489 -23.3465 -23.3464 -23.3446 -23.3446 -23.3242 -23.3242
   -23.3043 -23.3040 -23.3029 -23.3026 -23.2489 -23.2489 -23.2451 -23.2447
   -23.2298 -23.2295 -23.2264 -23.2264 -23.2053 -23.2053 -23.1969 -23.1968
    13.3689  13.3692  14.1297  14.1299  15.6842  15.6844  15.8065  15.8067
    15.8183  15.8185  15.9041  15.9043  15.9330  15.9331  16.1327  16.1330
    16.2242  16.2245  16.8255  16.8256  16.8582  16.8585  16.9399  16.9401
    16.9936  16.9936  17.0624  17.0625  17.4692  17.4692  17.5219  17.5220
    17.6075  17.6076  17.7300  17.7300  17.8931  17.8933  17.9377  17.9379
    18.0352  18.0352  18.0665  18.0666  18.3623  18.3624  19.0029  19.0030
    19.7080  19.7080  19.9100  19.9100  20.0189  20.0190  20.1092  20.1093
    20.1400  20.1402  20.1431  20.1432  20.1494  20.1495  20.3504  20.3507
    20.4982  20.4982  20.5072  20.5074  20.6179  20.6181

          k = 0.0552-0.4972-0.4972 ( 12664 PWs)   bands (ev):

   -52.7936 -52.7935 -52.7933 -52.7933 -52.7696 -52.7694 -52.7692 -52.7692
   -51.9883 -51.9882 -51.9880 -51.9879 -51.9816 -51.9815 -51.9813 -51.9812
   -24.2992 -24.2990 -24.2988 -24.2988 -24.2759 -24.2759 -24.2758 -24.2758
   -24.2335 -24.2335 -24.2334 -24.2334 -24.1374 -24.1374 -24.1374 -24.1374
   -24.1168 -24.1167 -24.1167 -24.1167 -24.0742 -24.0740 -24.0738 -24.0738
   -23.3493 -23.3493 -23.3492 -23.3492 -23.3396 -23.3396 -23.3395 -23.3395
   -23.3030 -23.3029 -23.3027 -23.3026 -23.2373 -23.2372 -23.2370 -23.2369
   -23.2349 -23.2349 -23.2348 -23.2348 -23.1985 -23.1985 -23.1985 -23.1985
    13.7346  13.7347  13.7349  13.7349  15.8328  15.8329  15.8330  15.8331
    15.8585  15.8585  15.8586  15.8586  16.1051  16.1052  16.1053  16.1053
    16.5300  16.5301  16.5303  16.5303  16.8428  16.8428  16.8429  16.8429
    17.0058  17.0059  17.0060  17.0060  17.4735  17.4736  17.4737  17.4737
    17.5766  17.5766  17.5766  17.5766  17.8656  17.8657  17.8658  17.8659
    18.0247  18.0248  18.0248  18.0248  18.6872  18.6872  18.6873  18.6873
    19.8059  19.8059  19.8060  19.8060  20.1668  20.1669  20.1669  20.1670
    20.2178  20.2178  20.2179  20.2179  20.2530  20.2531  20.2532  20.2532
    20.3243  20.3244  20.3245  20.3246  20.5911  20.5913

          k = 0.1657 0.1657 0.1657 ( 12749 PWs)   bands (ev):

   -52.8249 -52.7861 -52.7859 -52.7859 -52.7703 -52.7702 -52.7702 -52.7567
   -51.9943 -51.9943 -51.9943 -51.9822 -51.9821 -51.9821 -51.9807 -51.9686
   -24.3687 -24.3687 -24.3686 -24.3434 -24.3433 -24.3433 -24.2372 -24.2372
   -24.2372 -24.2293 -24.1937 -24.1937 -24.1683 -24.1683 -24.1220 -24.0891
   -24.0890 -24.0890 -24.0629 -24.0629 -24.0628 -24.0431 -24.0431 -24.0431
   -23.3956 -23.3956 -23.3954 -23.3889 -23.3889 -23.3507 -23.2745 -23.2745
   -23.2744 -23.2695 -23.2694 -23.2694 -23.2437 -23.2437 -23.2437 -23.2436
   -23.2436 -23.2435 -23.2315 -23.2277 -23.2277 -23.2277 -23.1803 -23.1803
    11.8664  14.6655  14.6655  14.6655  15.0039  15.0039  15.0039  15.2215
    15.2215  15.2215  15.2724  15.2724  15.8956  15.8956  15.8957  16.4223
    16.7281  16.7281  16.7854  16.7854  16.7854  16.9300  16.9300  16.9300
    17.0507  17.0507  17.0507  17.2432  17.3285  17.3285  17.7769  17.7769
    17.7769  18.2045  18.2046  18.2046  18.2504  18.2504  18.6972  18.6972
    18.6973  18.7197  18.8647  18.8647  18.8647  19.0942  19.0942  19.0942
    19.2409  19.2409  19.2410  19.6319  19.6319  19.6319  20.2033  20.2033
    20.2033  20.2792  20.2792  20.2792  20.4070  20.4070  20.4866  20.4866
    20.4866  20.5565  20.5565  20.7504  20.7504  20.7504

          k = 0.1657 0.1657 0.2762 ( 12760 PWs)   bands (ev):

   -52.8200 -52.7911 -52.7840 -52.7839 -52.7723 -52.7722 -52.7685 -52.7585
   -51.9928 -51.9928 -51.9925 -51.9837 -51.9837 -51.9824 -51.9804 -51.9703
   -24.3538 -24.3538 -24.3490 -24.3296 -24.3114 -24.3114 -24.2546 -24.2546
   -24.2454 -24.2327 -24.2200 -24.1848 -24.1740 -24.1560 -24.1226 -24.1225
   -24.1092 -24.0870 -24.0779 -24.0645 -24.0645 -24.0626 -24.0467 -24.0467
   -23.3829 -23.3794 -23.3731 -23.3730 -23.3643 -23.3273 -23.2969 -23.2852
   -23.2852 -23.2741 -23.2741 -23.2588 -23.2568 -23.2528 -23.2527 -23.2490
   -23.2454 -23.2352 -23.2352 -23.2322 -23.2253 -23.2253 -23.1908 -23.1839
    12.1227  14.0867  14.7796  14.7796  15.0080  15.0080  15.2142  15.3603
    15.3604  15.3992  15.4171  15.4270  15.9318  15.9319  15.9997  16.3216
    16.4401  16.6521  16.7222  16.8217  16.8218  16.8864  16.9812  17.0180
    17.0180  17.0452  17.2119  17.2119  17.3818  17.5341  17.6200  17.6200
    17.9455  18.0212  18.0212  18.1091  18.1584  18.2165  18.3948  18.3948
    18.4051  18.4051  18.6635  18.7942  18.7942  18.8306  18.8722  18.8744
    19.2753  19.3624  19.3624  19.7285  19.7285  19.8804  19.9940  20.1495
    20.1495  20.2617  20.3332  20.4065  20.4065  20.4876  20.5087  20.5088
    20.5225  20.5341  20.5439  20.5650  20.7133  20.8069

          k = 0.1657 0.1657 0.3867 ( 12755 PWs)   bands (ev):

   -52.8133 -52.7980 -52.7813 -52.7812 -52.7750 -52.7750 -52.7662 -52.7608
   -51.9907 -51.9907 -51.9900 -51.9858 -51.9858 -51.9846 -51.9781 -51.9727
   -24.3313 -24.3313 -24.3215 -24.3107 -24.2782 -24.2782 -24.2694 -24.2694
   -24.2661 -24.2533 -24.2251 -24.2004 -24.1695 -24.1695 -24.1480 -24.1388
   -24.0984 -24.0972 -24.0889 -24.0872 -24.0613 -24.0613 -24.0514 -24.0514
   -23.3683 -23.3553 -23.3467 -23.3466 -23.3335 -23.3223 -23.3028 -23.3003
   -23.3002 -23.2911 -23.2750 -23.2749 -23.2707 -23.2636 -23.2635 -23.2615
   -23.2402 -23.2288 -23.2288 -23.2239 -23.2239 -23.2185 -23.2053 -23.1922
    12.4937  13.5045  14.8981  14.8982  15.0093  15.0093  15.5017  15.5319
    15.5319  15.5855  15.6053  15.7150  15.8671  15.8671  15.9518  16.1149
    16.1250  16.4034  16.7404  16.8327  16.8727  16.9039  17.0099  17.0099
    17.1603  17.1603  17.3963  17.3963  17.5033  17.5034  17.6365  17.7962
    17.8805  17.8805  17.9344  17.9344  18.0481  18.0567  18.0883  18.1079
    18.1079  18.1713  18.3401  18.3401  18.3930  18.3943  19.0272  19.0606
    19.5283  19.6400  19.6401  19.8380  19.8549  19.8550  20.0045  20.0046
    20.0548  20.1545  20.2048  20.2524  20.2524  20.3996  20.5125  20.5828
    20.5985  20.6226  20.6620  20.7830  20.7830  20.8675

          k = 0.1657 0.1657-0.4972 ( 12740 PWs)   bands (ev):

   -52.8058 -52.8055 -52.7783 -52.7782 -52.7780 -52.7779 -52.7636 -52.7633
   -51.9884 -51.9884 -51.9881 -51.9881 -51.9874 -51.9871 -51.9755 -51.9752
   -24.3050 -24.3050 -24.3048 -24.3048 -24.2888 -24.2886 -24.2886 -24.2884
   -24.2206 -24.2206 -24.2205 -24.2204 -24.2142 -24.2140 -24.1186 -24.1186
   -24.1183 -24.1183 -24.0909 -24.0907 -24.0567 -24.0567 -24.0565 -24.0564
   -23.3472 -23.3471 -23.3248 -23.3247 -23.3212 -23.3212 -23.3210 -23.3210
   -23.3011 -23.3008 -23.2799 -23.2798 -23.2717 -23.2717 -23.2715 -23.2714
   -23.2250 -23.2249 -23.2249 -23.2249 -23.2225 -23.2222 -23.2044 -23.2042
    12.9623  12.9626  14.9791  14.9791  14.9792  14.9793  15.7138  15.7138
    15.7139  15.7140  15.8004  15.8006  15.8264  15.8264  15.8266  15.8266
    16.0579  16.0583  16.7802  16.7803  16.8498  16.8499  17.3018  17.3018
    17.3019  17.3020  17.3601  17.3601  17.3602  17.3602  17.8084  17.8084
    17.8085  17.8085  17.9861  17.9862  18.0247  18.0247  18.0247  18.0247
    18.0515  18.0515  18.0917  18.0918  18.1168  18.1169  19.1289  19.1290
    19.8016  19.8018  19.8486  19.8486  19.8487  19.8487  19.8784  19.8785
    20.0453  20.0453  20.0454  20.0454  20.4624  20.4627  20.5782  20.5784
    20.6146  20.6149  20.7306  20.7309  20.7391  20.7393

          k = 0.1657 0.2762 0.2762 ( 12740 PWs)   bands (ev):

   -52.8154 -52.7887 -52.7886 -52.7820 -52.7747 -52.7705 -52.7704 -52.7602
   -51.9913 -51.9913 -51.9912 -51.9848 -51.9836 -51.9820 -51.9820 -51.9721
   -24.3424 -24.3359 -24.3359 -24.3016 -24.3016 -24.2793 -24.2650 -24.2545
   -24.2498 -24.2497 -24.2208 -24.1937 -24.1767 -24.1556 -24.1393 -24.1136
   -24.1135 -24.0980 -24.0796 -24.0777 -24.0776 -24.0678 -24.0678 -24.0520
   -23.3736 -23.3659 -23.3659 -23.3544 -23.3503 -23.3073 -23.3044 -23.3043
   -23.2989 -23.2850 -23.2817 -23.2610 -23.2610 -23.2591 -23.2591 -23.2535
   -23.2372 -23.2372 -23.2275 -23.2253 -23.2253 -23.2222 -23.1980 -23.1873
    12.3713  14.2424  14.2424  14.9139  14.9184  15.2272  15.2272  15.5157
    15.5176  15.5577  15.5578  15.5626  16.0375  16.0482  16.0482  16.2845
    16.5258  16.5258  16.6189  16.7532  16.7727  16.9646  16.9646  17.0789
    17.1075  17.1075  17.1205  17.1929  17.3921  17.4452  17.5265  17.7585
    17.7585  17.9131  17.9476  17.9476  18.0106  18.0525  18.1452  18.2007
    18.2526  18.2526  18.4595  18.4596  18.4866  18.5634  18.5634  19.0334
    19.5164  19.5164  19.5492  19.8454  19.9111  19.9111  20.0270  20.1566
    20.2432  20.2432  20.2684  20.2944  20.2944  20.3860  20.4441  20.4441
    20.4546  20.5325  20.5781  20.7046  20.7195  20.7618

          k = 0.1657 0.2762 0.3867 ( 12729 PWs)   bands (ev):

   -52.8092 -52.7950 -52.7854 -52.7793 -52.7780 -52.7732 -52.7681 -52.7626
   -51.9898 -51.9895 -51.9890 -51.9863 -51.9853 -51.9841 -51.9797 -51.9744
   -24.3230 -24.3182 -24.3119 -24.2877 -24.2801 -24.2727 -24.2679 -24.2636
   -24.2428 -24.2406 -24.2395 -24.2108 -24.1748 -24.1565 -24.1520 -24.1420
   -24.1107 -24.0958 -24.0918 -24.0894 -24.0837 -24.0742 -24.0728 -24.0588
   -23.3623 -23.3524 -23.3490 -23.3333 -23.3256 -23.3255 -23.3144 -23.3103
   -23.3077 -23.2915 -23.2869 -23.2749 -23.2743 -23.2621 -23.2569 -23.2517
   -23.2446 -23.2294 -23.2239 -23.2205 -23.2195 -23.2135 -23.2110 -23.1930
    12.7298  13.6954  14.4378  14.7939  15.0706  15.2281  15.5291  15.6759
    15.6856  15.7250  15.7653  15.8276  15.9875  16.0089  16.0381  16.1561
    16.2470  16.4216  16.7722  16.7767  16.8685  16.8976  16.9658  16.9957
    17.0800  17.1959  17.2240  17.3268  17.3694  17.5183  17.5627  17.6732
    17.6869  17.7700  17.8301  17.8486  17.8617  17.9479  17.9491  17.9984
    18.0108  18.0792  18.1061  18.1323  18.1614  18.2399  18.7744  19.1260
    19.7212  19.7475  19.7873  19.8834  19.9216  19.9398  19.9618  20.0488
    20.1363  20.1396  20.1908  20.2814  20.2860  20.3454  20.4948  20.5314
    20.5375  20.6072  20.6185  20.7121  20.7375  20.8041

          k = 0.1657 0.2762-0.4972 ( 12748 PWs)   bands (ev):

   -52.8023 -52.8020 -52.7819 -52.7816 -52.7764 -52.7761 -52.7655 -52.7652
   -51.9883 -51.9879 -51.9875 -51.9872 -51.9867 -51.9864 -51.9772 -51.9769
   -24.2988 -24.2987 -24.2985 -24.2985 -24.2869 -24.2867 -24.2688 -24.2685
   -24.2274 -24.2273 -24.2195 -24.2193 -24.1957 -24.1956 -24.1271 -24.1269
   -24.1244 -24.1242 -24.0906 -24.0904 -24.0805 -24.0802 -24.0664 -24.0661
   -23.3459 -23.3459 -23.3325 -23.3324 -23.3314 -23.3313 -23.3175 -23.3173
   -23.2988 -23.2985 -23.2885 -23.2883 -23.2680 -23.2680 -23.2607 -23.2604
   -23.2274 -23.2271 -23.2247 -23.2246 -23.2187 -23.2187 -23.2022 -23.2021
    13.1796  13.1799  14.6325  14.6327  15.1823  15.1824  15.8518  15.8520
    15.8580  15.8582  15.8700  15.8702  15.9033  15.9034  15.9960  15.9962
    16.1333  16.1335  16.8285  16.8287  16.9249  16.9250  17.0994  17.0996
    17.1304  17.1306  17.2369  17.2370  17.3682  17.3683  17.6748  17.6749
    17.6965  17.6966  17.8748  17.8748  17.8874  17.8875  17.8929  17.8929
    17.9174  17.9175  17.9701  17.9701  18.0095  18.0096  19.0104  19.0104
    19.8492  19.8492  19.8637  19.8637  19.9488  19.9489  20.0033  20.0034
    20.0976  20.0978  20.0990  20.0991  20.4312  20.4315  20.5147  20.5149
    20.6402  20.6404  20.6705  20.6707  20.6761  20.6763

          k = 0.1657 0.3867 0.3867 ( 12737 PWs)   bands (ev):

   -52.8037 -52.7911 -52.7910 -52.7820 -52.7767 -52.7708 -52.7707 -52.7651
   -51.9887 -51.9887 -51.9871 -51.9868 -51.9863 -51.9819 -51.9819 -51.9767
   -24.3073 -24.3017 -24.3016 -24.2846 -24.2745 -24.2622 -24.2621 -24.2552
   -24.2552 -24.2379 -24.2281 -24.2041 -24.1902 -24.1539 -24.1356 -24.1354
   -24.1353 -24.1035 -24.1034 -24.1022 -24.0912 -24.0858 -24.0857 -24.0684
   -23.3531 -23.3470 -23.3469 -23.3276 -23.3249 -23.3247 -23.3247 -23.3177
   -23.3127 -23.3058 -23.2860 -23.2860 -23.2697 -23.2530 -23.2477 -23.2477
   -23.2395 -23.2395 -23.2243 -23.2207 -23.2148 -23.2111 -23.2111 -23.1963
    13.0673  13.9539  13.9539  14.5370  15.2758  15.5262  15.5262  15.7882
    15.8209  15.9797  15.9797  15.9893  15.9893  15.9912  16.0986  16.1824
    16.3765  16.5168  16.5168  16.7885  16.8009  16.9684  16.9684  17.0628
    17.0710  17.0710  17.1816  17.1901  17.2180  17.2994  17.6143  17.6143
    17.6153  17.6501  17.6501  17.6526  17.8033  17.8414  17.8774  17.8774
    17.8800  17.8968  17.8968  17.9850  17.9981  18.4391  18.4392  18.9906
    19.8808  19.8917  19.9122  19.9123  19.9783  20.0864  20.0887  20.0887
    20.1796  20.2761  20.2762  20.2763  20.3773  20.3774  20.3785  20.3785
    20.4514  20.5148  20.6152  20.6420  20.6549  20.6834

          k = 0.1657 0.3867-0.4972 ( 12736 PWs)   bands (ev):

   -52.7975 -52.7973 -52.7867 -52.7864 -52.7738 -52.7735 -52.7681 -52.7678
   -51.9881 -51.9877 -51.9877 -51.9873 -51.9845 -51.9842 -51.9794 -51.9791
   -24.2922 -24.2919 -24.2861 -24.2859 -24.2858 -24.2858 -24.2466 -24.2465
   -24.2450 -24.2449 -24.2197 -24.2196 -24.1679 -24.1678 -24.1331 -24.1330
   -24.1291 -24.1290 -24.1076 -24.1075 -24.0929 -24.0927 -24.0781 -24.0779
   -23.3400 -23.3400 -23.3389 -23.3389 -23.3386 -23.3386 -23.3185 -23.3185
   -23.3003 -23.3000 -23.2989 -23.2987 -23.2534 -23.2534 -23.2504 -23.2501
   -23.2337 -23.2334 -23.2298 -23.2298 -23.2117 -23.2117 -23.2025 -23.2024
    13.4849  13.4851  14.2471  14.2473  15.4454  15.4456  15.8524  15.8525
    15.9055  15.9057  15.9247  15.9249  16.1351  16.1351  16.2314  16.2316
    16.2507  16.2510  16.8538  16.8540  16.8577  16.8579  16.9041  16.9043
    17.0029  17.0030  17.1140  17.1142  17.3872  17.3873  17.4305  17.4306
    17.5163  17.5165  17.6901  17.6901  17.7453  17.7454  17.8135  17.8136
    17.8805  17.8805  17.9265  17.9266  18.1215  18.1215  18.7068  18.7068
    19.9246  19.9247  20.0421  20.0422  20.1293  20.1294  20.1713  20.1714
    20.1836  20.1838  20.1939  20.1940  20.3373  20.3374  20.3787  20.3789
    20.5282  20.5284  20.6022  20.6025  20.6536  20.6538

          k = 0.1657-0.4972-0.4972 ( 12744 PWs)   bands (ev):

   -52.7922 -52.7920 -52.7918 -52.7918 -52.7710 -52.7709 -52.7707 -52.7707
   -51.9879 -51.9878 -51.9876 -51.9875 -51.9820 -51.9819 -51.9817 -51.9816
   -24.2878 -24.2877 -24.2875 -24.2875 -24.2676 -24.2675 -24.2675 -24.2675
   -24.2267 -24.2267 -24.2266 -24.2266 -24.1434 -24.1434 -24.1434 -24.1434
   -24.1281 -24.1281 -24.1280 -24.1280 -24.0888 -24.0886 -24.0884 -24.0884
   -23.3413 -23.3413 -23.3412 -23.3412 -23.3295 -23.3295 -23.3294 -23.3294
   -23.3008 -23.3007 -23.3005 -23.3004 -23.2414 -23.2413 -23.2411 -23.2410
   -23.2400 -23.2399 -23.2399 -23.2399 -23.2058 -23.2058 -23.2058 -23.2058
    13.8521  13.8522  13.8523  13.8524  15.7004  15.7005  15.7006  15.7007
    15.9360  15.9361  15.9362  15.9363  16.2798  16.2798  16.2799  16.2799
    16.5498  16.5499  16.5500  16.5501  16.8245  16.8246  16.8246  16.8247
    17.0386  17.0387  17.0387  17.0388  17.3541  17.3542  17.3543  17.3543
    17.5386  17.5386  17.5386  17.5387  17.7358  17.7358  17.7359  17.7360
    17.8780  17.8780  17.8780  17.8781  18.3887  18.3887  18.3888  18.3888
    20.0608  20.0609  20.0609  20.0609  20.2129  20.2129  20.2130  20.2131
    20.2975  20.2976  20.2977  20.2977  20.3645  20.3645  20.3647  20.3647
    20.4093  20.4093  20.4093  20.4093  20.5832  20.5832

          k = 0.2762 0.2762 0.2762 ( 12749 PWs)   bands (ev):

   -52.8112 -52.7864 -52.7863 -52.7863 -52.7729 -52.7728 -52.7728 -52.7621
   -51.9901 -51.9901 -51.9901 -51.9845 -51.9832 -51.9832 -51.9832 -51.9737
   -24.3237 -24.3237 -24.3236 -24.2749 -24.2749 -24.2749 -24.2575 -24.2575
   -24.2575 -24.2553 -24.2014 -24.2014 -24.1804 -24.1804 -24.1246 -24.1246
   -24.1246 -24.0960 -24.0960 -24.0959 -24.0901 -24.0750 -24.0750 -24.0750
   -23.3508 -23.3508 -23.3508 -23.3508 -23.3507 -23.3104 -23.3104 -23.3103
   -23.2972 -23.2937 -23.2709 -23.2708 -23.2708 -23.2556 -23.2556 -23.2555
   -23.2392 -23.2392 -23.2392 -23.2211 -23.2211 -23.2210 -23.1987 -23.1987
    12.6145  14.4141  14.4141  14.4142  15.1451  15.1451  15.1451  15.6698
    15.6698  15.7087  15.7087  15.7087  16.1923  16.1923  16.1924  16.2979
    16.5118  16.5118  16.5118  16.7763  16.7763  16.8141  17.0245  17.0245
    17.0245  17.2424  17.2424  17.2424  17.3195  17.3195  17.5950  17.5950
    17.5950  17.8118  17.8118  17.8118  17.9237  17.9237  17.9237  17.9963
    17.9963  18.1542  18.1542  18.1542  18.2737  18.2737  18.2737  19.1150
    19.6939  19.6939  19.6939  19.8783  20.0445  20.0445  20.0445  20.1690
    20.1690  20.1690  20.3592  20.3592  20.4263  20.4263  20.4263  20.5617
    20.5617  20.5683  20.5683  20.5684  20.7143  20.7143

          k = 0.2762 0.2762 0.3867 ( 12747 PWs)   bands (ev):

   -52.8054 -52.7922 -52.7832 -52.7832 -52.7761 -52.7760 -52.7703 -52.7646
   -51.9888 -51.9885 -51.9885 -51.9858 -51.9848 -51.9848 -51.9810 -51.9759
   -24.3066 -24.3065 -24.2976 -24.2704 -24.2704 -24.2693 -24.2584 -24.2446
   -24.2395 -24.2395 -24.2327 -24.2048 -24.1732 -24.1618 -24.1574 -24.1574
   -24.1170 -24.1088 -24.1059 -24.0984 -24.0984 -24.0894 -24.0841 -24.0840
   -23.3462 -23.3430 -23.3342 -23.3342 -23.3241 -23.3219 -23.3156 -23.3155
   -23.3147 -23.2801 -23.2766 -23.2766 -23.2645 -23.2644 -23.2629 -23.2606
   -23.2527 -23.2320 -23.2320 -23.2209 -23.2208 -23.2145 -23.2135 -23.2014
    12.9639  13.8949  14.6321  14.6322  15.0258  15.0258  15.4700  15.8258
    15.8659  15.8805  15.8805  15.9675  16.1891  16.1891  16.1925  16.2013
    16.2571  16.4786  16.6903  16.6903  16.8210  16.9255  16.9554  17.0798
    17.1276  17.1277  17.2242  17.3349  17.3349  17.4381  17.4381  17.4769
    17.6069  17.6069  17.6922  17.6922  17.7192  17.7658  17.7900  17.7977
    17.8690  17.8829  17.8829  17.9191  17.9933  17.9933  18.4275  18.9652
    19.8718  19.8734  19.9059  19.9059  20.1008  20.1008  20.1132  20.1132
    20.2228  20.3217  20.3246  20.3246  20.3249  20.3346  20.4819  20.5113
    20.5170  20.6072  20.6967  20.7259  20.7259  20.7567

          k = 0.2762 0.2762-0.4972 ( 12732 PWs)   bands (ev):

   -52.7990 -52.7987 -52.7798 -52.7797 -52.7795 -52.7794 -52.7676 -52.7673
   -51.9874 -51.9871 -51.9868 -51.9868 -51.9865 -51.9865 -51.9786 -51.9783
   -24.2876 -24.2876 -24.2875 -24.2874 -24.2664 -24.2661 -24.2635 -24.2633
   -24.2270 -24.2268 -24.1987 -24.1987 -24.1987 -24.1986 -24.1401 -24.1399
   -24.1398 -24.1397 -24.0961 -24.0960 -24.0928 -24.0928 -24.0925 -24.0925
   -23.3366 -23.3366 -23.3308 -23.3307 -23.3221 -23.3220 -23.3219 -23.3219
   -23.2916 -23.2913 -23.2743 -23.2742 -23.2741 -23.2740 -23.2688 -23.2688
   -23.2332 -23.2329 -23.2249 -23.2248 -23.2248 -23.2248 -23.2067 -23.2066
    13.3997  13.3999  14.8503  14.8503  14.8505  14.8505  15.8546  15.8549
    16.0244  16.0246  16.0523  16.0523  16.0524  16.0524  16.0614  16.0616
    16.2417  16.2419  16.8836  16.8838  16.9603  16.9604  17.0249  17.0249
    17.0251  17.0251  17.2866  17.2866  17.2867  17.2867  17.4511  17.4512
    17.6431  17.6432  17.6552  17.6552  17.6553  17.6553  17.7851  17.7851
    17.7851  17.7851  17.7871  17.7872  17.8260  17.8262  18.6786  18.6786
    20.0552  20.0554  20.0696  20.0696  20.0697  20.0697  20.0743  20.0744
    20.1644  20.1644  20.1645  20.1646  20.4396  20.4398  20.6245  20.6247
    20.6452  20.6455  20.6587  20.6589  20.6642  20.6644

          k = 0.2762 0.3867 0.3867 ( 12752 PWs)   bands (ev):

   -52.8003 -52.7885 -52.7884 -52.7802 -52.7798 -52.7734 -52.7733 -52.7673
   -51.9879 -51.9878 -51.9868 -51.9863 -51.9857 -51.9827 -51.9827 -51.9780
   -24.2898 -24.2845 -24.2844 -24.2704 -24.2548 -24.2547 -24.2546 -24.2393
   -24.2393 -24.2277 -24.2134 -24.2085 -24.1765 -24.1721 -24.1630 -24.1417
   -24.1417 -24.1204 -24.1168 -24.1168 -24.1129 -24.1128 -24.0960 -24.0954
   -23.3329 -23.3328 -23.3323 -23.3224 -23.3198 -23.3189 -23.3188 -23.3174
   -23.3095 -23.2898 -23.2751 -23.2750 -23.2722 -23.2599 -23.2585 -23.2585
   -23.2480 -23.2480 -23.2303 -23.2258 -23.2238 -23.2172 -23.2172 -23.2089
    13.2975  14.1658  14.1659  14.7710  14.8855  15.3500  15.3500  15.9588
    16.0211  16.0689  16.0769  16.1396  16.1396  16.1948  16.1948  16.4010
    16.4854  16.5096  16.5096  16.6315  16.8521  16.9753  17.0331  17.0331
    17.1024  17.1312  17.1312  17.1734  17.2652  17.3061  17.4103  17.4758
    17.4758  17.5212  17.5312  17.5312  17.5525  17.6188  17.6189  17.6708
    17.6708  17.7188  17.7340  17.7676  17.8125  18.0859  18.0859  18.6358
    20.0477  20.0477  20.0777  20.0860  20.1410  20.2384  20.2693  20.3091
    20.3091  20.3186  20.3186  20.3273  20.4143  20.4143  20.4652  20.5055
    20.6254  20.6376  20.6377  20.6526  20.7075  20.7075

          k = 0.2762 0.3867-0.4972 ( 12734 PWs)   bands (ev):

   -52.7945 -52.7942 -52.7843 -52.7840 -52.7769 -52.7766 -52.7705 -52.7702
   -51.9873 -51.9869 -51.9869 -51.9866 -51.9849 -51.9846 -51.9805 -51.9802
   -24.2751 -24.2749 -24.2711 -24.2710 -24.2628 -24.2626 -24.2368 -24.2367
   -24.2345 -24.2344 -24.2034 -24.2032 -24.1747 -24.1746 -24.1511 -24.1509
   -24.1485 -24.1483 -24.1243 -24.1242 -24.1076 -24.1075 -24.1068 -24.1065
   -23.3289 -23.3289 -23.3249 -23.3249 -23.3243 -23.3243 -23.3117 -23.3116
   -23.2906 -23.2903 -23.2898 -23.2895 -23.2622 -23.2622 -23.2602 -23.2599
   -23.2401 -23.2398 -23.2353 -23.2353 -23.2237 -23.2237 -23.2133 -23.2133
    13.7083  13.7086  14.4724  14.4726  15.1452  15.1454  15.7292  15.7294
    16.0919  16.0921  16.1289  16.1290  16.3012  16.3014  16.3175  16.3176
    16.3928  16.3930  16.8510  16.8512  16.8720  16.8722  16.9097  16.9098
    17.0138  17.0139  17.1874  17.1875  17.2324  17.2325  17.3611  17.3611
    17.4132  17.4133  17.4845  17.4847  17.6149  17.6150  17.6179  17.6180
    17.6411  17.6411  17.7246  17.7247  17.7921  17.7921  18.3137  18.3137
    20.1816  20.1817  20.1914  20.1915  20.2547  20.2549  20.2551  20.2553
    20.2977  20.2978  20.3724  20.3725  20.4349  20.4351  20.5700  20.5702
    20.5723  20.5726  20.6085  20.6086  20.6551  20.6553

          k = 0.2762-0.4972-0.4972 ( 12744 PWs)   bands (ev):

   -52.7895 -52.7893 -52.7891 -52.7891 -52.7738 -52.7736 -52.7734 -52.7734
   -51.9871 -51.9870 -51.9868 -51.9867 -51.9828 -51.9826 -51.9825 -51.9823
   -24.2657 -24.2655 -24.2653 -24.2653 -24.2516 -24.2515 -24.2515 -24.2515
   -24.2136 -24.2136 -24.2135 -24.2135 -24.1556 -24.1556 -24.1555 -24.1555
   -24.1484 -24.1484 -24.1483 -24.1483 -24.1149 -24.1147 -24.1145 -24.1145
   -23.3271 -23.3271 -23.3270 -23.3270 -23.3112 -23.3112 -23.3111 -23.3111
   -23.2962 -23.2961 -23.2959 -23.2958 -23.2488 -23.2488 -23.2488 -23.2488
   -23.2487 -23.2486 -23.2484 -23.2483 -23.2199 -23.2199 -23.2199 -23.2199
    14.0782  14.0783  14.0784  14.0785  15.4667  15.4668  15.4669  15.4670
    16.1330  16.1331  16.1332  16.1333  16.5083  16.5083  16.5084  16.5084
    16.5868  16.5868  16.5870  16.5871  16.7909  16.7910  16.7911  16.7912
    17.0993  17.0993  17.0994  17.0994  17.2188  17.2189  17.2190  17.2190
    17.4688  17.4688  17.4688  17.4688  17.5021  17.5022  17.5023  17.5023
    17.6588  17.6588  17.6588  17.6589  17.9971  17.9971  17.9971  17.9971
    20.2552  20.2552  20.2553  20.2554  20.3703  20.3705  20.3706  20.3706
    20.4123  20.4123  20.4124  20.4124  20.4581  20.4582  20.4582  20.4583
    20.5654  20.5655  20.5656  20.5657  20.7000  20.7002

          k = 0.3867 0.3867 0.3867 ( 12733 PWs)   bands (ev):

   -52.7956 -52.7850 -52.7849 -52.7849 -52.7770 -52.7768 -52.7768 -52.7702
   -51.9867 -51.9866 -51.9866 -51.9863 -51.9839 -51.9839 -51.9839 -51.9798
   -24.2654 -24.2654 -24.2653 -24.2493 -24.2492 -24.2492 -24.2362 -24.2152
   -24.2151 -24.2151 -24.2053 -24.2053 -24.1931 -24.1931 -24.1497 -24.1497
   -24.1497 -24.1437 -24.1437 -24.1436 -24.1318 -24.1318 -24.1318 -24.1079
   -23.3198 -23.3173 -23.3173 -23.3172 -23.3116 -23.3115 -23.3115 -23.3061
   -23.3061 -23.2746 -23.2694 -23.2693 -23.2693 -23.2680 -23.2680 -23.2679
   -23.2522 -23.2521 -23.2521 -23.2273 -23.2273 -23.2272 -23.2263 -23.2263
    13.6238  14.4555  14.4555  14.4556  15.0990  15.0990  15.0991  15.8584
    16.1797  16.1797  16.2945  16.2945  16.2946  16.4708  16.4708  16.4708
    16.4928  16.4928  16.4929  16.6284  16.9244  16.9244  17.0985  17.0985
    17.0986  17.1492  17.1492  17.2320  17.2321  17.2321  17.2473  17.2473
    17.2473  17.4208  17.4208  17.4209  17.4320  17.4320  17.4320  17.4820
    17.4820  17.4820  17.6411  17.6411  17.7458  17.7458  17.7458  18.2503
    20.1890  20.1890  20.1891  20.3765  20.3765  20.3765  20.3858  20.3915
    20.3915  20.4254  20.4254  20.4254  20.4719  20.4719  20.4719  20.5713
    20.5713  20.6429  20.6429  20.6429  20.6648  20.6648

          k = 0.3867 0.3867-0.4972 ( 12762 PWs)   bands (ev):

   -52.7904 -52.7901 -52.7811 -52.7810 -52.7808 -52.7807 -52.7737 -52.7734
   -51.9867 -51.9864 -51.9854 -51.9854 -51.9851 -51.9851 -51.9820 -51.9817
   -24.2521 -24.2521 -24.2520 -24.2519 -24.2363 -24.2361 -24.2242 -24.2240
   -24.2229 -24.2228 -24.1836 -24.1835 -24.1835 -24.1834 -24.1706 -24.1704
   -24.1692 -24.1689 -24.1432 -24.1432 -24.1430 -24.1430 -24.1271 -24.1269
   -23.3180 -23.3180 -23.3083 -23.3082 -23.3082 -23.3081 -23.3062 -23.3061
   -23.2785 -23.2782 -23.2737 -23.2737 -23.2735 -23.2734 -23.2733 -23.2732
   -23.2474 -23.2471 -23.2405 -23.2404 -23.2404 -23.2404 -23.2277 -23.2277
    14.0212  14.0214  14.7843  14.7843  14.7845  14.7845  15.4855  15.4857
    16.3165  16.3168  16.3925  16.3927  16.4128  16.4128  16.4130  16.4130
    16.5843  16.5845  16.8237  16.8237  16.8239  16.8239  16.9898  16.9899
    17.0101  17.0103  17.1865  17.1866  17.1939  17.1941  17.2737  17.2737
    17.2738  17.2738  17.3866  17.3866  17.3867  17.3867  17.4745  17.4745
    17.4745  17.4746  17.5225  17.5226  17.5340  17.5341  17.9238  17.9238
    20.2971  20.2973  20.3280  20.3280  20.3282  20.3282  20.4707  20.4708
    20.4708  20.4708  20.4868  20.4870  20.5313  20.5315  20.6188  20.6190
    20.6314  20.6316  20.6373  20.6373  20.6375  20.6376

          k = 0.3867-0.4972-0.4972 ( 12744 PWs)   bands (ev):

   -52.7858 -52.7856 -52.7855 -52.7855 -52.7775 -52.7773 -52.7771 -52.7771
   -51.9861 -51.9860 -51.9858 -51.9857 -51.9838 -51.9837 -51.9835 -51.9833
   -24.2358 -24.2357 -24.2355 -24.2355 -24.2291 -24.2291 -24.2291 -24.2291
   -24.1959 -24.1959 -24.1959 -24.1958 -24.1745 -24.1745 -24.1745 -24.1744
   -24.1744 -24.1744 -24.1744 -24.1744 -24.1462 -24.1461 -24.1460 -24.1459
   -23.3102 -23.3102 -23.3101 -23.3101 -23.2919 -23.2919 -23.2917 -23.2916
   -23.2879 -23.2879 -23.2878 -23.2878 -23.2593 -23.2593 -23.2592 -23.2592
   -23.2572 -23.2570 -23.2569 -23.2568 -23.2395 -23.2395 -23.2394 -23.2394
    14.3938  14.3939  14.3940  14.3941  15.1438  15.1439  15.1440  15.1441
    16.4022  16.4022  16.4023  16.4024  16.6361  16.6362  16.6364  16.6364
    16.7438  16.7438  16.7439  16.7440  16.7451  16.7451  16.7453  16.7453
    17.1539  17.1540  17.1541  17.1542  17.1816  17.1817  17.1817  17.1817
    17.2604  17.2605  17.2606  17.2607  17.3777  17.3777  17.3778  17.3778
    17.4405  17.4405  17.4405  17.4405  17.6019  17.6019  17.6019  17.6020
    20.3686  20.3687  20.3688  20.3688  20.4372  20.4373  20.4374  20.4375
    20.5356  20.5357  20.5359  20.5360  20.6127  20.6128  20.6129  20.6130
    20.6325  20.6325  20.6325  20.6326  20.6791  20.6791

          k =-0.4972-0.4972-0.4972 ( 12712 PWs)   bands (ev):

   -52.7818 -52.7815 -52.7815 -52.7814 -52.7813 -52.7813 -52.7812 -52.7812
   -51.9850 -51.9849 -51.9849 -51.9848 -51.9847 -51.9846 -51.9846 -51.9844
   -24.2026 -24.2026 -24.2026 -24.2025 -24.2025 -24.2025 -24.2025 -24.2024
   -24.2024 -24.2024 -24.2023 -24.2023 -24.2023 -24.2023 -24.2022 -24.2022
   -24.1740 -24.1740 -24.1740 -24.1740 -24.1739 -24.1739 -24.1739 -24.1738
   -23.2957 -23.2956 -23.2956 -23.2956 -23.2955 -23.2955 -23.2954 -23.2954
   -23.2632 -23.2632 -23.2632 -23.2631 -23.2631 -23.2631 -23.2630 -23.2630
   -23.2630 -23.2630 -23.2629 -23.2629 -23.2629 -23.2629 -23.2628 -23.2628
    14.7658  14.7658  14.7659  14.7659  14.7660  14.7661  14.7661  14.7662
    16.6913  16.6913  16.6914  16.6914  16.6914  16.6914  16.6914  16.6914
    16.6915  16.6915  16.6916  16.6916  16.6916  16.6916  16.6916  16.6916
    17.2579  17.2580  17.2580  17.2580  17.2580  17.2580  17.2580  17.2580
    17.2779  17.2779  17.2779  17.2779  17.2779  17.2779  17.2779  17.2779
    17.2780  17.2780  17.2780  17.2780  17.2780  17.2780  17.2780  17.2780
    20.4926  20.4926  20.4927  20.4927  20.4927  20.4927  20.4928  20.4928
    20.4928  20.4928  20.4929  20.4929  20.4929  20.4929  20.4930  20.4930
    20.8798  20.8798  20.8798  20.8799  20.8799  20.8799

 ------ SPIN DOWN ----------


          k = 0.0552 0.0552 0.0552 ( 12776 PWs)   bands (ev):

   -52.8329 -52.7851 -52.7851 -52.7851 -52.7691 -52.7691 -52.7691 -52.7539
   -51.9973 -51.9973 -51.9972 -51.9813 -51.9813 -51.9812 -51.9777 -51.9657
   -24.3930 -24.3930 -24.3930 -24.3898 -24.3898 -24.3898 -24.2189 -24.2189
   -24.2189 -24.1930 -24.1873 -24.1873 -24.1609 -24.1609 -24.1551 -24.0508
   -24.0508 -24.0508 -24.0463 -24.0463 -24.0463 -24.0304 -24.0304 -24.0303
   -23.4384 -23.4384 -23.4384 -23.4111 -23.4111 -23.4056 -23.2680 -23.2679
   -23.2679 -23.2645 -23.2645 -23.2644 -23.2533 -23.2533 -23.2533 -23.2245
   -23.2245 -23.2244 -23.2210 -23.2209 -23.2209 -23.1776 -23.1712 -23.1712
    11.4687  14.8656  14.8656  14.8656  14.9659  14.9659  14.9659  15.0571
    15.0571  15.0851  15.0851  15.0851  15.5575  15.5575  15.5575  16.6932
    16.7509  16.7509  16.8735  16.8735  16.8735  16.8888  16.8888  16.8889
    17.1794  17.1794  17.1794  17.2648  17.2648  17.2775  17.8290  17.8291
    17.8291  18.3704  18.3704  18.4229  18.5266  18.5266  18.5266  18.6338
    18.6338  18.6338  19.1118  19.1118  19.1119  19.3348  19.3348  19.3348
    19.7917  19.7917  19.7917  19.9410  19.9411  19.9411  20.1814  20.1814
    20.1814  20.4182  20.4182  20.4182  20.4719  20.4719  20.4987  20.4987
    20.4987  20.5450  20.5451  20.5451  20.5576  20.5576

          k = 0.0552 0.0552 0.1657 ( 12783 PWs)   bands (ev):

   -52.8301 -52.7881 -52.7842 -52.7842 -52.7700 -52.7700 -52.7682 -52.7548
   -51.9963 -51.9963 -51.9960 -51.9823 -51.9822 -51.9803 -51.9788 -51.9667
   -24.3837 -24.3837 -24.3826 -24.3796 -24.3718 -24.3718 -24.2299 -24.2299
   -24.2164 -24.2076 -24.2027 -24.1779 -24.1676 -24.1548 -24.1472 -24.0767
   -24.0767 -24.0572 -24.0541 -24.0460 -24.0460 -24.0397 -24.0314 -24.0313
   -23.4227 -23.4195 -23.4195 -23.4053 -23.3970 -23.3888 -23.2691 -23.2690
   -23.2637 -23.2612 -23.2594 -23.2593 -23.2579 -23.2547 -23.2547 -23.2345
   -23.2345 -23.2325 -23.2305 -23.2220 -23.2220 -23.1947 -23.1763 -23.1747
    11.6032  14.5352  14.9088  14.9088  14.9678  15.0210  15.0210  15.0801
    15.1260  15.1308  15.1308  15.1335  15.5863  15.5863  15.8109  16.5796
    16.7196  16.7213  16.8032  16.8523  16.8662  16.9292  16.9292  16.9756
    16.9756  17.1015  17.1540  17.1540  17.4043  17.4139  17.6873  17.6873
    18.1609  18.3391  18.3585  18.3585  18.3613  18.4549  18.4899  18.6459
    18.7508  18.7509  18.8825  18.8825  19.2240  19.3807  19.3808  19.4315
    19.4315  19.5046  19.6832  19.7004  19.7143  19.7143  19.8289  20.1602
    20.1602  20.3424  20.3424  20.3797  20.4050  20.4864  20.4864  20.5088
    20.5549  20.5577  20.5708  20.6213  20.6750  20.6831

          k = 0.0552 0.0552 0.2762 ( 12757 PWs)   bands (ev):

   -52.8248 -52.7937 -52.7824 -52.7824 -52.7719 -52.7719 -52.7664 -52.7565
   -51.9945 -51.9944 -51.9936 -51.9841 -51.9840 -51.9809 -51.9786 -51.9684
   -24.3645 -24.3644 -24.3625 -24.3602 -24.3391 -24.3391 -24.2503 -24.2503
   -24.2332 -24.2299 -24.2115 -24.1758 -24.1600 -24.1429 -24.1353 -24.1230
   -24.1230 -24.0690 -24.0683 -24.0575 -24.0442 -24.0442 -24.0332 -24.0332
   -23.3933 -23.3890 -23.3875 -23.3875 -23.3715 -23.3629 -23.2831 -23.2684
   -23.2684 -23.2583 -23.2583 -23.2529 -23.2528 -23.2517 -23.2516 -23.2491
   -23.2488 -23.2486 -23.2458 -23.2256 -23.2255 -23.2248 -23.1863 -23.1839
    11.8672  13.9196  14.9875  14.9876  15.1255  15.1255  15.1633  15.1898
    15.1898  15.2626  15.2757  15.3004  15.5997  15.5997  15.8897  16.3722
    16.4083  16.6497  16.6976  16.8149  16.8264  16.8322  17.0527  17.0527
    17.1317  17.1317  17.1786  17.1786  17.6071  17.6072  17.6474  17.6667
    18.0908  18.0908  18.3147  18.3210  18.3467  18.3567  18.3567  18.3781
    18.5885  18.7693  18.7693  18.8642  19.0977  19.0977  19.2179  19.2179
    19.2237  19.2892  19.3337  19.5994  19.5994  19.7411  19.7857  20.1994
    20.2320  20.2320  20.3671  20.3671  20.4275  20.5501  20.5508  20.5598
    20.5599  20.5654  20.5795  20.6280  20.9099  20.9640

          k = 0.0552 0.0552 0.3867 ( 12752 PWs)   bands (ev):

   -52.8177 -52.8011 -52.7799 -52.7799 -52.7743 -52.7743 -52.7641 -52.7589
   -51.9921 -51.9920 -51.9905 -51.9865 -51.9864 -51.9838 -51.9762 -51.9708
   -24.3382 -24.3382 -24.3342 -24.3330 -24.2936 -24.2936 -24.2775 -24.2775
   -24.2658 -24.2642 -24.2042 -24.1853 -24.1797 -24.1797 -24.1362 -24.1263
   -24.1200 -24.0867 -24.0848 -24.0816 -24.0417 -24.0417 -24.0358 -24.0358
   -23.3654 -23.3537 -23.3501 -23.3501 -23.3395 -23.3323 -23.3088 -23.2802
   -23.2802 -23.2746 -23.2720 -23.2663 -23.2663 -23.2642 -23.2594 -23.2594
   -23.2454 -23.2453 -23.2334 -23.2311 -23.2310 -23.2301 -23.2001 -23.1973
    12.2507  13.3050  15.0848  15.0848  15.2124  15.2124  15.2661  15.2661
    15.4339  15.4621  15.4643  15.5441  15.5441  15.6101  15.8205  16.0445
    16.0801  16.3730  16.7011  16.7238  16.7698  16.7794  17.2374  17.2374
    17.3434  17.3434  17.3514  17.3514  17.6454  17.6455  17.8531  17.8531
    17.9771  17.9892  17.9892  17.9965  18.1916  18.1916  18.3000  18.3255
    18.3302  18.3328  18.5193  18.5194  18.7200  18.8297  18.8355  19.0625
    19.2387  19.5525  19.5525  19.7965  19.7965  19.9392  20.0285  20.0732
    20.0732  20.1367  20.1959  20.1959  20.4628  20.5314  20.5447  20.5452
    20.6790  20.7106  20.7938  20.9321  20.9321  20.9424

          k = 0.0552 0.0552-0.4972 ( 12732 PWs)   bands (ev):

   -52.8096 -52.8093 -52.7773 -52.7773 -52.7769 -52.7769 -52.7617 -52.7613
   -51.9893 -51.9893 -51.9893 -51.9892 -51.9871 -51.9871 -51.9735 -51.9735
   -24.3082 -24.3082 -24.3079 -24.3079 -24.3005 -24.3005 -24.3002 -24.3002
   -24.2389 -24.2389 -24.2387 -24.2387 -24.1954 -24.1951 -24.1091 -24.1088
[...]
    20.1837  20.1838  20.1939  20.1940  20.3373  20.3373  20.3787  20.3789
    20.5283  20.5284  20.6024  20.6025  20.6537  20.6538

          k = 0.1657-0.4972-0.4972 ( 12744 PWs)   bands (ev):

   -52.7922 -52.7920 -52.7918 -52.7917 -52.7710 -52.7709 -52.7707 -52.7705
   -51.9878 -51.9878 -51.9876 -51.9875 -51.9819 -51.9819 -51.9817 -51.9816
   -24.2878 -24.2877 -24.2875 -24.2874 -24.2675 -24.2675 -24.2675 -24.2675
   -24.2267 -24.2266 -24.2266 -24.2266 -24.1434 -24.1434 -24.1434 -24.1434
   -24.1280 -24.1280 -24.1280 -24.1280 -24.0888 -24.0886 -24.0884 -24.0883
   -23.3412 -23.3412 -23.3412 -23.3411 -23.3295 -23.3295 -23.3294 -23.3294
   -23.3007 -23.3006 -23.3005 -23.3004 -23.2413 -23.2412 -23.2411 -23.2410
   -23.2399 -23.2399 -23.2399 -23.2398 -23.2058 -23.2058 -23.2057 -23.2057
    13.8520  13.8521  13.8523  13.8524  15.7004  15.7005  15.7006  15.7007
    15.9361  15.9362  15.9363  15.9363  16.2798  16.2798  16.2799  16.2799
    16.5498  16.5499  16.5500  16.5501  16.8245  16.8246  16.8246  16.8247
    17.0386  17.0386  17.0387  17.0388  17.3541  17.3542  17.3543  17.3543
    17.5386  17.5386  17.5386  17.5386  17.7358  17.7358  17.7359  17.7360
    17.8779  17.8780  17.8780  17.8781  18.3887  18.3887  18.3887  18.3887
    20.0608  20.0609  20.0609  20.0610  20.2129  20.2130  20.2131  20.2131
    20.2976  20.2976  20.2977  20.2978  20.3646  20.3646  20.3647  20.3648
    20.4093  20.4093  20.4093  20.4093  20.5833  20.5835

          k = 0.2762 0.2762 0.2762 ( 12749 PWs)   bands (ev):

   -52.8111 -52.7863 -52.7863 -52.7863 -52.7728 -52.7728 -52.7728 -52.7621
   -51.9902 -51.9901 -51.9900 -51.9845 -51.9832 -51.9832 -51.9831 -51.9737
   -24.3237 -24.3237 -24.3237 -24.2749 -24.2749 -24.2749 -24.2575 -24.2575
   -24.2575 -24.2552 -24.2014 -24.2014 -24.1803 -24.1803 -24.1246 -24.1246
   -24.1246 -24.0959 -24.0959 -24.0959 -24.0901 -24.0750 -24.0750 -24.0750
   -23.3508 -23.3508 -23.3507 -23.3507 -23.3507 -23.3104 -23.3104 -23.3103
   -23.2971 -23.2937 -23.2709 -23.2708 -23.2708 -23.2556 -23.2555 -23.2555
   -23.2392 -23.2391 -23.2391 -23.2211 -23.2211 -23.2210 -23.1987 -23.1987
    12.6145  14.4141  14.4141  14.4142  15.1450  15.1450  15.1451  15.6699
    15.6699  15.7087  15.7087  15.7087  16.1924  16.1924  16.1924  16.2979
    16.5118  16.5118  16.5118  16.7763  16.7763  16.8141  17.0244  17.0245
    17.0245  17.2423  17.2423  17.2424  17.3195  17.3195  17.5950  17.5950
    17.5950  17.8117  17.8117  17.8118  17.9237  17.9237  17.9237  17.9963
    17.9963  18.1542  18.1542  18.1542  18.2737  18.2737  18.2737  19.1150
    19.6939  19.6939  19.6939  19.8783  20.0444  20.0445  20.0445  20.1690
    20.1690  20.1690  20.3593  20.3593  20.4264  20.4264  20.4264  20.5617
    20.5617  20.5683  20.5683  20.5683  20.7144  20.7144

          k = 0.2762 0.2762 0.3867 ( 12747 PWs)   bands (ev):

   -52.8054 -52.7922 -52.7832 -52.7832 -52.7760 -52.7760 -52.7703 -52.7646
   -51.9887 -51.9885 -51.9884 -51.9858 -51.9848 -51.9847 -51.9810 -51.9759
   -24.3065 -24.3065 -24.2976 -24.2704 -24.2703 -24.2692 -24.2584 -24.2446
   -24.2395 -24.2395 -24.2327 -24.2047 -24.1732 -24.1618 -24.1574 -24.1574
   -24.1169 -24.1087 -24.1058 -24.0984 -24.0984 -24.0894 -24.0840 -24.0840
   -23.3462 -23.3430 -23.3342 -23.3341 -23.3240 -23.3219 -23.3155 -23.3155
   -23.3147 -23.2801 -23.2766 -23.2765 -23.2645 -23.2644 -23.2629 -23.2606
   -23.2526 -23.2320 -23.2320 -23.2208 -23.2208 -23.2144 -23.2135 -23.2014
    12.9639  13.8949  14.6321  14.6321  15.0258  15.0258  15.4700  15.8259
    15.8659  15.8805  15.8805  15.9675  16.1891  16.1891  16.1925  16.2013
    16.2572  16.4785  16.6903  16.6903  16.8210  16.9254  16.9554  17.0798
    17.1276  17.1276  17.2242  17.3349  17.3349  17.4381  17.4381  17.4769
    17.6069  17.6069  17.6922  17.6922  17.7192  17.7658  17.7899  17.7977
    17.8690  17.8829  17.8829  17.9191  17.9932  17.9932  18.4275  18.9652
    19.8719  19.8733  19.9059  19.9060  20.1008  20.1009  20.1132  20.1133
    20.2229  20.3218  20.3246  20.3247  20.3249  20.3346  20.4820  20.5114
    20.5170  20.6073  20.6967  20.7260  20.7260  20.7567

          k = 0.2762 0.2762-0.4972 ( 12732 PWs)   bands (ev):

   -52.7990 -52.7986 -52.7797 -52.7797 -52.7794 -52.7794 -52.7676 -52.7673
   -51.9873 -51.9873 -51.9867 -51.9866 -51.9866 -51.9865 -51.9785 -51.9784
   -24.2876 -24.2876 -24.2874 -24.2874 -24.2664 -24.2661 -24.2635 -24.2632
   -24.2269 -24.2268 -24.1987 -24.1987 -24.1986 -24.1986 -24.1401 -24.1399
   -24.1398 -24.1397 -24.0961 -24.0959 -24.0928 -24.0928 -24.0925 -24.0925
   -23.3366 -23.3366 -23.3307 -23.3307 -23.3220 -23.3220 -23.3219 -23.3219
   -23.2914 -23.2914 -23.2741 -23.2741 -23.2741 -23.2741 -23.2688 -23.2687
   -23.2330 -23.2330 -23.2249 -23.2248 -23.2248 -23.2247 -23.2067 -23.2066
    13.3997  13.3999  14.8503  14.8503  14.8505  14.8505  15.8546  15.8549
    16.0245  16.0247  16.0523  16.0523  16.0524  16.0524  16.0615  16.0616
    16.2417  16.2419  16.8836  16.8838  16.9603  16.9604  17.0249  17.0250
    17.0251  17.0252  17.2866  17.2866  17.2867  17.2867  17.4511  17.4512
    17.6431  17.6433  17.6552  17.6552  17.6553  17.6553  17.7850  17.7851
    17.7851  17.7852  17.7871  17.7872  17.8260  17.8262  18.6786  18.6786
    20.0553  20.0554  20.0697  20.0697  20.0697  20.0697  20.0743  20.0744
    20.1645  20.1645  20.1646  20.1646  20.4396  20.4398  20.6246  20.6247
    20.6454  20.6455  20.6587  20.6590  20.6643  20.6643

          k = 0.2762 0.3867 0.3867 ( 12752 PWs)   bands (ev):

   -52.8002 -52.7884 -52.7884 -52.7802 -52.7798 -52.7733 -52.7733 -52.7672
   -51.9878 -51.9878 -51.9868 -51.9863 -51.9857 -51.9828 -51.9827 -51.9780
   -24.2898 -24.2844 -24.2844 -24.2704 -24.2547 -24.2547 -24.2546 -24.2393
   -24.2393 -24.2277 -24.2134 -24.2085 -24.1765 -24.1721 -24.1630 -24.1417
   -24.1417 -24.1203 -24.1168 -24.1168 -24.1128 -24.1128 -24.0960 -24.0954
   -23.3329 -23.3328 -23.3323 -23.3224 -23.3198 -23.3189 -23.3188 -23.3174
   -23.3095 -23.2897 -23.2750 -23.2750 -23.2722 -23.2599 -23.2585 -23.2585
   -23.2480 -23.2479 -23.2303 -23.2258 -23.2238 -23.2172 -23.2171 -23.2089
    13.2975  14.1658  14.1658  14.7710  14.8854  15.3500  15.3500  15.9589
    16.0212  16.0689  16.0769  16.1396  16.1396  16.1948  16.1949  16.4010
    16.4854  16.5096  16.5096  16.6316  16.8521  16.9753  17.0331  17.0331
    17.1024  17.1312  17.1312  17.1734  17.2652  17.3061  17.4103  17.4758
    17.4758  17.5212  17.5312  17.5312  17.5525  17.6188  17.6189  17.6708
    17.6708  17.7188  17.7340  17.7676  17.8125  18.0859  18.0859  18.6357
    20.0477  20.0478  20.0778  20.0860  20.1411  20.2385  20.2693  20.3091
    20.3092  20.3186  20.3186  20.3274  20.4143  20.4144  20.4653  20.5056
    20.6255  20.6377  20.6377  20.6526  20.7075  20.7076

          k = 0.2762 0.3867-0.4972 ( 12734 PWs)   bands (ev):

   -52.7945 -52.7942 -52.7843 -52.7839 -52.7769 -52.7766 -52.7704 -52.7701
   -51.9871 -51.9871 -51.9868 -51.9867 -51.9847 -51.9847 -51.9804 -51.9803
   -24.2751 -24.2748 -24.2711 -24.2709 -24.2628 -24.2625 -24.2368 -24.2366
   -24.2345 -24.2344 -24.2033 -24.2032 -24.1746 -24.1746 -24.1511 -24.1509
   -24.1485 -24.1483 -24.1243 -24.1241 -24.1076 -24.1074 -24.1068 -24.1065
   -23.3289 -23.3289 -23.3249 -23.3249 -23.3243 -23.3243 -23.3117 -23.3116
   -23.2904 -23.2904 -23.2896 -23.2896 -23.2622 -23.2622 -23.2600 -23.2600
   -23.2399 -23.2399 -23.2353 -23.2353 -23.2237 -23.2236 -23.2133 -23.2133
    13.7083  13.7086  14.4724  14.4726  15.1452  15.1454  15.7292  15.7294
    16.0920  16.0922  16.1289  16.1291  16.3012  16.3014  16.3175  16.3176
    16.3928  16.3929  16.8510  16.8512  16.8720  16.8722  16.9097  16.9098
    17.0138  17.0139  17.1874  17.1875  17.2323  17.2325  17.3611  17.3611
    17.4132  17.4133  17.4845  17.4847  17.6149  17.6151  17.6179  17.6179
    17.6410  17.6411  17.7246  17.7247  17.7921  17.7921  18.3137  18.3137
    20.1817  20.1818  20.1915  20.1915  20.2548  20.2549  20.2552  20.2553
    20.2977  20.2978  20.3724  20.3724  20.4349  20.4351  20.5701  20.5702
    20.5725  20.5726  20.6085  20.6085  20.6552  20.6554

          k = 0.2762-0.4972-0.4972 ( 12744 PWs)   bands (ev):

   -52.7895 -52.7893 -52.7891 -52.7890 -52.7737 -52.7736 -52.7734 -52.7733
   -51.9870 -51.9870 -51.9868 -51.9867 -51.9827 -51.9826 -51.9825 -51.9823
   -24.2657 -24.2655 -24.2654 -24.2652 -24.2515 -24.2515 -24.2515 -24.2515
   -24.2135 -24.2135 -24.2135 -24.2135 -24.1555 -24.1555 -24.1555 -24.1555
   -24.1483 -24.1483 -24.1483 -24.1483 -24.1149 -24.1147 -24.1146 -24.1144
   -23.3271 -23.3271 -23.3270 -23.3270 -23.3112 -23.3112 -23.3111 -23.3111
   -23.2961 -23.2960 -23.2959 -23.2958 -23.2488 -23.2488 -23.2487 -23.2487
   -23.2486 -23.2485 -23.2484 -23.2483 -23.2199 -23.2199 -23.2198 -23.2198
    14.0781  14.0782  14.0784  14.0785  15.4667  15.4667  15.4669  15.4669
    16.1330  16.1331  16.1332  16.1333  16.5082  16.5083  16.5083  16.5084
    16.5868  16.5869  16.5870  16.5871  16.7910  16.7910  16.7911  16.7912
    17.0992  17.0993  17.0994  17.0994  17.2188  17.2189  17.2190  17.2191
    17.4687  17.4688  17.4688  17.4688  17.5021  17.5022  17.5023  17.5023
    17.6588  17.6588  17.6588  17.6589  17.9971  17.9971  17.9971  17.9971
    20.2553  20.2553  20.2554  20.2555  20.3704  20.3705  20.3706  20.3707
    20.4123  20.4123  20.4124  20.4124  20.4582  20.4582  20.4583  20.4583
    20.5655  20.5656  20.5656  20.5658  20.7000  20.7001

          k = 0.3867 0.3867 0.3867 ( 12733 PWs)   bands (ev):

   -52.7956 -52.7849 -52.7849 -52.7849 -52.7769 -52.7769 -52.7769 -52.7702
   -51.9867 -51.9866 -51.9866 -51.9863 -51.9839 -51.9839 -51.9838 -51.9798
   -24.2654 -24.2653 -24.2653 -24.2492 -24.2492 -24.2492 -24.2361 -24.2151
   -24.2151 -24.2151 -24.2053 -24.2053 -24.1931 -24.1931 -24.1496 -24.1496
   -24.1496 -24.1437 -24.1437 -24.1437 -24.1318 -24.1318 -24.1318 -24.1079
   -23.3198 -23.3173 -23.3172 -23.3172 -23.3115 -23.3115 -23.3114 -23.3061
   -23.3061 -23.2745 -23.2693 -23.2693 -23.2692 -23.2680 -23.2679 -23.2679
   -23.2522 -23.2521 -23.2521 -23.2273 -23.2273 -23.2271 -23.2263 -23.2263
    13.6238  14.4555  14.4555  14.4555  15.0990  15.0990  15.0990  15.8583
    16.1797  16.1797  16.2946  16.2946  16.2946  16.4708  16.4708  16.4708
    16.4929  16.4929  16.4929  16.6284  16.9243  16.9243  17.0985  17.0985
    17.0985  17.1492  17.1492  17.2321  17.2321  17.2321  17.2473  17.2473
    17.2473  17.4208  17.4208  17.4208  17.4319  17.4319  17.4320  17.4820
    17.4820  17.4820  17.6411  17.6411  17.7458  17.7458  17.7458  18.2503
    20.1891  20.1891  20.1891  20.3765  20.3765  20.3765  20.3858  20.3916
    20.3916  20.4254  20.4255  20.4255  20.4719  20.4719  20.4719  20.5713
    20.5713  20.6430  20.6430  20.6430  20.6649  20.6649

          k = 0.3867 0.3867-0.4972 ( 12762 PWs)   bands (ev):

   -52.7904 -52.7901 -52.7810 -52.7810 -52.7807 -52.7807 -52.7737 -52.7734
   -51.9865 -51.9865 -51.9853 -51.9853 -51.9852 -51.9852 -51.9819 -51.9818
   -24.2521 -24.2521 -24.2519 -24.2519 -24.2363 -24.2360 -24.2242 -24.2240
   -24.2229 -24.2228 -24.1835 -24.1835 -24.1834 -24.1834 -24.1705 -24.1703
   -24.1692 -24.1688 -24.1432 -24.1432 -24.1429 -24.1429 -24.1271 -24.1269
   -23.3180 -23.3179 -23.3082 -23.3082 -23.3082 -23.3081 -23.3061 -23.3061
   -23.2784 -23.2783 -23.2737 -23.2737 -23.2733 -23.2733 -23.2733 -23.2733
   -23.2472 -23.2472 -23.2405 -23.2404 -23.2404 -23.2404 -23.2277 -23.2277
    14.0211  14.0214  14.7842  14.7843  14.7845  14.7845  15.4855  15.4857
    16.3166  16.3168  16.3926  16.3927  16.4129  16.4129  16.4130  16.4130
    16.5843  16.5844  16.8237  16.8238  16.8239  16.8240  16.9898  16.9899
    17.0101  17.0103  17.1864  17.1866  17.1939  17.1941  17.2737  17.2737
    17.2738  17.2738  17.3866  17.3866  17.3867  17.3867  17.4745  17.4745
    17.4745  17.4745  17.5225  17.5226  17.5340  17.5341  17.9237  17.9238
    20.2972  20.2973  20.3281  20.3281  20.3282  20.3282  20.4708  20.4708
    20.4708  20.4708  20.4869  20.4870  20.5314  20.5315  20.6189  20.6191
    20.6315  20.6316  20.6375  20.6375  20.6376  20.6376

          k = 0.3867-0.4972-0.4972 ( 12744 PWs)   bands (ev):

   -52.7858 -52.7857 -52.7855 -52.7853 -52.7774 -52.7773 -52.7771 -52.7770
   -51.9860 -51.9860 -51.9858 -51.9857 -51.9837 -51.9837 -51.9835 -51.9833
   -24.2358 -24.2357 -24.2355 -24.2354 -24.2291 -24.2291 -24.2291 -24.2291
   -24.1959 -24.1959 -24.1958 -24.1958 -24.1745 -24.1744 -24.1744 -24.1744
   -24.1744 -24.1744 -24.1744 -24.1743 -24.1462 -24.1461 -24.1460 -24.1459
   -23.3101 -23.3101 -23.3101 -23.3101 -23.2918 -23.2918 -23.2917 -23.2916
   -23.2878 -23.2878 -23.2878 -23.2878 -23.2593 -23.2593 -23.2592 -23.2592
   -23.2571 -23.2570 -23.2569 -23.2568 -23.2394 -23.2394 -23.2394 -23.2393
    14.3937  14.3938  14.3940  14.3941  15.1437  15.1438  15.1440  15.1441
    16.4022  16.4023  16.4024  16.4024  16.6362  16.6363  16.6364  16.6365
    16.7438  16.7439  16.7439  16.7440  16.7451  16.7452  16.7453  16.7453
    17.1539  17.1540  17.1541  17.1542  17.1816  17.1817  17.1817  17.1817
    17.2604  17.2605  17.2606  17.2607  17.3777  17.3777  17.3777  17.3778
    17.4404  17.4405  17.4405  17.4405  17.6019  17.6019  17.6019  17.6019
    20.3687  20.3688  20.3688  20.3689  20.4373  20.4374  20.4374  20.4375
    20.5357  20.5359  20.5359  20.5361  20.6128  20.6129  20.6130  20.6131
    20.6325  20.6325  20.6326  20.6326  20.6791  20.6792

          k =-0.4972-0.4972-0.4972 ( 12712 PWs)   bands (ev):

   -52.7817 -52.7815 -52.7815 -52.7814 -52.7814 -52.7812 -52.7812 -52.7811
   -51.9850 -51.9849 -51.9848 -51.9848 -51.9847 -51.9847 -51.9845 -51.9843
   -24.2026 -24.2026 -24.2026 -24.2025 -24.2025 -24.2025 -24.2025 -24.2024
   -24.2023 -24.2023 -24.2023 -24.2023 -24.2022 -24.2022 -24.2022 -24.2022
   -24.1740 -24.1740 -24.1740 -24.1739 -24.1739 -24.1738 -24.1738 -24.1738
   -23.2956 -23.2956 -23.2955 -23.2955 -23.2955 -23.2955 -23.2954 -23.2954
   -23.2631 -23.2631 -23.2631 -23.2631 -23.2630 -23.2630 -23.2630 -23.2630
   -23.2630 -23.2630 -23.2629 -23.2629 -23.2628 -23.2628 -23.2628 -23.2627
    14.7657  14.7658  14.7658  14.7659  14.7660  14.7661  14.7661  14.7662
    16.6913  16.6913  16.6914  16.6914  16.6914  16.6914  16.6915  16.6915
    16.6915  16.6915  16.6916  16.6916  16.6916  16.6916  16.6917  16.6917
    17.2579  17.2579  17.2579  17.2579  17.2580  17.2580  17.2580  17.2580
    17.2778  17.2778  17.2778  17.2778  17.2778  17.2779  17.2779  17.2779
    17.2779  17.2780  17.2780  17.2780  17.2780  17.2780  17.2780  17.2780
    20.4927  20.4927  20.4928  20.4928  20.4928  20.4928  20.4928  20.4929
    20.4929  20.4929  20.4929  20.4929  20.4930  20.4930  20.4931  20.4931
    20.8798  20.8798  20.8798  20.8799  20.8799  20.8799

     the Fermi energy is    19.2177 ev

!    total energy              =   -3971.54380327 Ry
     Harris-Foulkes estimate   =   -3971.54380063 Ry
     estimated scf accuracy    <       0.00000042 Ry

     total all-electron energy =    -33628.066683 Ry

     The total energy is the sum of the following terms:

     one-electron contribution =    -899.68624396 Ry
     hartree contribution      =     585.03238481 Ry
     xc contribution           =    -356.61253098 Ry
     ewald contribution        =   -2112.36308309 Ry
     one-center paw contrib.   =   -1187.95448071 Ry
     smearing contrib. (-TS)   =       0.04015065 Ry

     total magnetization       =     0.00 Bohr mag/cell
     absolute magnetization    =    12.54 Bohr mag/cell

     convergence has been achieved in  32 iterations

     Forces acting on atoms (cartesian axes, Ry/au):

     atom    1 type  1   force =     0.00000000    0.00000000    0.00000000
     atom    2 type  2   force =    -0.00001379   -0.00001379   -0.00001379
     atom    3 type  1   force =     0.00000000    0.00000000    0.00000000
     atom    4 type  2   force =    -0.00001379   -0.00001379    0.00001379
     atom    5 type  1   force =     0.00000000    0.00000000    0.00000000
     atom    6 type  2   force =    -0.00001379    0.00001379   -0.00001379
     atom    7 type  1   force =     0.00000000    0.00000000    0.00000000
     atom    8 type  2   force =    -0.00001379    0.00001379    0.00001379
     atom    9 type  1   force =     0.00000000    0.00000000    0.00000000
     atom   10 type  2   force =     0.00001379   -0.00001379   -0.00001379
     atom   11 type  1   force =     0.00000000    0.00000000    0.00000000
     atom   12 type  2   force =     0.00001379   -0.00001379    0.00001379
     atom   13 type  1   force =     0.00000000    0.00000000    0.00000000
     atom   14 type  2   force =     0.00001379    0.00001379   -0.00001379
     atom   15 type  1   force =     0.00000000    0.00000000    0.00000000
     atom   16 type  2   force =     0.00001379    0.00001379    0.00001379

     Total force =     0.000068     Total SCF correction =     0.000484
     SCF correction compared to forces is large: reduce conv_thr to get better values


     Computing stress (Cartesian axis) and pressure

          total   stress  (Ry/bohr**3)                   (kbar)     P=  -16.89
  -0.00011481   0.00000000   0.00000000        -16.89      0.00      0.00
   0.00000000  -0.00011481   0.00000000          0.00    -16.89      0.00
   0.00000000   0.00000000  -0.00011481          0.00      0.00    -16.89


     Writing output data file NxocaHSIfLoqVjpB.save/
 
     init_run     :      7.48s CPU      7.79s WALL (       1 calls)
     electrons    :    993.79s CPU   1015.17s WALL (       1 calls)
     forces       :      2.24s CPU      2.38s WALL (       1 calls)
     stress       :      9.49s CPU      9.59s WALL (       1 calls)

     Called by init_run:
     wfcinit      :      6.73s CPU      6.95s WALL (       1 calls)
     potinit      :      0.30s CPU      0.32s WALL (       1 calls)
     hinit0       :      0.26s CPU      0.29s WALL (       1 calls)

     Called by electrons:
     c_bands      :    913.17s CPU    930.73s WALL (      33 calls)
     sum_band     :     69.84s CPU     72.77s WALL (      33 calls)
     v_of_rho     :      0.81s CPU      0.87s WALL (      33 calls)
     newd         :      1.78s CPU      2.17s WALL (      33 calls)
     PAW_pot      :      8.13s CPU      8.52s WALL (      33 calls)
     mix_rho      :      0.25s CPU      0.27s WALL (      33 calls)

     Called by c_bands:
     init_us_2    :      5.20s CPU      5.28s WALL (    4830 calls)
     cegterg      :    884.91s CPU    902.19s WALL (    2310 calls)

     Called by sum_band:
     sum_band:bec :      0.75s CPU      0.76s WALL (    2310 calls)
     addusdens    :      3.39s CPU      3.84s WALL (      33 calls)

     Called by *egterg:
     h_psi        :    325.88s CPU    336.50s WALL (   11763 calls)
     s_psi        :     25.59s CPU     25.71s WALL (   11763 calls)
     g_psi        :      1.33s CPU      1.34s WALL (    9383 calls)
     cdiaghg      :    434.01s CPU    435.18s WALL (   11623 calls)

     Called by h_psi:
     h_psi:pot    :    323.78s CPU    334.37s WALL (   11763 calls)
     h_psi:calbec :     28.60s CPU     31.73s WALL (   11763 calls)
     vloc_psi     :    268.38s CPU    275.71s WALL (   11763 calls)
     add_vuspsi   :     26.71s CPU     26.86s WALL (   11763 calls)

     General routines
     calbec       :     39.92s CPU     44.26s WALL (   14423 calls)
     fft          :      0.62s CPU      0.70s WALL (     867 calls)
     ffts         :      0.06s CPU      0.07s WALL (     132 calls)
     fftw         :    298.24s CPU    306.31s WALL ( 1978684 calls)
     interpolate  :      0.08s CPU      0.09s WALL (      66 calls)
 
     Parallel routines
     fft_scatt_xy :     24.45s CPU     25.11s WALL ( 1979683 calls)
     fft_scatt_yz :    172.18s CPU    177.09s WALL ( 1979683 calls)
 
     PWSCF        : 16m56.33s CPU    17m25.15s WALL

 
   This run was terminated on:   3:46:36  16Jun2020            

=------------------------------------------------------------------------------=
   JOB DONE.
=------------------------------------------------------------------------------=
