--------------------------------------------------------------------------
WARNING: No preset parameters were found for the device that Open MPI
detected:

  Local host:            bear-pg0206u20b
  Device name:           mlx5_0
  Device vendor ID:      0x02c9
  Device vendor part ID: 4123

Default device parameters will be used, which may result in lower
performance.  You can edit any of the files specified by the
btl_openib_device_param_files MCA parameter to set values for your
device.

NOTE: You can turn off this warning by setting the MCA parameter
      btl_openib_warn_no_device_params_found to 0.
--------------------------------------------------------------------------
--------------------------------------------------------------------------
WARNING: There was an error initializing an OpenFabrics device.

  Local host:   bear-pg0206u20b
  Local device: mlx5_0
--------------------------------------------------------------------------

     Program PWSCF v.6.3 starts on 16Jun2020 at  3:13:30 

     This program is part of the open-source Quantum ESPRESSO suite
     for quantum simulation of materials; please cite
         "P. Giannozzi et al., J. Phys.:Condens. Matter 21 395502 (2009);
         "P. Giannozzi et al., J. Phys.:Condens. Matter 29 465901 (2017);
          URL http://www.quantum-espresso.org", 
     in publications or presentations arising from this work. More details at
     http://www.quantum-espresso.org/quote

     Parallel version (MPI & OpenMP), running on      20 processor cores
     Number of MPI processes:                20
     Threads/MPI process:                     1

     MPI processes distributed on     1 nodes
     R & G space division:  proc/nbgrp/npool/nimage =      20
     Reading input from wd/eos/eos_009.in
Warning: card &IONS ignored
Warning: card ION_DYNAMICS = 'BFGS', ignored
Warning: card / ignored
Warning: card &CELL ignored
Warning: card CELL_DYNAMICS = 'BFGS', ignored
Warning: card CELL_FACTOR = 2.0, ignored
Warning: card PRESS = 0.0, ignored
Warning: card / ignored

     Current dimensions of program PWSCF are:
     Max number of different atomic species (ntypx) = 10
     Max number of k-points (npk) =  40000
     Max angular momentum in pseudopotentials (lmaxx) =  3
     Message from routine read_upf::
     Pseudo file /rds/homes/b/bxp912/pp/Cr.pbe-spn-kjpaw_psl.1.0.0.UPF has been successfully fixed on the fly.
To avoid this message in the future you can permanently fix 
 your pseudo files following instructions given in: 
https://gitlab.com/QEF/q-e/blob/master/upftools/how_to_fix_upf.md
               file Cr.pbe-spn-kjpaw_psl.1.0.0.UPF: wavefunction(s)  3S 3P 3D renormalized
     Message from routine read_upf::
     Pseudo file /rds/homes/b/bxp912/pp/Cr.pbe-spn-kjpaw_psl.1.0.0.UPF has been successfully fixed on the fly.
To avoid this message in the future you can permanently fix 
 your pseudo files following instructions given in: 
https://gitlab.com/QEF/q-e/blob/master/upftools/how_to_fix_upf.md
               file Cr.pbe-spn-kjpaw_psl.1.0.0.UPF: wavefunction(s)  3S 3P 3D renormalized

     Subspace diagonalization in iterative solution of the eigenvalue problem:
     a serial algorithm will be used

     Found symmetry operation: I + (  0.0000  0.0000  0.5000)
     This is a supercell, fractional translations are disabled
 
     Parallelization info
     --------------------
     sticks:   dense  smooth     PW     G-vecs:    dense   smooth      PW
     Min         199     130     37                 9407     5052     757
     Max         200     131     38                 9410     5055     760
     Sum        3985    2617    749               188183   101073   15155
 


     bravais-lattice index     =            0
     lattice parameter (alat)  =      10.7442  a.u.
     unit-cell volume          =    1250.9373 (a.u.)^3
     number of atoms/cell      =           16
     number of atomic types    =            2
     number of electrons       =       224.00
     number of Kohn-Sham states=          134
     kinetic-energy cutoff     =      71.0000  Ry
     charge density cutoff     =     430.0000  Ry
     convergence threshold     =      1.0E-06
     mixing beta               =       0.1000
     number of iterations used =           10  plain     mixing
     Exchange-correlation      = SLA PW PBX PBC ( 1  4  3  4 0 0)

     celldm(1)=  10.744168  celldm(2)=   0.000000  celldm(3)=   0.000000
     celldm(4)=   0.000000  celldm(5)=   0.000000  celldm(6)=   0.000000

     crystal axes: (cart. coord. in units of alat)
               a(1) = (   1.002857   0.000000   0.000000 )  
               a(2) = (   0.000000   1.002857   0.000000 )  
               a(3) = (   0.000000   0.000000   1.002857 )  

     reciprocal axes: (cart. coord. in units 2 pi/alat)
               b(1) = (  0.997151  0.000000  0.000000 )  
               b(2) = (  0.000000  0.997151  0.000000 )  
               b(3) = (  0.000000  0.000000  0.997151 )  


     PseudoPot. # 1 for Cr read from file:
     /rds/homes/b/bxp912/pp/Cr.pbe-spn-kjpaw_psl.1.0.0.UPF
     MD5 check sum: cb1c17117da000fe5e03c4f1a6841d9c
     Pseudo is Projector augmented-wave + core cor, Zval = 14.0
     Generated using "atomic" code by A. Dal Corso v.5.1
     Shape of augmentation charge: PSQ
     Using radial grid of 1183 points,  6 beta functions with: 
                l(1) =   0
                l(2) =   0
                l(3) =   1
                l(4) =   1
                l(5) =   2
                l(6) =   2
     Q(r) pseudized with 0 coefficients 


     PseudoPot. # 2 for Cr read from file:
     /rds/homes/b/bxp912/pp/Cr.pbe-spn-kjpaw_psl.1.0.0.UPF
     MD5 check sum: cb1c17117da000fe5e03c4f1a6841d9c
     Pseudo is Projector augmented-wave + core cor, Zval = 14.0
     Generated using "atomic" code by A. Dal Corso v.5.1
     Shape of augmentation charge: PSQ
     Using radial grid of 1183 points,  6 beta functions with: 
                l(1) =   0
                l(2) =   0
                l(3) =   1
                l(4) =   1
                l(5) =   2
                l(6) =   2
     Q(r) pseudized with 0 coefficients 


     atomic species   valence    mass     pseudopotential
        Cr1           14.00    55.84500     Cr( 1.00)
        Cr2           14.00    55.84500     Cr( 1.00)

     Starting magnetic structure 
     atomic species   magnetization
        Cr1          0.300
        Cr2         -0.300

     48 Sym. Ops., with inversion, found



   Cartesian axes

     site n.     atom                  positions (alat units)
         1           Cr1 tau(   1) = (   0.0000000   0.0000000   0.0000000  )
         2           Cr2 tau(   2) = (   0.2507143   0.2507143   0.2507140  )
         3           Cr1 tau(   3) = (   0.0000000   0.0000000   0.5014281  )
         4           Cr2 tau(   4) = (   0.2507143   0.2507143   0.7521431  )
         5           Cr1 tau(   5) = (   0.0000000   0.5014288   0.0000000  )
         6           Cr2 tau(   6) = (   0.2507143   0.7521431   0.2507140  )
         7           Cr1 tau(   7) = (   0.0000000   0.5014288   0.5014281  )
         8           Cr2 tau(   8) = (   0.2507143   0.7521431   0.7521431  )
         9           Cr1 tau(   9) = (   0.5014288   0.0000000   0.0000000  )
        10           Cr2 tau(  10) = (   0.7521431   0.2507143   0.2507140  )
        11           Cr1 tau(  11) = (   0.5014288   0.0000000   0.5014281  )
        12           Cr2 tau(  12) = (   0.7521431   0.2507143   0.7521431  )
        13           Cr1 tau(  13) = (   0.5014288   0.5014288   0.0000000  )
        14           Cr2 tau(  14) = (   0.7521431   0.7521431   0.2507140  )
        15           Cr1 tau(  15) = (   0.5014288   0.5014288   0.5014281  )
        16           Cr2 tau(  16) = (   0.7521431   0.7521431   0.7521431  )

     number of k points=    35  Marzari-Vanderbilt smearing, width (Ry)=  0.0400
                       cart. coord. in units 2pi/alat
        k(    1) = (   0.0553973   0.0553973   0.0553973), wk =   0.0109739
        k(    2) = (   0.0553973   0.0553973   0.1661918), wk =   0.0329218
        k(    3) = (   0.0553973   0.0553973   0.2769864), wk =   0.0329218
        k(    4) = (   0.0553973   0.0553973   0.3877809), wk =   0.0329218
        k(    5) = (   0.0553973   0.0553973  -0.4985755), wk =   0.0164609
        k(    6) = (   0.0553973   0.1661918   0.1661918), wk =   0.0329218
        k(    7) = (   0.0553973   0.1661918   0.2769864), wk =   0.0658436
        k(    8) = (   0.0553973   0.1661918   0.3877809), wk =   0.0658436
        k(    9) = (   0.0553973   0.1661918  -0.4985755), wk =   0.0329218
        k(   10) = (   0.0553973   0.2769864   0.2769864), wk =   0.0329218
        k(   11) = (   0.0553973   0.2769864   0.3877809), wk =   0.0658436
        k(   12) = (   0.0553973   0.2769864  -0.4985755), wk =   0.0329218
        k(   13) = (   0.0553973   0.3877809   0.3877809), wk =   0.0329218
        k(   14) = (   0.0553973   0.3877809  -0.4985755), wk =   0.0329218
        k(   15) = (   0.0553973  -0.4985755  -0.4985755), wk =   0.0082305
        k(   16) = (   0.1661918   0.1661918   0.1661918), wk =   0.0109739
        k(   17) = (   0.1661918   0.1661918   0.2769864), wk =   0.0329218
        k(   18) = (   0.1661918   0.1661918   0.3877809), wk =   0.0329218
        k(   19) = (   0.1661918   0.1661918  -0.4985755), wk =   0.0164609
        k(   20) = (   0.1661918   0.2769864   0.2769864), wk =   0.0329218
        k(   21) = (   0.1661918   0.2769864   0.3877809), wk =   0.0658436
        k(   22) = (   0.1661918   0.2769864  -0.4985755), wk =   0.0329218
        k(   23) = (   0.1661918   0.3877809   0.3877809), wk =   0.0329218
        k(   24) = (   0.1661918   0.3877809  -0.4985755), wk =   0.0329218
        k(   25) = (   0.1661918  -0.4985755  -0.4985755), wk =   0.0082305
        k(   26) = (   0.2769864   0.2769864   0.2769864), wk =   0.0109739
        k(   27) = (   0.2769864   0.2769864   0.3877809), wk =   0.0329218
        k(   28) = (   0.2769864   0.2769864  -0.4985755), wk =   0.0164609
        k(   29) = (   0.2769864   0.3877809   0.3877809), wk =   0.0329218
        k(   30) = (   0.2769864   0.3877809  -0.4985755), wk =   0.0329218
        k(   31) = (   0.2769864  -0.4985755  -0.4985755), wk =   0.0082305
        k(   32) = (   0.3877809   0.3877809   0.3877809), wk =   0.0109739
        k(   33) = (   0.3877809   0.3877809  -0.4985755), wk =   0.0164609
        k(   34) = (   0.3877809  -0.4985755  -0.4985755), wk =   0.0082305
        k(   35) = (  -0.4985755  -0.4985755  -0.4985755), wk =   0.0013717

     Dense  grid:   188183 G-vectors     FFT dimensions: (  72,  72,  72)

     Smooth grid:   101073 G-vectors     FFT dimensions: (  60,  60,  60)

     Estimated max dynamical RAM per process >     144.04 MB

     Estimated total dynamical RAM >       2.81 GB
     Generating pointlists ...
     new r_m :   0.1791 (alat units)  1.9246 (a.u.) for type    1
     new r_m :   0.1791 (alat units)  1.9246 (a.u.) for type    2

     Check: negative/imaginary core charge=   -0.000009    0.000000

     Initial potential from superposition of free atoms

     starting charge  223.98764, renormalised to  224.00000
     Starting wfcs are  160 randomized atomic wfcs
     Checking if some PAW data can be deallocated... 

     total cpu time spent up to now is        9.3 secs

     Self-consistent Calculation

     iteration #  1     ecut=    71.00 Ry     beta= 0.10
     Davidson diagonalization with overlap
     ethr =  1.00E-02,  avg # of iterations =  3.3

     Threshold (ethr) on eigenvalues was too large:
     Diagonalizing with lowered threshold

     Davidson diagonalization with overlap
     ethr =  7.63E-04,  avg # of iterations =  3.5

     total cpu time spent up to now is       56.4 secs

     total energy              =   -3970.60405482 Ry
     Harris-Foulkes estimate   =   -3970.51090589 Ry
     estimated scf accuracy    <       1.78384668 Ry

     total magnetization       =    -0.00 Bohr mag/cell
     absolute magnetization    =    39.10 Bohr mag/cell

     iteration #  2     ecut=    71.00 Ry     beta= 0.10
     Davidson diagonalization with overlap
     ethr =  7.96E-04,  avg # of iterations =  1.0

     total cpu time spent up to now is       72.0 secs

     total energy              =   -3971.03745907 Ry
     Harris-Foulkes estimate   =   -3970.61459025 Ry
     estimated scf accuracy    <       1.34866476 Ry

     total magnetization       =     0.00 Bohr mag/cell
     absolute magnetization    =    39.14 Bohr mag/cell

     iteration #  3     ecut=    71.00 Ry     beta= 0.10
     Davidson diagonalization with overlap
     ethr =  6.02E-04,  avg # of iterations =  2.9

     total cpu time spent up to now is       96.7 secs

     total energy              =   -3971.27802050 Ry
     Harris-Foulkes estimate   =   -3971.23789484 Ry
     estimated scf accuracy    <       0.31865662 Ry

     total magnetization       =    -0.00 Bohr mag/cell
     absolute magnetization    =    37.84 Bohr mag/cell

     iteration #  4     ecut=    71.00 Ry     beta= 0.10
     Davidson diagonalization with overlap
     ethr =  1.42E-04,  avg # of iterations =  2.1

     total cpu time spent up to now is      114.9 secs

     total energy              =   -3971.29224086 Ry
     Harris-Foulkes estimate   =   -3971.28807793 Ry
     estimated scf accuracy    <       0.46265510 Ry

     total magnetization       =    -0.00 Bohr mag/cell
     absolute magnetization    =    38.23 Bohr mag/cell

     iteration #  5     ecut=    71.00 Ry     beta= 0.10
     Davidson diagonalization with overlap
     ethr =  1.42E-04,  avg # of iterations =  5.3

     total cpu time spent up to now is      147.8 secs

     total energy              =   -3971.42339239 Ry
     Harris-Foulkes estimate   =   -3971.41859831 Ry
     estimated scf accuracy    <       0.04176191 Ry

     total magnetization       =     0.00 Bohr mag/cell
     absolute magnetization    =    31.33 Bohr mag/cell

     iteration #  6     ecut=    71.00 Ry     beta= 0.10
     Davidson diagonalization with overlap
     ethr =  1.86E-05,  avg # of iterations =  3.2

     total cpu time spent up to now is      169.3 secs

     total energy              =   -3971.41720414 Ry
     Harris-Foulkes estimate   =   -3971.42480967 Ry
     estimated scf accuracy    <       0.03824303 Ry

     total magnetization       =     0.00 Bohr mag/cell
     absolute magnetization    =    31.12 Bohr mag/cell

     iteration #  7     ecut=    71.00 Ry     beta= 0.10
     Davidson diagonalization with overlap
     ethr =  1.71E-05,  avg # of iterations =  1.0

     total cpu time spent up to now is      184.8 secs

     total energy              =   -3971.44279228 Ry
     Harris-Foulkes estimate   =   -3971.41781546 Ry
     estimated scf accuracy    <       0.04833210 Ry

     total magnetization       =     0.00 Bohr mag/cell
     absolute magnetization    =    31.49 Bohr mag/cell

     iteration #  8     ecut=    71.00 Ry     beta= 0.10
     Davidson diagonalization with overlap
     ethr =  1.71E-05,  avg # of iterations =  6.3

     total cpu time spent up to now is      226.1 secs

     total energy              =   -3971.49591662 Ry
     Harris-Foulkes estimate   =   -3971.49004821 Ry
     estimated scf accuracy    <       0.02497345 Ry

     total magnetization       =    -0.00 Bohr mag/cell
     absolute magnetization    =    26.14 Bohr mag/cell

     iteration #  9     ecut=    71.00 Ry     beta= 0.10
     Davidson diagonalization with overlap
     ethr =  1.11E-05,  avg # of iterations =  1.5

     total cpu time spent up to now is      242.9 secs

     total energy              =   -3971.50457644 Ry
     Harris-Foulkes estimate   =   -3971.49697039 Ry
     estimated scf accuracy    <       0.01337374 Ry

     total magnetization       =    -0.00 Bohr mag/cell
     absolute magnetization    =    25.59 Bohr mag/cell

     iteration # 10     ecut=    71.00 Ry     beta= 0.10
     Davidson diagonalization with overlap
     ethr =  5.97E-06,  avg # of iterations =  4.6

     total cpu time spent up to now is      273.1 secs

     total energy              =   -3971.51618979 Ry
     Harris-Foulkes estimate   =   -3971.51016155 Ry
     estimated scf accuracy    <       0.01016653 Ry

     total magnetization       =    -0.00 Bohr mag/cell
     absolute magnetization    =    23.73 Bohr mag/cell

     iteration # 11     ecut=    71.00 Ry     beta= 0.10
     Davidson diagonalization with overlap
     ethr =  4.54E-06,  avg # of iterations =  4.1

     total cpu time spent up to now is      299.4 secs

     total energy              =   -3971.52327787 Ry
     Harris-Foulkes estimate   =   -3971.51899446 Ry
     estimated scf accuracy    <       0.00729870 Ry

     total magnetization       =    -0.00 Bohr mag/cell
     absolute magnetization    =    22.35 Bohr mag/cell

     iteration # 12     ecut=    71.00 Ry     beta= 0.10
     Davidson diagonalization with overlap
     ethr =  3.26E-06,  avg # of iterations =  5.7

     total cpu time spent up to now is      336.8 secs

     total energy              =   -3971.53015242 Ry
     Harris-Foulkes estimate   =   -3971.52835646 Ry
     estimated scf accuracy    <       0.00367354 Ry

     total magnetization       =     0.00 Bohr mag/cell
     absolute magnetization    =    20.50 Bohr mag/cell

     iteration # 13     ecut=    71.00 Ry     beta= 0.10
     Davidson diagonalization with overlap
     ethr =  1.64E-06,  avg # of iterations =  4.1

     total cpu time spent up to now is      361.8 secs

     total energy              =   -3971.53052924 Ry
     Harris-Foulkes estimate   =   -3971.53069188 Ry
     estimated scf accuracy    <       0.00236814 Ry

     total magnetization       =     0.00 Bohr mag/cell
     absolute magnetization    =    19.94 Bohr mag/cell

     iteration # 14     ecut=    71.00 Ry     beta= 0.10
     Davidson diagonalization with overlap
     ethr =  1.06E-06,  avg # of iterations =  1.3

     total cpu time spent up to now is      377.9 secs

     total energy              =   -3971.53213964 Ry
     Harris-Foulkes estimate   =   -3971.53056977 Ry
     estimated scf accuracy    <       0.00274033 Ry

     total magnetization       =     0.00 Bohr mag/cell
     absolute magnetization    =    20.00 Bohr mag/cell

     iteration # 15     ecut=    71.00 Ry     beta= 0.10
     Davidson diagonalization with overlap
     ethr =  1.06E-06,  avg # of iterations =  4.5

     total cpu time spent up to now is      406.6 secs

     total energy              =   -3971.53396395 Ry
     Harris-Foulkes estimate   =   -3971.53281008 Ry
     estimated scf accuracy    <       0.00211371 Ry

     total magnetization       =     0.00 Bohr mag/cell
     absolute magnetization    =    19.33 Bohr mag/cell

     iteration # 16     ecut=    71.00 Ry     beta= 0.10
     Davidson diagonalization with overlap
     ethr =  9.44E-07,  avg # of iterations =  4.3

     total cpu time spent up to now is      435.5 secs

     total energy              =   -3971.53572273 Ry
     Harris-Foulkes estimate   =   -3971.53451196 Ry
     estimated scf accuracy    <       0.00157044 Ry

     total magnetization       =     0.00 Bohr mag/cell
     absolute magnetization    =    18.79 Bohr mag/cell

     iteration # 17     ecut=    71.00 Ry     beta= 0.10
     Davidson diagonalization with overlap
     ethr =  7.01E-07,  avg # of iterations =  4.6

     total cpu time spent up to now is      467.2 secs

     total energy              =   -3971.53661806 Ry
     Harris-Foulkes estimate   =   -3971.53712845 Ry
     estimated scf accuracy    <       0.00109034 Ry

     total magnetization       =     0.00 Bohr mag/cell
     absolute magnetization    =    17.77 Bohr mag/cell

     iteration # 18     ecut=    71.00 Ry     beta= 0.10
     Davidson diagonalization with overlap
     ethr =  4.87E-07,  avg # of iterations =  5.9

     total cpu time spent up to now is      507.3 secs

     total energy              =   -3971.54027776 Ry
     Harris-Foulkes estimate   =   -3971.54015112 Ry
     estimated scf accuracy    <       0.00095615 Ry

     total magnetization       =     0.00 Bohr mag/cell
     absolute magnetization    =    16.11 Bohr mag/cell

     iteration # 19     ecut=    71.00 Ry     beta= 0.10
     Davidson diagonalization with overlap
     ethr =  4.27E-07,  avg # of iterations =  4.2

     total cpu time spent up to now is      536.9 secs

     total energy              =   -3971.54123749 Ry
     Harris-Foulkes estimate   =   -3971.54107001 Ry
     estimated scf accuracy    <       0.00057576 Ry

     total magnetization       =     0.00 Bohr mag/cell
     absolute magnetization    =    15.32 Bohr mag/cell

     iteration # 20     ecut=    71.00 Ry     beta= 0.10
     Davidson diagonalization with overlap
     ethr =  2.57E-07,  avg # of iterations =  4.2

     total cpu time spent up to now is      565.6 secs

     total energy              =   -3971.54098069 Ry
     Harris-Foulkes estimate   =   -3971.54154800 Ry
     estimated scf accuracy    <       0.00044031 Ry

     total magnetization       =     0.00 Bohr mag/cell
     absolute magnetization    =    14.82 Bohr mag/cell

     iteration # 21     ecut=    71.00 Ry     beta= 0.10
     Davidson diagonalization with overlap
     ethr =  1.97E-07,  avg # of iterations =  5.2

     total cpu time spent up to now is      602.0 secs

     total energy              =   -3971.53923588 Ry
     Harris-Foulkes estimate   =   -3971.54237524 Ry
     estimated scf accuracy    <       0.00029020 Ry

     total magnetization       =     0.00 Bohr mag/cell
     absolute magnetization    =    13.76 Bohr mag/cell

     iteration # 22     ecut=    71.00 Ry     beta= 0.10
     Davidson diagonalization with overlap
     ethr =  1.30E-07,  avg # of iterations =  5.8

     total cpu time spent up to now is      646.8 secs

     total energy              =   -3971.54071553 Ry
     Harris-Foulkes estimate   =   -3971.54312358 Ry
     estimated scf accuracy    <       0.00015614 Ry

     total magnetization       =     0.00 Bohr mag/cell
     absolute magnetization    =    11.96 Bohr mag/cell

     iteration # 23     ecut=    71.00 Ry     beta= 0.10
     Davidson diagonalization with overlap
     ethr =  6.97E-08,  avg # of iterations =  5.9

     total cpu time spent up to now is      694.1 secs

     total energy              =   -3971.54338333 Ry
     Harris-Foulkes estimate   =   -3971.54332398 Ry
     estimated scf accuracy    <       0.00007448 Ry

     total magnetization       =     0.00 Bohr mag/cell
     absolute magnetization    =    10.49 Bohr mag/cell

     iteration # 24     ecut=    71.00 Ry     beta= 0.10
     Davidson diagonalization with overlap
     ethr =  3.33E-08,  avg # of iterations =  2.4

     total cpu time spent up to now is      714.1 secs

     total energy              =   -3971.53827922 Ry
     Harris-Foulkes estimate   =   -3971.54339143 Ry
     estimated scf accuracy    <       0.00002480 Ry

     total magnetization       =     0.00 Bohr mag/cell
     absolute magnetization    =    10.50 Bohr mag/cell

     iteration # 25     ecut=    71.00 Ry     beta= 0.10
     Davidson diagonalization with overlap
     ethr =  1.11E-08,  avg # of iterations =  6.4

     total cpu time spent up to now is      765.8 secs

     total energy              =   -3971.54296190 Ry
     Harris-Foulkes estimate   =   -3971.54311632 Ry
     estimated scf accuracy    <       0.00003834 Ry

     total magnetization       =     0.00 Bohr mag/cell
     absolute magnetization    =    12.51 Bohr mag/cell

     iteration # 26     ecut=    71.00 Ry     beta= 0.10
     Davidson diagonalization with overlap
     ethr =  1.11E-08,  avg # of iterations =  5.8

     total cpu time spent up to now is      810.5 secs

     total energy              =   -3971.54225548 Ry
     Harris-Foulkes estimate   =   -3971.54325954 Ry
     estimated scf accuracy    <       0.00002170 Ry

     total magnetization       =    -0.00 Bohr mag/cell
     absolute magnetization    =    12.02 Bohr mag/cell

     iteration # 27     ecut=    71.00 Ry     beta= 0.10
     Davidson diagonalization with overlap
     ethr =  9.69E-09,  avg # of iterations =  5.9

     total cpu time spent up to now is      864.2 secs

     total energy              =   -3971.54320043 Ry
     Harris-Foulkes estimate   =   -3971.54340659 Ry
     estimated scf accuracy    <       0.00000305 Ry

     total magnetization       =    -0.00 Bohr mag/cell
     absolute magnetization    =    11.04 Bohr mag/cell

     iteration # 28     ecut=    71.00 Ry     beta= 0.10
     Davidson diagonalization with overlap
     ethr =  1.36E-09,  avg # of iterations =  6.1
 
     Magnetic moment per site:
     atom:    1    charge:   12.2252    magn:    0.6189    constr:    0.0000
     atom:    2    charge:   12.2255    magn:   -0.6180    constr:    0.0000
     atom:    3    charge:   12.2254    magn:    0.6180    constr:    0.0000
     atom:    4    charge:   12.2255    magn:   -0.6180    constr:    0.0000
     atom:    5    charge:   12.2254    magn:    0.6180    constr:    0.0000
     atom:    6    charge:   12.2255    magn:   -0.6180    constr:    0.0000
     atom:    7    charge:   12.2256    magn:    0.6177    constr:    0.0000
     atom:    8    charge:   12.2255    magn:   -0.6180    constr:    0.0000
     atom:    9    charge:   12.2254    magn:    0.6180    constr:    0.0000
     atom:   10    charge:   12.2255    magn:   -0.6180    constr:    0.0000
     atom:   11    charge:   12.2256    magn:    0.6177    constr:    0.0000
     atom:   12    charge:   12.2255    magn:   -0.6180    constr:    0.0000
     atom:   13    charge:   12.2256    magn:    0.6177    constr:    0.0000
     atom:   14    charge:   12.2255    magn:   -0.6180    constr:    0.0000
     atom:   15    charge:   12.2256    magn:    0.6179    constr:    0.0000
     atom:   16    charge:   12.2255    magn:   -0.6180    constr:    0.0000

     total cpu time spent up to now is      920.2 secs

     End of self-consistent calculation

 ------ SPIN UP ------------


          k = 0.0554 0.0554 0.0554 ( 12704 PWs)   bands (ev):

   -52.6006 -52.5444 -52.5442 -52.5442 -52.5276 -52.5274 -52.5274 -52.5117
   -51.8775 -51.8775 -51.8775 -51.8610 -51.8610 -51.8610 -51.8505 -51.8449
   -24.1880 -24.1880 -24.1880 -24.1845 -24.1845 -24.1845 -23.9840 -23.9840
   -23.9840 -23.9581 -23.9511 -23.9511 -23.9397 -23.9397 -23.9328 -23.8112
   -23.8112 -23.8112 -23.8050 -23.8050 -23.8050 -23.7885 -23.7885 -23.7885
   -23.3201 -23.3201 -23.3197 -23.2931 -23.2931 -23.2863 -23.1460 -23.1458
   -23.1458 -23.1421 -23.1421 -23.1419 -23.1313 -23.1313 -23.1309 -23.0759
   -23.0759 -23.0757 -23.0720 -23.0719 -23.0719 -23.0374 -23.0301 -23.0301
    11.6300  15.0204  15.0204  15.0204  15.1072  15.1072  15.1073  15.1947
    15.1947  15.2649  15.2649  15.2650  15.7251  15.7251  15.7251  16.8863
    16.9501  16.9501  17.0351  17.0351  17.0352  17.0507  17.0508  17.0508
    17.3634  17.3634  17.3634  17.3960  17.3960  17.4147  17.9667  17.9667
    17.9668  18.5545  18.5545  18.6082  18.7498  18.7499  18.7499  18.8547
    18.8547  18.8548  19.2705  19.2705  19.2706  19.4627  19.4628  19.4628
    20.0039  20.0039  20.0039  20.1540  20.1540  20.1540  20.3943  20.3943
    20.3944  20.6200  20.6200  20.6201  20.6345  20.6345  20.6347  20.6611
    20.6611  20.7262  20.7262  20.7262  20.8049  20.8049

          k = 0.0554 0.0554 0.1662 ( 12680 PWs)   bands (ev):

   -52.5973 -52.5478 -52.5433 -52.5432 -52.5286 -52.5284 -52.5265 -52.5126
   -51.8766 -51.8766 -51.8758 -51.8620 -51.8620 -51.8601 -51.8520 -51.8459
   -24.1775 -24.1775 -24.1764 -24.1730 -24.1652 -24.1651 -23.9973 -23.9973
   -23.9831 -23.9760 -23.9699 -23.9464 -23.9411 -23.9327 -23.9235 -23.8422
   -23.8421 -23.8186 -23.8145 -23.8048 -23.8048 -23.7980 -23.7895 -23.7895
   -23.3031 -23.2961 -23.2959 -23.2872 -23.2757 -23.2662 -23.1470 -23.1468
   -23.1414 -23.1375 -23.1349 -23.1349 -23.1337 -23.1325 -23.1322 -23.0871
   -23.0869 -23.0851 -23.0824 -23.0738 -23.0738 -23.0561 -23.0360 -23.0337
    11.7656  14.7127  15.0632  15.0632  15.1247  15.1652  15.1653  15.2216
    15.2644  15.2725  15.3092  15.3093  15.7544  15.7545  15.9770  16.7690
    16.9064  16.9109  16.9672  17.0144  17.0285  17.0917  17.0917  17.1387
    17.1387  17.2382  17.3351  17.3351  17.5496  17.5589  17.8368  17.8368
    18.3280  18.5228  18.5457  18.5670  18.5672  18.6633  18.6770  18.8438
    18.9227  18.9227  19.0911  19.0911  19.4162  19.5670  19.5672  19.5901
    19.5902  19.6480  19.8578  19.9042  19.9116  19.9116  20.0324  20.3595
    20.3595  20.5413  20.5414  20.5675  20.6112  20.6708  20.6709  20.6985
    20.7487  20.7999  20.8020  20.8311  20.8338  20.8339

          k = 0.0554 0.0554 0.2770 ( 12650 PWs)   bands (ev):

   -52.5912 -52.5544 -52.5414 -52.5413 -52.5305 -52.5303 -52.5247 -52.5144
   -51.8747 -51.8747 -51.8725 -51.8639 -51.8639 -51.8582 -51.8548 -51.8477
   -24.1557 -24.1557 -24.1542 -24.1515 -24.1305 -24.1305 -24.0219 -24.0219
   -24.0067 -24.0025 -23.9806 -23.9538 -23.9225 -23.9191 -23.9098 -23.8956
   -23.8955 -23.8323 -23.8317 -23.8165 -23.8028 -23.8028 -23.7914 -23.7914
   -23.2712 -23.2703 -23.2576 -23.2573 -23.2447 -23.2356 -23.1611 -23.1459
   -23.1457 -23.1347 -23.1344 -23.1248 -23.1248 -23.1224 -23.1184 -23.1070
   -23.1068 -23.1038 -23.1028 -23.0885 -23.0799 -23.0799 -23.0475 -23.0443
    12.0315  14.0954  15.1425  15.1425  15.2743  15.2744  15.3243  15.3647
    15.3647  15.4024  15.4174  15.4420  15.7672  15.7673  16.0509  16.5608
    16.5634  16.8100  16.8746  16.9778  16.9869  16.9895  17.2174  17.2174
    17.2968  17.2968  17.3590  17.3590  17.7636  17.7636  17.8043  17.8240
    18.2829  18.2830  18.4987  18.5122  18.5313  18.5313  18.5319  18.5757
    18.7782  18.9758  18.9758  19.0366  19.2803  19.2803  19.4188  19.4188
    19.4445  19.4831  19.5276  19.7477  19.7478  19.8866  19.9428  20.3845
    20.4244  20.4246  20.5552  20.5553  20.6373  20.7562  20.7562  20.7704
    20.7854  20.7970  20.8036  20.8086  21.0798  21.1313

          k = 0.0554 0.0554 0.3878 ( 12631 PWs)   bands (ev):

   -52.5828 -52.5632 -52.5389 -52.5387 -52.5330 -52.5328 -52.5223 -52.5168
   -51.8722 -51.8722 -51.8681 -51.8664 -51.8664 -51.8588 -51.8558 -51.8502
   -24.1255 -24.1255 -24.1227 -24.1211 -24.0820 -24.0820 -24.0544 -24.0544
   -24.0447 -24.0427 -23.9760 -23.9619 -23.9589 -23.9589 -23.9001 -23.8978
   -23.8920 -23.8537 -23.8508 -23.8413 -23.8002 -23.8002 -23.7941 -23.7941
   -23.2455 -23.2280 -23.2142 -23.2140 -23.2068 -23.1998 -23.1872 -23.1435
   -23.1433 -23.1397 -23.1394 -23.1336 -23.1334 -23.1320 -23.1310 -23.1303
   -23.1129 -23.1129 -23.1032 -23.0991 -23.0891 -23.0891 -23.0637 -23.0599
    12.4177  13.4782  15.2422  15.2423  15.3814  15.3814  15.4202  15.4202
    15.6008  15.6063  15.6077  15.7085  15.7085  15.7514  15.9762  16.1939
    16.2624  16.5119  16.8720  16.8950  16.9343  16.9441  17.4059  17.4060
    17.5188  17.5188  17.5281  17.5281  17.8145  17.8145  18.0255  18.0256
    18.1441  18.1632  18.1632  18.1639  18.3933  18.3933  18.4851  18.5168
    18.5194  18.5220  18.6911  18.6911  18.9136  19.0147  19.0204  19.2709
    19.4108  19.7475  19.7475  19.9597  19.9598  20.1205  20.1873  20.2598
    20.2598  20.3041  20.3844  20.3845  20.6768  20.7580  20.7903  20.7914
    20.8717  20.8830  20.9717  21.0863  21.1185  21.1297

          k = 0.0554 0.0554-0.4986 ( 12666 PWs)   bands (ev):

   -52.5732 -52.5730 -52.5361 -52.5359 -52.5358 -52.5356 -52.5197 -52.5194
   -51.8695 -51.8695 -51.8691 -51.8691 -51.8635 -51.8632 -51.8532 -51.8528
   -24.0905 -24.0905 -24.0902 -24.0902 -24.0846 -24.0845 -24.0843 -24.0843
   -24.0235 -24.0234 -24.0232 -24.0232 -23.9698 -23.9696 -23.8777 -23.8774
   -23.8717 -23.8715 -23.8700 -23.8697 -23.7973 -23.7973 -23.7970 -23.7970
   -23.2170 -23.2167 -23.1796 -23.1793 -23.1727 -23.1725 -23.1724 -23.1722
   -23.1680 -23.1677 -23.1635 -23.1633 -23.1404 -23.1402 -23.1401 -23.1399
   -23.1007 -23.1007 -23.1005 -23.1005 -23.0830 -23.0827 -23.0791 -23.0788
    12.9077  12.9079  15.3339  15.3339  15.3341  15.3341  15.5782  15.5782
    15.5783  15.5783  15.8094  15.8096  15.8719  15.8722  15.9261  15.9263
    16.1222  16.1225  16.8950  16.8952  16.9060  16.9062  17.6429  17.6430
    17.6431  17.6431  17.7606  17.7607  17.7608  17.7608  17.9408  17.9408
    17.9410  17.9410  18.2215  18.2215  18.2216  18.2216  18.4885  18.4886
    18.5153  18.5155  18.5533  18.5533  18.5655  18.5656  19.0809  19.0810
    19.7888  19.7890  20.0354  20.0354  20.0355  20.0355  20.1772  20.1774
    20.1774  20.1775  20.5683  20.5684  20.7053  20.7055  20.7196  20.7199
    20.7875  20.7878  20.9800  20.9803  20.9966  20.9969

          k = 0.0554 0.1662 0.1662 ( 12667 PWs)   bands (ev):

   -52.5942 -52.5467 -52.5466 -52.5422 -52.5296 -52.5276 -52.5274 -52.5136
   -51.8756 -51.8749 -51.8749 -51.8629 -51.8611 -51.8611 -51.8534 -51.8469
   -24.1729 -24.1668 -24.1667 -24.1551 -24.1551 -24.1414 -24.0084 -23.9974
   -23.9973 -23.9908 -23.9746 -23.9546 -23.9423 -23.9294 -23.9100 -23.8600
   -23.8433 -23.8432 -23.8138 -23.8138 -23.8137 -23.7996 -23.7996 -23.7910
   -23.2860 -23.2858 -23.2843 -23.2761 -23.2626 -23.2435 -23.1548 -23.1449
   -23.1446 -23.1387 -23.1386 -23.1332 -23.1259 -23.1257 -23.1232 -23.1028
   -23.0941 -23.0941 -23.0824 -23.0823 -23.0781 -23.0698 -23.0410 -23.0330
    11.8990  14.7740  14.7740  15.0472  15.1692  15.1692  15.2624  15.2777
    15.2777  15.3340  15.3484  15.3630  15.7975  16.0109  16.0109  16.6731
    16.8453  16.9418  16.9686  16.9686  17.0674  17.0675  17.1097  17.1097
    17.1170  17.2563  17.2872  17.3420  17.4478  17.6096  17.7013  18.1237
    18.1238  18.4510  18.4651  18.4651  18.5113  18.5247  18.7407  18.7905
    19.1043  19.1044  19.1356  19.1357  19.1667  19.2128  19.4303  19.4303
    19.6301  19.6561  19.6562  19.6993  19.6993  19.7251  20.1604  20.1605
    20.4380  20.5519  20.5584  20.5585  20.5804  20.6712  20.6731  20.6883
    20.6883  20.7928  20.8027  20.9662  20.9783  21.0499

          k = 0.0554 0.1662 0.2770 ( 12655 PWs)   bands (ev):

   -52.5883 -52.5530 -52.5445 -52.5403 -52.5318 -52.5294 -52.5257 -52.5154
   -51.8737 -51.8734 -51.8719 -51.8644 -51.8629 -51.8592 -51.8559 -51.8487
   -24.1556 -24.1467 -24.1459 -24.1356 -24.1220 -24.1042 -24.0292 -24.0235
   -24.0160 -24.0002 -23.9961 -23.9660 -23.9276 -23.9169 -23.9034 -23.8949
   -23.8876 -23.8473 -23.8298 -23.8189 -23.8163 -23.8110 -23.8024 -23.7940
   -23.2728 -23.2648 -23.2570 -23.2435 -23.2352 -23.2134 -23.1670 -23.1596
   -23.1501 -23.1382 -23.1369 -23.1239 -23.1230 -23.1142 -23.1116 -23.1113
   -23.1110 -23.1099 -23.1095 -23.0984 -23.0834 -23.0710 -23.0520 -23.0390
    12.1607  14.1767  14.8740  15.0494  15.2504  15.3708  15.3840  15.4070
    15.4361  15.4649  15.4947  15.4964  15.8350  16.0162  16.0952  16.5254
    16.5912  16.7463  16.9133  17.0247  17.0446  17.0597  17.1384  17.1825
    17.2117  17.2527  17.2735  17.4422  17.5924  17.6533  17.7859  17.9836
    18.1883  18.3027  18.3138  18.3825  18.3862  18.4577  18.4983  18.6555
    18.7334  18.8655  18.9331  19.1156  19.1327  19.2094  19.2528  19.3019
    19.3194  19.4689  19.4818  19.7856  19.7975  19.9261  19.9865  20.2769
    20.4122  20.4539  20.5226  20.5666  20.5931  20.5969  20.7252  20.7417
    20.7738  20.8048  20.8612  20.9345  21.0462  21.0516

          k = 0.0554 0.1662 0.3878 ( 12634 PWs)   bands (ev):

   -52.5802 -52.5614 -52.5415 -52.5378 -52.5348 -52.5320 -52.5233 -52.5178
   -51.8713 -51.8712 -51.8680 -51.8665 -51.8654 -51.8595 -51.8568 -51.8512
   -24.1280 -24.1196 -24.1169 -24.1079 -24.0759 -24.0573 -24.0571 -24.0561
   -24.0482 -24.0361 -23.9925 -23.9768 -23.9605 -23.9425 -23.9031 -23.8988
   -23.8789 -23.8579 -23.8482 -23.8447 -23.8141 -23.8071 -23.8063 -23.7980
   -23.2519 -23.2331 -23.2228 -23.2063 -23.2012 -23.1949 -23.1806 -23.1605
   -23.1571 -23.1567 -23.1515 -23.1369 -23.1352 -23.1346 -23.1325 -23.1207
   -23.1053 -23.1008 -23.1007 -23.0896 -23.0866 -23.0773 -23.0674 -23.0518
    12.5401  13.5770  14.9734  15.0547  15.3503  15.4722  15.5268  15.5827
    15.6472  15.6511  15.6970  15.7989  15.7990  15.9295  16.0284  16.2433
    16.2795  16.5147  16.9014  16.9734  16.9816  17.0039  17.2729  17.3453
    17.3709  17.3886  17.4391  17.5763  17.6866  17.8346  17.9678  18.0699
    18.0704  18.0998  18.1397  18.1952  18.3163  18.3304  18.3333  18.3599
    18.4034  18.4679  18.5973  18.6789  18.7500  18.8215  19.0962  19.3950
    19.5833  19.7465  19.7907  19.9733  19.9838  19.9934  20.1082  20.1825
    20.2536  20.2983  20.3908  20.4437  20.6408  20.6565  20.7397  20.8106
    20.8269  20.8289  20.8635  20.8882  21.0170  21.0506

          k = 0.0554 0.1662-0.4986 ( 12642 PWs)   bands (ev):

   -52.5710 -52.5707 -52.5383 -52.5380 -52.5350 -52.5347 -52.5207 -52.5204
   -51.8691 -51.8687 -51.8685 -51.8681 -51.8638 -51.8635 -51.8541 -51.8538
   -24.0938 -24.0936 -24.0886 -24.0884 -24.0833 -24.0830 -24.0739 -24.0737
   -24.0205 -24.0203 -24.0007 -24.0006 -23.9861 -23.9859 -23.8777 -23.8775
   -23.8744 -23.8741 -23.8636 -23.8634 -23.8106 -23.8104 -23.8027 -23.8024
   -23.2248 -23.2247 -23.1938 -23.1937 -23.1885 -23.1883 -23.1719 -23.1717
   -23.1664 -23.1661 -23.1566 -23.1564 -23.1489 -23.1487 -23.1352 -23.1349
   -23.0923 -23.0922 -23.0877 -23.0875 -23.0859 -23.0856 -23.0695 -23.0693
    13.0201  13.0204  15.0361  15.0363  15.4375  15.4376  15.6800  15.6801
    15.7685  15.7686  15.8607  15.8609  15.9423  15.9426  15.9657  15.9659
    16.1588  16.1592  16.9268  16.9270  16.9644  16.9645  17.5072  17.5074
    17.5628  17.5630  17.5851  17.5851  17.6423  17.6425  17.9956  17.9957
    18.0153  18.0153  18.2266  18.2267  18.2774  18.2775  18.3098  18.3098
    18.3428  18.3428  18.4224  18.4224  18.4375  18.4377  19.2680  19.2681
    19.8956  19.8958  19.9388  19.9388  20.0758  20.0760  20.1891  20.1892
    20.2200  20.2201  20.2788  20.2788  20.6237  20.6239  20.6927  20.6930
    20.8260  20.8263  20.9351  20.9353  20.9585  20.9587

          k = 0.0554 0.2770 0.2770 ( 12636 PWs)   bands (ev):

   -52.5828 -52.5504 -52.5502 -52.5385 -52.5346 -52.5277 -52.5275 -52.5172
   -51.8718 -51.8710 -51.8710 -51.8654 -51.8611 -51.8611 -51.8580 -51.8505
   -24.1445 -24.1300 -24.1299 -24.1057 -24.1057 -24.0651 -24.0432 -24.0328
   -24.0236 -24.0235 -24.0063 -23.9822 -23.9263 -23.9257 -23.9063 -23.8800
   -23.8769 -23.8767 -23.8304 -23.8256 -23.8254 -23.8233 -23.8233 -23.7988
   -23.2676 -23.2516 -23.2513 -23.2199 -23.2151 -23.1854 -23.1749 -23.1746
   -23.1715 -23.1545 -23.1440 -23.1293 -23.1250 -23.1250 -23.1225 -23.1225
   -23.0994 -23.0966 -23.0964 -23.0923 -23.0921 -23.0657 -23.0616 -23.0385
    12.4136  14.3236  14.3236  14.9535  15.4542  15.4542  15.5453  15.5652
    15.5781  15.5948  15.5949  15.6531  15.9255  16.1096  16.1097  16.4544
    16.6692  16.7142  16.7142  16.9385  17.1208  17.1208  17.1791  17.1791
    17.1858  17.2596  17.2737  17.4318  17.4957  17.6544  17.8049  18.0715
    18.0715  18.1956  18.1957  18.2113  18.2374  18.2614  18.3215  18.4509
    18.6485  18.6485  18.8348  18.8349  18.9025  18.9900  18.9901  19.1188
    19.6039  19.6040  19.6582  19.8973  19.9176  19.9176  20.1182  20.2746
    20.2748  20.4049  20.5056  20.5057  20.5699  20.6147  20.6147  20.6720
    20.6932  20.7452  20.8190  20.9146  20.9780  21.0515

          k = 0.0554 0.2770 0.3878 ( 12649 PWs)   bands (ev):

   -52.5753 -52.5580 -52.5466 -52.5383 -52.5359 -52.5301 -52.5252 -52.5196
   -51.8696 -51.8693 -51.8678 -51.8667 -51.8636 -51.8609 -51.8586 -51.8530
   -24.1223 -24.1089 -24.1072 -24.0827 -24.0644 -24.0626 -24.0573 -24.0556
   -24.0273 -24.0198 -24.0179 -23.9983 -23.9669 -23.9184 -23.9081 -23.8906
   -23.8701 -23.8679 -23.8507 -23.8435 -23.8353 -23.8286 -23.8196 -23.8053
   -23.2530 -23.2368 -23.2317 -23.2029 -23.1931 -23.1900 -23.1809 -23.1804
   -23.1793 -23.1787 -23.1564 -23.1409 -23.1406 -23.1289 -23.1262 -23.1087
   -23.1076 -23.0912 -23.0881 -23.0830 -23.0768 -23.0752 -23.0662 -23.0455
    12.7783  13.7635  14.5062  14.8377  15.5525  15.6272  15.7287  15.7289
    15.7342  15.7356  15.8679  15.8874  15.9505  16.0369  16.0575  16.2950
    16.4037  16.5129  16.9406  16.9793  17.0455  17.1027  17.1154  17.2081
    17.2382  17.3171  17.3655  17.3998  17.6983  17.7820  17.8145  17.9331
    17.9553  18.0294  18.0683  18.1511  18.1631  18.1856  18.1862  18.2748
    18.3474  18.3950  18.4285  18.5144  18.5351  18.6164  19.2580  19.3018
    19.7962  19.8161  19.9102  19.9742  20.0268  20.0539  20.0614  20.1433
    20.2671  20.3040  20.3747  20.4312  20.4616  20.5689  20.6198  20.6982
    20.7089  20.7604  20.7718  20.8400  20.9415  20.9452

          k = 0.0554 0.2770-0.4986 ( 12634 PWs)   bands (ev):

   -52.5669 -52.5666 -52.5426 -52.5423 -52.5332 -52.5329 -52.5225 -52.5223
   -51.8683 -51.8680 -51.8666 -51.8663 -51.8644 -51.8641 -51.8560 -51.8557
   -24.0919 -24.0918 -24.0855 -24.0853 -24.0816 -24.0813 -24.0553 -24.0551
   -24.0161 -24.0158 -24.0112 -24.0111 -23.9673 -23.9672 -23.8808 -23.8805
   -23.8748 -23.8746 -23.8584 -23.8582 -23.8334 -23.8332 -23.8127 -23.8124
   -23.2303 -23.2302 -23.2119 -23.2118 -23.2072 -23.2071 -23.1834 -23.1833
   -23.1643 -23.1641 -23.1640 -23.1638 -23.1295 -23.1294 -23.1278 -23.1275
   -23.0916 -23.0913 -23.0874 -23.0873 -23.0724 -23.0723 -23.0589 -23.0588
    13.2368  13.2371  14.6869  14.6871  15.6262  15.6263  15.8669  15.8670
    15.9009  15.9010  15.9100  15.9102  16.0308  16.0310  16.1214  16.1216
    16.2216  16.2219  16.9767  16.9769  17.0607  17.0608  17.2992  17.2993
    17.3513  17.3516  17.3738  17.3740  17.5840  17.5840  17.9414  17.9415
    18.0122  18.0123  18.0967  18.0968  18.1822  18.1823  18.2087  18.2088
    18.2475  18.2476  18.2720  18.2721  18.3372  18.3374  19.4027  19.4027
    19.8712  19.8713  20.0197  20.0197  20.0721  20.0723  20.1711  20.1713
    20.2396  20.2397  20.2636  20.2637  20.4275  20.4277  20.6362  20.6365
    20.8312  20.8314  20.8779  20.8782  20.8889  20.8892

          k = 0.0554 0.3878 0.3878 ( 12619 PWs)   bands (ev):

   -52.5687 -52.5535 -52.5533 -52.5429 -52.5334 -52.5278 -52.5276 -52.5221
   -51.8675 -51.8675 -51.8669 -51.8668 -51.8628 -51.8611 -51.8611 -51.8555
   -24.1064 -24.0950 -24.0950 -24.0712 -24.0666 -24.0514 -24.0513 -24.0493
   -24.0492 -24.0249 -24.0198 -23.9838 -23.9746 -23.9033 -23.8953 -23.8951
   -23.8802 -23.8612 -23.8566 -23.8565 -23.8526 -23.8355 -23.8354 -23.8149
   -23.2451 -23.2336 -23.2333 -23.2064 -23.2061 -23.2056 -23.2032 -23.1940
   -23.1772 -23.1760 -23.1500 -23.1500 -23.1320 -23.1240 -23.1132 -23.1132
   -23.0964 -23.0962 -23.0871 -23.0861 -23.0660 -23.0658 -23.0601 -23.0456
    13.1190  14.0156  14.0156  14.5839  15.7831  15.8163  15.8164  15.8436
    15.8687  15.9999  16.0000  16.0353  16.0353  16.0838  16.1031  16.2516
    16.4614  16.6778  16.6778  16.9597  17.0991  17.1103  17.1103  17.1864
    17.2038  17.2038  17.2372  17.4057  17.4918  17.5581  17.8353  17.8353
    17.8941  17.9328  17.9668  17.9668  18.0156  18.1163  18.2029  18.2030
    18.2163  18.2271  18.2272  18.3181  18.3485  18.9159  18.9160  19.4074
    19.8899  19.9280  19.9281  20.0413  20.1012  20.1374  20.1374  20.1877
    20.3100  20.3510  20.3512  20.4465  20.4632  20.4634  20.4839  20.5344
    20.5345  20.6335  20.7299  20.8334  20.8473  20.8741

          k = 0.0554 0.3878-0.4986 ( 12600 PWs)   bands (ev):

   -52.5613 -52.5610 -52.5483 -52.5480 -52.5307 -52.5304 -52.5250 -52.5247
   -51.8674 -51.8670 -51.8653 -51.8650 -51.8641 -51.8638 -51.8585 -51.8581
   -24.0825 -24.0823 -24.0816 -24.0815 -24.0803 -24.0800 -24.0384 -24.0384
   -24.0339 -24.0338 -24.0135 -24.0134 -23.9316 -23.9316 -23.8843 -23.8842
   -23.8802 -23.8801 -23.8591 -23.8589 -23.8514 -23.8512 -23.8255 -23.8252
   -23.2289 -23.2289 -23.2248 -23.2248 -23.2218 -23.2217 -23.2035 -23.2034
   -23.1626 -23.1623 -23.1621 -23.1619 -23.1186 -23.1183 -23.1112 -23.1112
   -23.0994 -23.0991 -23.0890 -23.0890 -23.0600 -23.0600 -23.0527 -23.0527
    13.5410  13.5412  14.3008  14.3010  15.8537  15.8538  15.9561  15.9563
    15.9711  15.9712  16.0798  16.0799  16.0936  16.0937  16.2800  16.2803
    16.3803  16.3806  17.0052  17.0053  17.0240  17.0243  17.1128  17.1130
    17.1497  17.1498  17.2228  17.2230  17.6389  17.6390  17.7222  17.7223
    17.8072  17.8073  17.9036  17.9037  18.0418  18.0419  18.0906  18.0907
    18.2243  18.2243  18.2530  18.2531  18.5526  18.5527  19.2256  19.2257
    19.8796  19.8796  20.0756  20.0756  20.1811  20.1812  20.2803  20.2805
    20.3209  20.3210  20.3266  20.3267  20.3325  20.3326  20.5512  20.5515
    20.6725  20.6725  20.6809  20.6812  20.8097  20.8100

          k = 0.0554-0.4986-0.4986 ( 12588 PWs)   bands (ev):

   -52.5549 -52.5547 -52.5546 -52.5545 -52.5280 -52.5277 -52.5276 -52.5275
   -51.8664 -51.8662 -51.8660 -51.8659 -51.8614 -51.8612 -51.8610 -51.8609
   -24.0807 -24.0806 -24.0804 -24.0804 -24.0631 -24.0631 -24.0630 -24.0629
   -24.0185 -24.0185 -24.0183 -24.0183 -23.9007 -23.9007 -23.9005 -23.9005
   -23.8781 -23.8781 -23.8779 -23.8778 -23.8394 -23.8392 -23.8390 -23.8390
   -23.2284 -23.2284 -23.2281 -23.2281 -23.2197 -23.2197 -23.2194 -23.2194
   -23.1616 -23.1615 -23.1613 -23.1612 -23.1087 -23.1086 -23.1084 -23.1083
   -23.0974 -23.0974 -23.0972 -23.0971 -23.0531 -23.0531 -23.0529 -23.0529
    13.9068  13.9069  13.9070  13.9071  15.9838  15.9838  15.9840  15.9841
    16.0322  16.0322  16.0323  16.0324  16.2597  16.2598  16.2599  16.2599
    16.6907  16.6908  16.6910  16.6910  17.0193  17.0194  17.0195  17.0195
    17.1613  17.1615  17.1615  17.1616  17.6763  17.6764  17.6765  17.6766
    17.7478  17.7478  17.7478  17.7478  18.0136  18.0137  18.0138  18.0138
    18.2126  18.2127  18.2128  18.2128  18.8893  18.8893  18.8895  18.8895
    19.9791  19.9791  19.9793  19.9793  20.3471  20.3471  20.3472  20.3473
    20.3827  20.3827  20.3828  20.3828  20.4442  20.4445  20.4445  20.4446
    20.5015  20.5016  20.5017  20.5018  20.7822  20.7824

          k = 0.1662 0.1662 0.1662 ( 12665 PWs)   bands (ev):

   -52.5912 -52.5457 -52.5454 -52.5454 -52.5288 -52.5286 -52.5286 -52.5145
   -51.8741 -51.8741 -51.8741 -51.8619 -51.8619 -51.8619 -51.8546 -51.8478
   -24.1617 -24.1617 -24.1617 -24.1335 -24.1334 -24.1334 -24.0086 -24.0085
   -24.0085 -24.0035 -23.9604 -23.9604 -23.9472 -23.9472 -23.8931 -23.8560
   -23.8560 -23.8560 -23.8238 -23.8238 -23.8238 -23.8018 -23.8017 -23.8017
   -23.2702 -23.2702 -23.2699 -23.2673 -23.2673 -23.2215 -23.1484 -23.1484
   -23.1480 -23.1462 -23.1460 -23.1460 -23.1148 -23.1148 -23.1146 -23.1033
   -23.1033 -23.1031 -23.0984 -23.0801 -23.0800 -23.0800 -23.0392 -23.0392
    12.0307  14.8419  14.8419  14.8419  15.1594  15.1594  15.1594  15.3694
    15.3694  15.3695  15.4132  15.4132  16.0627  16.0627  16.0628  16.5970
    16.9140  16.9140  16.9485  16.9485  16.9485  17.0930  17.0930  17.0930
    17.2159  17.2159  17.2159  17.4000  17.4747  17.4747  17.9497  17.9497
    17.9498  18.3932  18.3933  18.3933  18.4328  18.4328  18.8872  18.8872
    18.8873  18.9149  19.0586  19.0586  19.0586  19.2852  19.2852  19.2852
    19.4438  19.4438  19.4439  19.7810  19.7811  19.7811  20.3848  20.3848
    20.3849  20.4692  20.4692  20.4693  20.5954  20.5954  20.6730  20.6730
    20.6731  20.7957  20.7957  20.9554  20.9554  20.9554

          k = 0.1662 0.1662 0.2770 ( 12632 PWs)   bands (ev):

   -52.5855 -52.5516 -52.5434 -52.5432 -52.5309 -52.5307 -52.5268 -52.5164
   -51.8725 -51.8725 -51.8714 -51.8635 -51.8635 -51.8601 -51.8569 -51.8497
   -24.1452 -24.1452 -24.1398 -24.1181 -24.0986 -24.0986 -24.0295 -24.0295
   -24.0226 -24.0070 -23.9919 -23.9645 -23.9389 -23.9329 -23.8937 -23.8936
   -23.8770 -23.8513 -23.8419 -23.8256 -23.8256 -23.8223 -23.8058 -23.8058
   -23.2621 -23.2561 -23.2438 -23.2436 -23.2374 -23.1947 -23.1717 -23.1554
   -23.1551 -23.1505 -23.1503 -23.1301 -23.1290 -23.1175 -23.1173 -23.1092
   -23.1032 -23.1031 -23.1001 -23.1000 -23.0794 -23.0794 -23.0513 -23.0425
    12.2888  14.2622  14.9546  14.9546  15.1653  15.1653  15.3737  15.5114
    15.5114  15.5414  15.5606  15.5749  16.0982  16.0982  16.1622  16.4975
    16.5961  16.8202  16.8994  16.9860  16.9860  17.0502  17.1470  17.1823
    17.1824  17.2147  17.3795  17.3795  17.5320  17.6916  17.7932  17.7933
    18.1258  18.2014  18.2014  18.2937  18.3391  18.3991  18.5848  18.5848
    18.5910  18.5910  18.8525  18.9891  18.9891  19.0232  19.0751  19.0780
    19.4579  19.5540  19.5540  19.8826  19.8827  20.0407  20.1579  20.3342
    20.3342  20.4481  20.5311  20.5948  20.5949  20.6770  20.6906  20.6979
    20.6980  20.7152  20.7747  20.8034  20.9296  21.0081

          k = 0.1662 0.1662 0.3878 ( 12632 PWs)   bands (ev):

   -52.5777 -52.5597 -52.5405 -52.5403 -52.5339 -52.5337 -52.5244 -52.5188
   -51.8704 -51.8704 -51.8678 -51.8656 -51.8656 -51.8601 -51.8576 -51.8521
   -24.1198 -24.1198 -24.1090 -24.0970 -24.0578 -24.0577 -24.0531 -24.0531
   -24.0464 -24.0311 -24.0021 -23.9802 -23.9452 -23.9451 -23.9131 -23.9115
   -23.8649 -23.8634 -23.8499 -23.8495 -23.8223 -23.8223 -23.8112 -23.8112
   -23.2472 -23.2329 -23.2138 -23.2136 -23.2009 -23.1984 -23.1675 -23.1667
   -23.1665 -23.1651 -23.1507 -23.1505 -23.1336 -23.1334 -23.1284 -23.1225
   -23.1100 -23.0932 -23.0932 -23.0826 -23.0812 -23.0811 -23.0682 -23.0517
    12.6621  13.6781  15.0699  15.0699  15.1707  15.1707  15.6679  15.6862
    15.6863  15.7299  15.7526  15.8614  16.0297  16.0297  16.1090  16.2659
    16.3053  16.5467  16.9118  16.9980  17.0498  17.0716  17.1792  17.1792
    17.3274  17.3275  17.5660  17.5660  17.6769  17.6770  17.7990  17.9630
    18.0575  18.0575  18.1226  18.1226  18.2311  18.2388  18.2684  18.2871
    18.2872  18.3542  18.5229  18.5229  18.5755  18.5772  19.2431  19.2865
    19.7084  19.8310  19.8311  19.9786  20.0176  20.0177  20.1863  20.1863
    20.2386  20.3073  20.3745  20.4391  20.4391  20.6057  20.7346  20.7900
    20.7979  20.8198  20.8897  20.9804  20.9805  21.0321

          k = 0.1662 0.1662-0.4986 ( 12640 PWs)   bands (ev):

   -52.5689 -52.5686 -52.5373 -52.5371 -52.5370 -52.5369 -52.5218 -52.5215
   -51.8682 -51.8682 -51.8678 -51.8678 -51.8641 -51.8638 -51.8550 -51.8547
   -24.0894 -24.0894 -24.0892 -24.0892 -24.0724 -24.0721 -24.0717 -24.0714
   -24.0005 -24.0005 -24.0003 -24.0003 -23.9931 -23.9929 -23.8898 -23.8895
   -23.8807 -23.8804 -23.8541 -23.8539 -23.8172 -23.8172 -23.8169 -23.8169
   -23.2250 -23.2249 -23.2014 -23.2013 -23.1864 -23.1862 -23.1862 -23.1861
   -23.1633 -23.1630 -23.1458 -23.1455 -23.1455 -23.1452 -23.1426 -23.1425
   -23.0886 -23.0883 -23.0857 -23.0857 -23.0857 -23.0856 -23.0658 -23.0657
    13.1334  13.1336  15.1458  15.1459  15.1460  15.1460  15.8720  15.8721
    15.8721  15.8722  15.9524  15.9526  15.9736  15.9739  16.0015  16.0017
    16.2005  16.2008  16.9478  16.9479  17.0214  17.0215  17.4774  17.4774
    17.4776  17.4776  17.5276  17.5276  17.5277  17.5277  17.9956  17.9956
    17.9957  17.9957  18.1593  18.1593  18.1957  18.1957  18.1958  18.1958
    18.2320  18.2320  18.2668  18.2669  18.3000  18.3002  19.3634  19.3635
    19.9830  19.9832  20.0111  20.0112  20.0316  20.0316  20.0317  20.0317
    20.2239  20.2240  20.2240  20.2241  20.6764  20.6767  20.7555  20.7557
    20.8488  20.8491  20.9090  20.9093  20.9248  20.9250

          k = 0.1662 0.2770 0.2770 ( 12637 PWs)   bands (ev):

   -52.5802 -52.5490 -52.5488 -52.5412 -52.5335 -52.5291 -52.5289 -52.5182
   -51.8709 -51.8704 -51.8704 -51.8645 -51.8617 -51.8617 -51.8588 -51.8514
   -24.1337 -24.1253 -24.1253 -24.0878 -24.0878 -24.0624 -24.0418 -24.0336
   -24.0275 -24.0274 -23.9949 -23.9743 -23.9426 -23.9319 -23.9138 -23.8801
   -23.8800 -23.8627 -23.8417 -23.8416 -23.8413 -23.8281 -23.8281 -23.8121
   -23.2518 -23.2407 -23.2405 -23.2216 -23.2212 -23.1778 -23.1776 -23.1726
   -23.1659 -23.1618 -23.1559 -23.1345 -23.1344 -23.1248 -23.1201 -23.1200
   -23.0948 -23.0946 -23.0936 -23.0899 -23.0898 -23.0755 -23.0597 -23.0453
    12.5390  14.4174  14.4174  15.0745  15.0930  15.3877  15.3877  15.6617
    15.6682  15.7082  15.7095  15.7096  16.2056  16.2098  16.2099  16.4597
    16.6847  16.6847  16.7781  16.9349  16.9381  17.1299  17.1300  17.2440
    17.2751  17.2751  17.3014  17.3404  17.5629  17.6172  17.6796  17.9357
    17.9358  18.0906  18.1274  18.1275  18.1924  18.2315  18.3270  18.3825
    18.4415  18.4416  18.6436  18.6437  18.6828  18.7560  18.7561  19.2507
    19.7031  19.7031  19.7377  20.0053  20.0734  20.0734  20.2058  20.3085
    20.4333  20.4333  20.4550  20.4698  20.4700  20.5748  20.6289  20.6289
    20.6437  20.7580  20.8120  20.9082  20.9155  20.9701

          k = 0.1662 0.2770 0.3878 ( 12642 PWs)   bands (ev):

   -52.5730 -52.5564 -52.5453 -52.5384 -52.5371 -52.5318 -52.5265 -52.5208
   -51.8690 -51.8688 -51.8675 -51.8658 -51.8638 -51.8614 -51.8593 -51.8538
   -24.1125 -24.1048 -24.0980 -24.0728 -24.0599 -24.0549 -24.0484 -24.0474
   -24.0215 -24.0208 -24.0180 -23.9923 -23.9526 -23.9220 -23.9215 -23.9158
   -23.8762 -23.8577 -23.8543 -23.8541 -23.8457 -23.8364 -23.8354 -23.8202
   -23.2404 -23.2302 -23.2213 -23.2014 -23.1980 -23.1917 -23.1851 -23.1824
   -23.1816 -23.1674 -23.1505 -23.1376 -23.1358 -23.1340 -23.1307 -23.1145
   -23.1130 -23.0891 -23.0877 -23.0816 -23.0749 -23.0749 -23.0742 -23.0512
    12.8995  13.8693  14.6111  14.9592  15.2433  15.3920  15.6953  15.8223
    15.8398  15.8808  15.9143  15.9788  16.1461  16.1645  16.2035  16.3374
    16.4024  16.5654  16.9372  16.9546  17.0338  17.0649  17.1406  17.1640
    17.2492  17.3631  17.3905  17.4981  17.5359  17.6915  17.7358  17.8327
    17.8648  17.9495  18.0072  18.0413  18.0416  18.1252  18.1302  18.1720
    18.1992  18.2610  18.2763  18.3030  18.3503  18.4246  18.9788  19.3636
    19.9054  19.9373  19.9750  20.0135  20.0981  20.1042  20.1290  20.2133
    20.3199  20.3249  20.3579  20.4684  20.4717  20.5445  20.7104  20.7118
    20.7279  20.8035  20.8384  20.9302  20.9330  20.9708

          k = 0.1662 0.2770-0.4986 ( 12616 PWs)   bands (ev):

   -52.5649 -52.5646 -52.5414 -52.5411 -52.5352 -52.5350 -52.5237 -52.5235
   -51.8676 -51.8672 -51.8665 -51.8661 -51.8645 -51.8642 -51.8567 -51.8564
   -24.0849 -24.0848 -24.0819 -24.0817 -24.0692 -24.0690 -24.0519 -24.0516
   -24.0088 -24.0086 -24.0004 -24.0002 -23.9697 -23.9696 -23.8947 -23.8945
   -23.8904 -23.8902 -23.8526 -23.8525 -23.8422 -23.8420 -23.8289 -23.8287
   -23.2231 -23.2230 -23.2113 -23.2112 -23.2007 -23.2006 -23.1857 -23.1856
   -23.1604 -23.1601 -23.1578 -23.1576 -23.1345 -23.1342 -23.1306 -23.1305
   -23.0940 -23.0937 -23.0865 -23.0864 -23.0762 -23.0761 -23.0613 -23.0612
    13.3516  13.3519  14.8025  14.8027  15.3509  15.3511  16.0079  16.0080
    16.0081  16.0083  16.0453  16.0455  16.0636  16.0637  16.1486  16.1488
    16.2794  16.2796  17.0001  17.0002  17.0958  17.0959  17.2710  17.2712
    17.3017  17.3019  17.4026  17.4028  17.5367  17.5368  17.8514  17.8515
    17.8901  17.8902  18.0515  18.0515  18.0541  18.0542  18.0791  18.0792
    18.0795  18.0796  18.1462  18.1462  18.1913  18.1914  19.2362  19.2362
    20.0073  20.0074  20.0277  20.0277  20.1303  20.1305  20.1864  20.1865
    20.2768  20.2769  20.2796  20.2797  20.6396  20.6399  20.6910  20.6911
    20.8294  20.8296  20.8635  20.8637  20.8859  20.8862

          k = 0.1662 0.3878 0.3878 ( 12640 PWs)   bands (ev):

   -52.5666 -52.5520 -52.5518 -52.5417 -52.5356 -52.5293 -52.5292 -52.5233
   -51.8671 -51.8671 -51.8666 -51.8662 -51.8630 -51.8615 -51.8615 -51.8562
   -24.0962 -24.0857 -24.0856 -24.0651 -24.0549 -24.0460 -24.0459 -24.0390
   -24.0389 -24.0192 -24.0114 -23.9773 -23.9707 -23.9188 -23.9066 -23.9008
   -23.9006 -23.8662 -23.8661 -23.8650 -23.8530 -23.8519 -23.8518 -23.8315
   -23.2309 -23.2237 -23.2235 -23.2044 -23.2005 -23.2002 -23.1977 -23.1830
   -23.1795 -23.1758 -23.1460 -23.1459 -23.1329 -23.1270 -23.1189 -23.1188
   -23.1013 -23.1011 -23.0873 -23.0867 -23.0694 -23.0692 -23.0692 -23.0531
    13.2386  14.1276  14.1276  14.7063  15.4486  15.6943  15.6943  15.9365
    15.9750  16.1360  16.1360  16.1436  16.1436  16.1437  16.2807  16.3491
    16.5206  16.6776  16.6776  16.9519  16.9847  17.1426  17.1426  17.2113
    17.2326  17.2326  17.3595  17.3756  17.3912  17.4646  17.7870  17.7870
    17.7982  17.8062  17.8439  17.8440  17.9782  18.0206  18.0462  18.0561
    18.0562  18.0590  18.0591  18.1718  18.1798  18.6307  18.6308  19.2156
    20.0235  20.0660  20.1018  20.1019  20.1629  20.2579  20.2579  20.2609
    20.3660  20.4633  20.4668  20.4669  20.5498  20.5499  20.5598  20.5598
    20.6603  20.7048  20.7933  20.8477  20.8537  20.8700

          k = 0.1662 0.3878-0.4986 ( 12616 PWs)   bands (ev):

   -52.5594 -52.5592 -52.5469 -52.5467 -52.5326 -52.5323 -52.5264 -52.5262
   -51.8668 -51.8665 -51.8652 -51.8649 -51.8642 -51.8639 -51.8590 -51.8587
   -24.0741 -24.0739 -24.0726 -24.0726 -24.0675 -24.0672 -24.0307 -24.0307
   -24.0282 -24.0280 -24.0020 -24.0019 -23.9363 -23.9362 -23.8972 -23.8970
   -23.8956 -23.8955 -23.8707 -23.8706 -23.8573 -23.8571 -23.8431 -23.8428
   -23.2180 -23.2180 -23.2174 -23.2174 -23.2124 -23.2123 -23.1942 -23.1941
   -23.1617 -23.1614 -23.1592 -23.1590 -23.1231 -23.1228 -23.1161 -23.1161
   -23.1020 -23.1017 -23.0920 -23.0920 -23.0673 -23.0673 -23.0593 -23.0592
    13.6577  13.6580  14.4193  14.4195  15.6165  15.6167  16.0268  16.0270
    16.0564  16.0567  16.0788  16.0790  16.2969  16.2970  16.3839  16.3841
    16.4072  16.4075  17.0237  17.0240  17.0329  17.0330  17.0731  17.0733
    17.1618  17.1618  17.2785  17.2787  17.5752  17.5753  17.5998  17.5999
    17.7078  17.7080  17.8634  17.8635  17.9016  17.9017  17.9719  17.9720
    18.0648  18.0648  18.1085  18.1086  18.3050  18.3050  18.9102  18.9102
    20.1019  20.1019  20.2194  20.2194  20.3055  20.3056  20.3537  20.3539
    20.3651  20.3653  20.3775  20.3777  20.5074  20.5075  20.5791  20.5793
    20.7034  20.7036  20.7938  20.7940  20.8436  20.8437

          k = 0.1662-0.4986-0.4986 ( 12600 PWs)   bands (ev):

   -52.5533 -52.5531 -52.5530 -52.5529 -52.5296 -52.5294 -52.5293 -52.5292
   -51.8660 -51.8659 -51.8657 -51.8656 -51.8617 -51.8615 -51.8613 -51.8612
   -24.0688 -24.0687 -24.0685 -24.0685 -24.0536 -24.0536 -24.0535 -24.0535
   -24.0099 -24.0098 -24.0097 -24.0097 -23.9084 -23.9084 -23.9082 -23.9082
   -23.8918 -23.8918 -23.8916 -23.8916 -23.8553 -23.8552 -23.8550 -23.8550
   -23.2187 -23.2187 -23.2185 -23.2185 -23.2070 -23.2070 -23.2068 -23.2068
   -23.1602 -23.1601 -23.1599 -23.1598 -23.1121 -23.1120 -23.1118 -23.1117
   -23.1025 -23.1024 -23.1022 -23.1022 -23.0616 -23.0616 -23.0614 -23.0614
    14.0252  14.0252  14.0254  14.0255  15.8737  15.8738  15.8739  15.8740
    16.0884  16.0884  16.0886  16.0887  16.4388  16.4389  16.4390  16.4390
    16.7108  16.7109  16.7110  16.7111  16.9968  16.9969  16.9970  16.9970
    17.1984  17.1985  17.1986  17.1986  17.5462  17.5463  17.5464  17.5465
    17.7094  17.7095  17.7095  17.7095  17.8911  17.8912  17.8913  17.8914
    18.0610  18.0610  18.0611  18.0611  18.5797  18.5797  18.5798  18.5798
    20.2442  20.2443  20.2444  20.2444  20.3928  20.3928  20.3929  20.3931
    20.4889  20.4892  20.4892  20.4893  20.5425  20.5426  20.5427  20.5428
    20.5809  20.5809  20.5810  20.5810  20.7742  20.7744

          k = 0.2770 0.2770 0.2770 ( 12641 PWs)   bands (ev):

   -52.5753 -52.5465 -52.5463 -52.5463 -52.5317 -52.5315 -52.5315 -52.5202
   -51.8692 -51.8692 -51.8692 -51.8628 -51.8628 -51.8628 -51.8602 -51.8531
   -24.1129 -24.1129 -24.1128 -24.0575 -24.0575 -24.0575 -24.0368 -24.0366
   -24.0366 -24.0359 -23.9724 -23.9724 -23.9591 -23.9591 -23.8940 -23.8940
   -23.8938 -23.8610 -23.8610 -23.8609 -23.8519 -23.8369 -23.8368 -23.8368
   -23.2241 -23.2241 -23.2227 -23.2227 -23.2224 -23.1815 -23.1815 -23.1812
   -23.1744 -23.1572 -23.1445 -23.1443 -23.1443 -23.1228 -23.1228 -23.1225
   -23.0945 -23.0943 -23.0943 -23.0843 -23.0843 -23.0841 -23.0583 -23.0583
    12.7838  14.5893  14.5893  14.5894  15.3084  15.3084  15.3085  15.8166
    15.8166  15.8627  15.8627  15.8627  16.3570  16.3570  16.3571  16.4731
    16.6695  16.6695  16.6695  16.9543  16.9543  16.9734  17.1903  17.1903
    17.1904  17.4127  17.4127  17.4127  17.4759  17.4759  17.7700  17.7700
    17.7701  17.9881  17.9881  17.9881  18.1030  18.1031  18.1031  18.1749
    18.1749  18.3407  18.3407  18.3407  18.4586  18.4586  18.4586  19.3536
    19.8795  19.8795  19.8795  20.0071  20.2117  20.2118  20.2118  20.3532
    20.3532  20.3533  20.5471  20.5471  20.6132  20.6132  20.6133  20.7570
    20.7570  20.7572  20.7861  20.7861  20.9138  20.9138

          k = 0.2770 0.2770 0.3878 ( 12636 PWs)   bands (ev):

   -52.5686 -52.5532 -52.5430 -52.5428 -52.5351 -52.5349 -52.5289 -52.5229
   -51.8677 -51.8677 -51.8670 -51.8643 -51.8643 -51.8622 -51.8605 -51.8554
   -24.0939 -24.0939 -24.0833 -24.0520 -24.0519 -24.0513 -24.0397 -24.0255
   -24.0184 -24.0184 -24.0093 -23.9855 -23.9416 -23.9381 -23.9298 -23.9298
   -23.8860 -23.8733 -23.8695 -23.8638 -23.8638 -23.8498 -23.8475 -23.8475
   -23.2206 -23.2193 -23.2035 -23.2033 -23.1975 -23.1937 -23.1897 -23.1850
   -23.1848 -23.1498 -23.1496 -23.1426 -23.1338 -23.1336 -23.1248 -23.1222
   -23.1214 -23.0894 -23.0893 -23.0825 -23.0824 -23.0768 -23.0744 -23.0605
    13.1350  14.0695  14.8066  14.8066  15.1936  15.1936  15.6379  15.9744
    16.0164  16.0367  16.0367  16.1222  16.3509  16.3509  16.3525  16.3876
    16.4112  16.6226  16.8536  16.8536  16.9939  17.1168  17.1227  17.2513
    17.2964  17.2965  17.3712  17.5042  17.5042  17.6103  17.6104  17.6410
    17.7863  17.7863  17.8680  17.8680  17.8959  17.9416  17.9660  17.9734
    18.0455  18.0612  18.0612  18.0973  18.1716  18.1716  18.6187  19.1902
    20.0146  20.0562  20.0927  20.0928  20.2720  20.2720  20.2937  20.2938
    20.4092  20.4995  20.5108  20.5114  20.5115  20.5154  20.6715  20.6928
    20.7318  20.8289  20.9029  20.9234  20.9234  20.9561

          k = 0.2770 0.2770-0.4986 ( 12608 PWs)   bands (ev):

   -52.5611 -52.5608 -52.5392 -52.5390 -52.5389 -52.5388 -52.5260 -52.5257
   -51.8662 -51.8662 -51.8658 -51.8658 -51.8647 -51.8644 -51.8581 -51.8578
   -24.0723 -24.0722 -24.0721 -24.0721 -24.0479 -24.0476 -24.0451 -24.0449
   -24.0081 -24.0080 -23.9743 -23.9743 -23.9742 -23.9742 -23.9129 -23.9126
   -23.9060 -23.9058 -23.8577 -23.8576 -23.8574 -23.8574 -23.8573 -23.8572
   -23.2113 -23.2112 -23.2095 -23.2095 -23.1904 -23.1903 -23.1903 -23.1902
   -23.1542 -23.1539 -23.1460 -23.1458 -23.1457 -23.1455 -23.1315 -23.1315
   -23.0988 -23.0985 -23.0844 -23.0844 -23.0844 -23.0843 -23.0659 -23.0658
    13.5728  13.5731  15.0223  15.0223  15.0225  15.0225  16.0306  16.0308
    16.1754  16.1756  16.2109  16.2110  16.2111  16.2111  16.2164  16.2166
    16.3930  16.3932  17.0531  17.0533  17.1382  17.1383  17.1950  17.1950
    17.1952  17.1952  17.4538  17.4538  17.4539  17.4539  17.6147  17.6148
    17.8136  17.8138  17.8406  17.8406  17.8407  17.8407  17.9531  17.9532
    17.9532  17.9532  17.9628  17.9628  18.0036  18.0038  18.8818  18.8818
    20.2371  20.2371  20.2401  20.2403  20.2518  20.2518  20.2519  20.2519
    20.3451  20.3452  20.3453  20.3454  20.6450  20.6453  20.8165  20.8168
    20.8188  20.8190  20.8452  20.8454  20.8739  20.8742

          k = 0.2770 0.3878 0.3878 ( 12623 PWs)   bands (ev):

   -52.5627 -52.5491 -52.5489 -52.5396 -52.5393 -52.5323 -52.5321 -52.5257
   -51.8664 -51.8664 -51.8660 -51.8649 -51.8634 -51.8622 -51.8622 -51.8575
   -24.0765 -24.0687 -24.0687 -24.0518 -24.0374 -24.0373 -24.0349 -24.0192
   -24.0191 -24.0060 -23.9948 -23.9828 -23.9478 -23.9461 -23.9383 -23.9096
   -23.9095 -23.8868 -23.8826 -23.8825 -23.8812 -23.8811 -23.8619 -23.8561
   -23.2069 -23.2067 -23.2057 -23.2018 -23.1907 -23.1905 -23.1890 -23.1832
   -23.1751 -23.1632 -23.1391 -23.1390 -23.1346 -23.1320 -23.1283 -23.1282
   -23.1092 -23.1090 -23.0874 -23.0873 -23.0866 -23.0767 -23.0766 -23.0675
    13.4703  14.3408  14.3409  14.9428  15.0607  15.5217  15.5217  16.1098
    16.1777  16.2222  16.2627  16.2978  16.2978  16.3519  16.3519  16.5672
    16.6337  16.6706  16.6707  16.7924  17.0338  17.1561  17.2058  17.2059
    17.2541  17.2966  17.2966  17.3493  17.4272  17.4770  17.5697  17.6588
    17.6588  17.6959  17.7035  17.7035  17.7283  17.7817  17.7818  17.8468
    17.8468  17.8966  17.9084  17.9392  17.9896  18.2684  18.2685  18.8383
    20.2338  20.2338  20.2494  20.2625  20.3201  20.4162  20.4563  20.4957
    20.4957  20.4977  20.4978  20.5147  20.5976  20.5976  20.6544  20.7136
    20.8262  20.8263  20.8412  20.8459  20.8987  20.9091

          k = 0.2770 0.3878-0.4986 ( 12634 PWs)   bands (ev):

   -52.5560 -52.5557 -52.5443 -52.5440 -52.5361 -52.5358 -52.5291 -52.5288
   -51.8658 -51.8655 -51.8650 -51.8647 -51.8643 -51.8640 -51.8600 -51.8597
   -24.0574 -24.0572 -24.0560 -24.0559 -24.0433 -24.0430 -24.0179 -24.0177
   -24.0170 -24.0169 -23.9813 -23.9812 -23.9449 -23.9449 -23.9202 -23.9200
   -23.9192 -23.9191 -23.8912 -23.8910 -23.8748 -23.8746 -23.8714 -23.8712
   -23.2065 -23.2065 -23.1975 -23.1975 -23.1961 -23.1961 -23.1810 -23.1810
   -23.1574 -23.1571 -23.1528 -23.1525 -23.1315 -23.1312 -23.1257 -23.1257
   -23.1064 -23.1061 -23.0968 -23.0968 -23.0816 -23.0816 -23.0718 -23.0718
    13.8826  13.8829  14.6466  14.6469  15.3198  15.3201  15.9065  15.9067
    16.2454  16.2456  16.2857  16.2859  16.4585  16.4587  16.4793  16.4794
    16.5497  16.5499  17.0174  17.0177  17.0396  17.0398  17.0873  17.0875
    17.1796  17.1797  17.3539  17.3540  17.4036  17.4037  17.5296  17.5296
    17.5952  17.5953  17.6457  17.6458  17.7781  17.7782  17.7907  17.7907
    17.8195  17.8195  17.9013  17.9014  17.9681  17.9682  18.5037  18.5037
    20.3679  20.3681  20.3764  20.3765  20.4349  20.4351  20.4398  20.4400
    20.4804  20.4805  20.5496  20.5496  20.6350  20.6352  20.7468  20.7470
    20.7632  20.7634  20.7886  20.7887  20.8482  20.8484

          k = 0.2770-0.4986-0.4986 ( 12632 PWs)   bands (ev):

   -52.5503 -52.5500 -52.5499 -52.5498 -52.5327 -52.5324 -52.5323 -52.5322
   -51.8655 -51.8653 -51.8651 -51.8650 -51.8622 -51.8621 -51.8619 -51.8617
   -24.0462 -24.0460 -24.0459 -24.0458 -24.0357 -24.0356 -24.0355 -24.0355
   -23.9939 -23.9939 -23.9937 -23.9937 -23.9237 -23.9236 -23.9235 -23.9235
   -23.9164 -23.9164 -23.9162 -23.9162 -23.8833 -23.8832 -23.8830 -23.8830
   -23.2020 -23.2020 -23.2018 -23.2017 -23.1847 -23.1847 -23.1845 -23.1844
   -23.1580 -23.1579 -23.1577 -23.1576 -23.1175 -23.1174 -23.1172 -23.1171
   -23.1120 -23.1120 -23.1118 -23.1117 -23.0775 -23.0775 -23.0773 -23.0773
    14.2531  14.2531  14.2533  14.2534  15.6436  15.6437  15.6438  15.6439
    16.2880  16.2881  16.2882  16.2883  16.6702  16.6703  16.6703  16.6704
    16.7484  16.7485  16.7486  16.7487  16.9593  16.9594  16.9595  16.9595
    17.2630  17.2631  17.2631  17.2632  17.4000  17.4002  17.4002  17.4003
    17.6390  17.6390  17.6390  17.6390  17.6619  17.6619  17.6620  17.6621
    17.8358  17.8359  17.8359  17.8359  18.1788  18.1788  18.1788  18.1788
    20.4429  20.4430  20.4431  20.4431  20.5607  20.5609  20.5610  20.5610
    20.5935  20.5935  20.5936  20.5936  20.6395  20.6395  20.6396  20.6396
    20.7560  20.7562  20.7563  20.7564  20.9024  20.9025

          k = 0.3878 0.3878 0.3878 ( 12637 PWs)   bands (ev):

   -52.5573 -52.5453 -52.5450 -52.5450 -52.5363 -52.5361 -52.5360 -52.5289
   -51.8654 -51.8654 -51.8654 -51.8640 -51.8632 -51.8632 -51.8632 -51.8592
   -24.0491 -24.0491 -24.0490 -24.0310 -24.0308 -24.0308 -24.0159 -23.9911
   -23.9911 -23.9911 -23.9801 -23.9801 -23.9718 -23.9718 -23.9201 -23.9201
   -23.9199 -23.9145 -23.9145 -23.9144 -23.9010 -23.9009 -23.9009 -23.8700
   -23.1981 -23.1882 -23.1882 -23.1879 -23.1805 -23.1805 -23.1803 -23.1744
   -23.1744 -23.1385 -23.1383 -23.1383 -23.1374 -23.1370 -23.1370 -23.1367
   -23.1116 -23.1115 -23.1115 -23.0877 -23.0877 -23.0877 -23.0877 -23.0875
    13.7983  14.6319  14.6319  14.6319  15.2743  15.2743  15.2744  16.0432
    16.3343  16.3343  16.4543  16.4543  16.4544  16.6293  16.6293  16.6293
    16.6565  16.6565  16.6566  16.7831  17.1039  17.1039  17.2754  17.2754
    17.2755  17.3043  17.3043  17.3921  17.3922  17.3922  17.4200  17.4200
    17.4200  17.5928  17.5928  17.5928  17.6010  17.6010  17.6011  17.6533
    17.6533  17.6533  17.8148  17.8148  17.9214  17.9214  17.9215  18.4396
    20.3746  20.3746  20.3746  20.5620  20.5657  20.5657  20.5659  20.5797
    20.5797  20.6078  20.6078  20.6078  20.6536  20.6536  20.6536  20.7754
    20.7754  20.8377  20.8378  20.8378  20.8594  20.8595

          k = 0.3878 0.3878-0.4986 ( 12646 PWs)   bands (ev):

   -52.5514 -52.5511 -52.5409 -52.5407 -52.5405 -52.5404 -52.5327 -52.5324
   -51.8649 -51.8645 -51.8644 -51.8644 -51.8641 -51.8641 -51.8614 -51.8610
   -24.0343 -24.0343 -24.0342 -24.0342 -24.0161 -24.0158 -24.0037 -24.0035
   -24.0021 -24.0019 -23.9565 -23.9564 -23.9564 -23.9563 -23.9442 -23.9439
   -23.9426 -23.9424 -23.9141 -23.9141 -23.9139 -23.9139 -23.8926 -23.8925
   -23.1934 -23.1933 -23.1767 -23.1766 -23.1765 -23.1765 -23.1754 -23.1753
   -23.1428 -23.1426 -23.1425 -23.1423 -23.1418 -23.1416 -23.1390 -23.1389
   -23.1123 -23.1120 -23.1010 -23.1010 -23.1009 -23.1009 -23.0880 -23.0880
    14.1971  14.1973  14.9611  14.9612  14.9614  14.9614  15.6654  15.6657
    16.4729  16.4732  16.5516  16.5518  16.5734  16.5734  16.5735  16.5736
    16.7459  16.7461  16.9905  16.9905  16.9907  16.9908  17.1626  17.1627
    17.1881  17.1882  17.3467  17.3469  17.3519  17.3521  17.4413  17.4413
    17.4414  17.4414  17.5612  17.5612  17.5613  17.5613  17.6425  17.6426
    17.6426  17.6426  17.6943  17.6943  17.7068  17.7070  18.1047  18.1047
    20.4839  20.4841  20.5145  20.5145  20.5146  20.5147  20.6549  20.6549
    20.6550  20.6550  20.6832  20.6834  20.7215  20.7217  20.8118  20.8119
    20.8171  20.8173  20.8308  20.8309  20.8311  20.8311

          k = 0.3878-0.4986-0.4986 ( 12632 PWs)   bands (ev):

   -52.5462 -52.5459 -52.5458 -52.5458 -52.5368 -52.5366 -52.5365 -52.5364
   -51.8647 -51.8646 -51.8644 -51.8642 -51.8630 -51.8628 -51.8626 -51.8625
   -24.0151 -24.0150 -24.0149 -24.0148 -24.0103 -24.0103 -24.0101 -24.0101
   -23.9722 -23.9722 -23.9721 -23.9720 -23.9475 -23.9474 -23.9473 -23.9472
   -23.9472 -23.9472 -23.9471 -23.9471 -23.9161 -23.9161 -23.9160 -23.9159
   -23.1823 -23.1823 -23.1821 -23.1821 -23.1574 -23.1573 -23.1571 -23.1570
   -23.1566 -23.1566 -23.1564 -23.1563 -23.1237 -23.1236 -23.1235 -23.1233
   -23.1227 -23.1226 -23.1225 -23.1224 -23.1000 -23.1000 -23.0998 -23.0998
    14.5708  14.5709  14.5711  14.5712  15.3231  15.3231  15.3233  15.3234
    16.5610  16.5610  16.5612  16.5613  16.7987  16.7988  16.7989  16.7990
    16.9096  16.9097  16.9098  16.9098  16.9107  16.9108  16.9109  16.9110
    17.3285  17.3286  17.3287  17.3287  17.3480  17.3481  17.3481  17.3481
    17.4202  17.4203  17.4204  17.4205  17.5470  17.5470  17.5471  17.5471
    17.6124  17.6125  17.6125  17.6126  17.7764  17.7764  17.7764  17.7764
    20.5560  20.5561  20.5562  20.5563  20.6264  20.6265  20.6266  20.6267
    20.7258  20.7259  20.7261  20.7261  20.8077  20.8078  20.8080  20.8081
    20.8181  20.8181  20.8182  20.8182  20.8652  20.8653

          k =-0.4986-0.4986-0.4986 ( 12712 PWs)   bands (ev):

   -52.5418 -52.5413 -52.5413 -52.5413 -52.5412 -52.5411 -52.5411 -52.5411
   -51.8639 -51.8638 -51.8638 -51.8636 -51.8636 -51.8634 -51.8634 -51.8633
   -23.9801 -23.9801 -23.9801 -23.9799 -23.9799 -23.9799 -23.9799 -23.9798
   -23.9798 -23.9798 -23.9798 -23.9798 -23.9797 -23.9797 -23.9797 -23.9796
   -23.9464 -23.9464 -23.9464 -23.9464 -23.9463 -23.9463 -23.9462 -23.9461
   -23.1651 -23.1651 -23.1651 -23.1651 -23.1650 -23.1650 -23.1647 -23.1647
   -23.1276 -23.1276 -23.1276 -23.1275 -23.1275 -23.1274 -23.1274 -23.1274
   -23.1273 -23.1273 -23.1273 -23.1272 -23.1272 -23.1271 -23.1270 -23.1270
    14.9447  14.9448  14.9448  14.9449  14.9449  14.9450  14.9450  14.9451
    16.8551  16.8551  16.8552  16.8552  16.8552  16.8552  16.8553  16.8553
    16.8553  16.8554  16.8554  16.8554  16.8554  16.8555  16.8555  16.8555
    17.4267  17.4267  17.4267  17.4268  17.4268  17.4268  17.4268  17.4268
    17.4459  17.4459  17.4459  17.4459  17.4459  17.4460  17.4460  17.4460
    17.4460  17.4461  17.4461  17.4461  17.4461  17.4461  17.4461  17.4461
    20.6821  20.6821  20.6822  20.6822  20.6823  20.6823  20.6823  20.6824
    20.6824  20.6824  20.6825  20.6825  20.6825  20.6825  20.6825  20.6826
    21.0689  21.0689  21.0689  21.0689  21.0689  21.0690

 ------ SPIN DOWN ----------


          k = 0.0554 0.0554 0.0554 ( 12704 PWs)   bands (ev):

   -52.6007 -52.5444 -52.5444 -52.5444 -52.5276 -52.5276 -52.5276 -52.5118
   -51.8778 -51.8778 -51.8773 -51.8613 -51.8613 -51.8608 -51.8506 -51.8450
   -24.1882 -24.1881 -24.1881 -24.1846 -24.1846 -24.1845 -23.9842 -23.9842
   -23.9840 -23.9582 -23.9512 -23.9512 -23.9398 -23.9398 -23.9329 -23.8114
   -23.8114 -23.8112 -23.8052 -23.8051 -23.8051 -23.7887 -23.7887 -23.7884
   -23.3201 -23.3200 -23.3200 -23.2932 -23.2932 -23.2864 -23.1462 -23.1459
   -23.1459 -23.1422 -23.1422 -23.1419 -23.1313 -23.1313 -23.1313 -23.0760
   -23.0760 -23.0758 -23.0722 -23.0719 -23.0719 -23.0375 -23.0302 -23.0302
    11.6301  15.0204  15.0204  15.0204  15.1072  15.1072  15.1072  15.1947
    15.1947  15.2650  15.2650  15.2650  15.7251  15.7251  15.7252  16.8863
    16.9500  16.9500  17.0350  17.0351  17.0351  17.0506  17.0506  17.0507
    17.3634  17.3634  17.3634  17.3960  17.3960  17.4147  17.9666  17.9668
    17.9668  18.5544  18.5544  18.6081  18.7497  18.7497  18.7498  18.8546
    18.8547  18.8547  19.2704  19.2704  19.2706  19.4625  19.4627  19.4627
    20.0038  20.0038  20.0038  20.1541  20.1542  20.1543  20.3944  20.3944
    20.3944  20.6199  20.6199  20.6200  20.6344  20.6344  20.6345  20.6610
    20.6610  20.7261  20.7261  20.7261  20.8048  20.8048

          k = 0.0554 0.0554 0.1662 ( 12680 PWs)   bands (ev):

   -52.5974 -52.5479 -52.5434 -52.5434 -52.5286 -52.5286 -52.5266 -52.5127
   -51.8768 -51.8766 -51.8758 -51.8623 -51.8620 -51.8601 -51.8521 -51.8460
   -24.1777 -24.1776 -24.1765 -24.1732 -24.1653 -24.1652 -23.9975 -23.9973
   -23.9832 -23.9761 -23.9700 -23.9465 -23.9412 -23.9328 -23.9236 -23.8423
   -23.8423 -23.8187 -23.8146 -23.8050 -23.8048 -23.7981 -23.7897 -23.7895
   -23.3032 -23.2961 -23.2961 -23.2873 -23.2758 -23.2663 -23.1471 -23.1470
   -23.1415 -23.1376 -23.1352 -23.1349 -23.1338 -23.1324 -23.1324 -23.0871
   -23.0871 -23.0852 -23.0825 -23.0741 -23.0738 -23.0562 -23.0361 -23.0338
    11.7656  14.7128  15.0632  15.0632  15.1247  15.1653  15.1653  15.2215
    15.2644  15.2725  15.3093  15.3093  15.7545  15.7545  15.9770  16.7690
    16.9063  16.9108  16.9672  17.0143  17.0284  17.0916  17.0916  17.1386
    17.1387  17.2381  17.3350  17.3351  17.5496  17.5589  17.8367  17.8369
    18.3280  18.5227  18.5456  18.5670  18.5670  18.6632  18.6769  18.8438
    18.9225  18.9227  19.0909  19.0910  19.4162  19.5670  19.5670  19.5901
    19.5902  19.6479  19.8577  19.9042  19.9116  19.9117  20.0325  20.3594
    20.3595  20.5412  20.5412  20.5674  20.6111  20.6708  20.6708  20.6984
    20.7487  20.7998  20.8019  20.8310  20.8337  20.8338

          k = 0.0554 0.0554 0.2770 ( 12650 PWs)   bands (ev):

   -52.5913 -52.5545 -52.5415 -52.5415 -52.5305 -52.5305 -52.5248 -52.5145
   -51.8750 -51.8747 -51.8726 -51.8642 -51.8638 -51.8583 -51.8549 -51.8478
   -24.1559 -24.1557 -24.1543 -24.1516 -24.1306 -24.1306 -24.0221 -24.0219
   -24.0068 -24.0026 -23.9807 -23.9539 -23.9227 -23.9192 -23.9099 -23.8956
   -23.8956 -23.8324 -23.8318 -23.8166 -23.8030 -23.8029 -23.7916 -23.7915
   -23.2713 -23.2703 -23.2575 -23.2575 -23.2448 -23.2357 -23.1612 -23.1459
   -23.1459 -23.1347 -23.1347 -23.1251 -23.1247 -23.1225 -23.1185 -23.1070
   -23.1070 -23.1039 -23.1029 -23.0886 -23.0801 -23.0798 -23.0476 -23.0444
    12.0316  14.0955  15.1425  15.1425  15.2743  15.2743  15.3243  15.3647
    15.3648  15.4024  15.4174  15.4420  15.7673  15.7673  16.0509  16.5608
    16.5634  16.8100  16.8746  16.9777  16.9868  16.9895  17.2173  17.2174
    17.2966  17.2967  17.3590  17.3590  17.7635  17.7637  17.8042  17.8240
    18.2829  18.2829  18.4986  18.5122  18.5311  18.5313  18.5318  18.5757
    18.7781  18.9758  18.9758  19.0366  19.2802  19.2804  19.4187  19.4187
    19.4444  19.4831  19.5276  19.7477  19.7477  19.8865  19.9428  20.3844
    20.4244  20.4244  20.5552  20.5552  20.6372  20.7561  20.7562  20.7703
    20.7853  20.7969  20.8035  20.8085  21.0797  21.1312

          k = 0.0554 0.0554 0.3878 ( 12631 PWs)   bands (ev):

   -52.5829 -52.5633 -52.5389 -52.5389 -52.5330 -52.5330 -52.5224 -52.5169
   -51.8724 -51.8721 -51.8683 -51.8667 -51.8663 -51.8589 -51.8559 -51.8503
   -24.1257 -24.1255 -24.1228 -24.1212 -24.0821 -24.0821 -24.0546 -24.0544
   -24.0448 -24.0428 -23.9761 -23.9620 -23.9590 -23.9590 -23.9002 -23.8979
   -23.8921 -23.8538 -23.8509 -23.8414 -23.8004 -23.8002 -23.7943 -23.7941
   -23.2456 -23.2281 -23.2142 -23.2142 -23.2069 -23.1999 -23.1873 -23.1435
   -23.1435 -23.1398 -23.1395 -23.1337 -23.1335 -23.1321 -23.1312 -23.1304
   -23.1132 -23.1128 -23.1033 -23.0992 -23.0894 -23.0890 -23.0638 -23.0600
    12.4178  13.4783  15.2422  15.2423  15.3814  15.3814  15.4202  15.4202
    15.6008  15.6063  15.6077  15.7085  15.7085  15.7514  15.9762  16.1939
    16.2623  16.5118  16.8719  16.8950  16.9342  16.9441  17.4058  17.4059
    17.5187  17.5188  17.5280  17.5281  17.8144  17.8145  18.0254  18.0256
    18.1441  18.1631  18.1632  18.1638  18.3933  18.3933  18.4850  18.5167
    18.5193  18.5219  18.6910  18.6912  18.9135  19.0147  19.0204  19.2708
    19.4108  19.7474  19.7474  19.9597  19.9597  20.1205  20.1872  20.2597
    20.2597  20.3040  20.3844  20.3844  20.6767  20.7579  20.7903  20.7913
    20.8716  20.8829  20.9716  21.0863  21.1184  21.1297

          k = 0.0554 0.0554-0.4986 ( 12666 PWs)   bands (ev):

   -52.5734 -52.5730 -52.5361 -52.5361 -52.5358 -52.5358 -52.5198 -52.5195
   -51.8697 -51.8694 -51.8694 -51.8691 -51.8637 -51.8632 -51.8533 -51.8529
   -24.0907 -24.0905 -24.0904 -24.0902 -24.0847 -24.0846 -24.0844 -24.0843
   -24.0235 -24.0235 -24.0233 -24.0233 -23.9699 -23.9697 -23.8778 -23.8775
   -23.8718 -23.8715 -23.8701 -23.8698 -23.7975 -23.7974 -23.7972 -23.7970
   -23.2171 -23.2168 -23.1797 -23.1794 -23.1727 -23.1727 -23.1725 -23.1724
   -23.1681 -23.1678 -23.1636 -23.1634 -23.1404 -23.1404 -23.1401 -23.1401
   -23.1010 -23.1007 -23.1007 -23.1003 -23.0831 -23.0828 -23.0792 -23.0789
    12.9077  12.9080  15.3339  15.3340  15.3341  15.3341  15.5782  15.5782
    15.5783  15.5783  15.8094  15.8096  15.8720  15.8722  15.9260  15.9263
    16.1222  16.1224  16.8949  16.8951  16.9059  16.9061  17.6429  17.6429
    17.6430  17.6431  17.7606  17.7606  17.7607  17.7608  17.9408  17.9408
    17.9410  17.9410  18.2214  18.2216  18.2216  18.2218  18.4884  18.4885
    18.5152  18.5154  18.5532  18.5534  18.5655  18.5656  19.0807  19.0809
    19.7888  19.7890  20.0353  20.0353  20.0355  20.0355  20.1772  20.1772
    20.1774  20.1774  20.5682  20.5684  20.7052  20.7054  20.7195  20.7198
    20.7874  20.7877  20.9799  20.9803  20.9966  20.9968

          k = 0.0554 0.1662 0.1662 ( 12667 PWs)   bands (ev):

   -52.5943 -52.5468 -52.5468 -52.5423 -52.5297 -52.5276 -52.5276 -52.5137
   -51.8757 -51.8752 -51.8748 -51.8630 -51.8613 -51.8610 -51.8534 -51.8470
   -24.1730 -24.1669 -24.1668 -24.1553 -24.1551 -24.1415 -24.0085 -23.9975
   -23.9974 -23.9909 -23.9747 -23.9547 -23.9424 -23.9296 -23.9102 -23.8601
   -23.8434 -23.8433 -23.8140 -23.8139 -23.8138 -23.7998 -23.7997 -23.7911
   -23.2861 -23.2860 -23.2844 -23.2762 -23.2627 -23.2436 -23.1549 -23.1449
   -23.1448 -23.1389 -23.1386 -23.1333 -23.1260 -23.1258 -23.1233 -23.1029
   -23.0944 -23.0941 -23.0825 -23.0824 -23.0782 -23.0699 -23.0411 -23.0331
    11.8991  14.7741  14.7741  15.0472  15.1692  15.1692  15.2624  15.2777
    15.2777  15.3340  15.3484  15.3630  15.7975  16.0109  16.0110  16.6730
    16.8453  16.9418  16.9686  16.9686  17.0673  17.0674  17.1096  17.1096
    17.1169  17.2563  17.2872  17.3420  17.4477  17.6095  17.7013  18.1237
[...]
    20.3650  20.3652  20.3774  20.3776  20.5073  20.5074  20.5790  20.5792
    20.7033  20.7036  20.7937  20.7940  20.8435  20.8437

          k = 0.1662-0.4986-0.4986 ( 12600 PWs)   bands (ev):

   -52.5534 -52.5533 -52.5531 -52.5530 -52.5297 -52.5296 -52.5294 -52.5292
   -51.8662 -51.8662 -51.8660 -51.8654 -51.8619 -51.8618 -51.8616 -51.8608
   -24.0689 -24.0688 -24.0686 -24.0685 -24.0537 -24.0537 -24.0535 -24.0535
   -24.0100 -24.0099 -24.0098 -24.0097 -23.9085 -23.9084 -23.9083 -23.9083
   -23.8919 -23.8919 -23.8917 -23.8917 -23.8554 -23.8553 -23.8551 -23.8550
   -23.2189 -23.2188 -23.2186 -23.2186 -23.2072 -23.2071 -23.2068 -23.2068
   -23.1603 -23.1603 -23.1602 -23.1595 -23.1123 -23.1122 -23.1121 -23.1114
   -23.1026 -23.1025 -23.1023 -23.1023 -23.0617 -23.0617 -23.0614 -23.0614
    14.0252  14.0253  14.0255  14.0256  15.8738  15.8738  15.8739  15.8740
    16.0884  16.0884  16.0886  16.0887  16.4388  16.4389  16.4389  16.4390
    16.7108  16.7109  16.7110  16.7111  16.9968  16.9969  16.9969  16.9970
    17.1984  17.1985  17.1986  17.1986  17.5462  17.5462  17.5463  17.5464
    17.7093  17.7093  17.7095  17.7095  17.8911  17.8911  17.8912  17.8914
    18.0609  18.0610  18.0610  18.0611  18.5796  18.5797  18.5797  18.5797
    20.2441  20.2442  20.2443  20.2443  20.3927  20.3927  20.3929  20.3930
    20.4889  20.4890  20.4892  20.4892  20.5423  20.5425  20.5426  20.5429
    20.5807  20.5808  20.5809  20.5809  20.7740  20.7741

          k = 0.2770 0.2770 0.2770 ( 12641 PWs)   bands (ev):

   -52.5754 -52.5465 -52.5465 -52.5465 -52.5317 -52.5317 -52.5317 -52.5203
   -51.8695 -51.8695 -51.8691 -51.8631 -51.8631 -51.8626 -51.8603 -51.8532
   -24.1131 -24.1129 -24.1129 -24.0576 -24.0576 -24.0575 -24.0369 -24.0369
   -24.0366 -24.0360 -23.9725 -23.9725 -23.9592 -23.9592 -23.8941 -23.8941
   -23.8939 -23.8612 -23.8610 -23.8610 -23.8520 -23.8370 -23.8370 -23.8368
   -23.2242 -23.2242 -23.2228 -23.2226 -23.2226 -23.1817 -23.1817 -23.1812
   -23.1745 -23.1573 -23.1446 -23.1443 -23.1443 -23.1229 -23.1227 -23.1227
   -23.0947 -23.0944 -23.0944 -23.0845 -23.0845 -23.0840 -23.0584 -23.0584
    12.7838  14.5894  14.5894  14.5895  15.3084  15.3084  15.3085  15.8166
    15.8166  15.8627  15.8627  15.8627  16.3570  16.3570  16.3570  16.4730
    16.6694  16.6695  16.6695  16.9542  16.9542  16.9734  17.1902  17.1903
    17.1903  17.4126  17.4126  17.4127  17.4759  17.4759  17.7699  17.7700
    17.7700  17.9880  17.9880  17.9882  18.1030  18.1031  18.1031  18.1748
    18.1748  18.3406  18.3406  18.3408  18.4585  18.4585  18.4585  19.3535
    19.8793  19.8795  19.8795  20.0070  20.2116  20.2117  20.2117  20.3531
    20.3531  20.3532  20.5470  20.5470  20.6132  20.6132  20.6132  20.7569
    20.7570  20.7570  20.7860  20.7860  20.9137  20.9138

          k = 0.2770 0.2770 0.3878 ( 12636 PWs)   bands (ev):

   -52.5687 -52.5533 -52.5430 -52.5430 -52.5351 -52.5351 -52.5290 -52.5230
   -51.8680 -51.8678 -51.8671 -51.8646 -51.8642 -51.8623 -51.8606 -51.8555
   -24.0941 -24.0940 -24.0834 -24.0521 -24.0520 -24.0514 -24.0398 -24.0256
   -24.0186 -24.0185 -24.0094 -23.9856 -23.9417 -23.9382 -23.9299 -23.9299
   -23.8861 -23.8734 -23.8697 -23.8639 -23.8638 -23.8499 -23.8477 -23.8475
   -23.2207 -23.2194 -23.2035 -23.2035 -23.1976 -23.1938 -23.1898 -23.1851
   -23.1848 -23.1498 -23.1498 -23.1427 -23.1339 -23.1337 -23.1249 -23.1223
   -23.1215 -23.0896 -23.0893 -23.0827 -23.0824 -23.0769 -23.0745 -23.0606
    13.1351  14.0696  14.8066  14.8067  15.1936  15.1936  15.6379  15.9744
    16.0164  16.0367  16.0367  16.1222  16.3509  16.3509  16.3525  16.3876
    16.4112  16.6225  16.8535  16.8536  16.9939  17.1168  17.1226  17.2513
    17.2963  17.2964  17.3712  17.5041  17.5042  17.6103  17.6103  17.6410
    17.7863  17.7863  17.8678  17.8680  17.8958  17.9415  17.9660  17.9734
    18.0454  18.0611  18.0612  18.0972  18.1715  18.1715  18.6186  19.1901
    20.0145  20.0561  20.0926  20.0928  20.2719  20.2720  20.2936  20.2937
    20.4091  20.4994  20.5107  20.5114  20.5114  20.5153  20.6715  20.6927
    20.7317  20.8289  20.9028  20.9233  20.9233  20.9560

          k = 0.2770 0.2770-0.4986 ( 12608 PWs)   bands (ev):

   -52.5612 -52.5609 -52.5392 -52.5392 -52.5389 -52.5389 -52.5262 -52.5258
   -51.8665 -51.8662 -51.8661 -51.8660 -51.8649 -51.8642 -51.8583 -51.8578
   -24.0724 -24.0723 -24.0723 -24.0721 -24.0480 -24.0477 -24.0453 -24.0450
   -24.0082 -24.0081 -23.9744 -23.9744 -23.9743 -23.9743 -23.9130 -23.9127
   -23.9061 -23.9059 -23.8578 -23.8577 -23.8575 -23.8575 -23.8574 -23.8573
   -23.2114 -23.2113 -23.2096 -23.2095 -23.1905 -23.1905 -23.1903 -23.1903
   -23.1543 -23.1541 -23.1461 -23.1459 -23.1458 -23.1456 -23.1316 -23.1316
   -23.0989 -23.0986 -23.0847 -23.0846 -23.0844 -23.0843 -23.0660 -23.0659
    13.5728  13.5731  15.0223  15.0223  15.0225  15.0226  16.0305  16.0308
    16.1754  16.1756  16.2109  16.2109  16.2110  16.2111  16.2164  16.2166
    16.3930  16.3931  17.0530  17.0532  17.1382  17.1383  17.1949  17.1951
    17.1951  17.1953  17.4537  17.4538  17.4538  17.4539  17.6147  17.6149
    17.8136  17.8138  17.8405  17.8405  17.8406  17.8406  17.9530  17.9531
    17.9531  17.9532  17.9627  17.9628  18.0036  18.0037  18.8817  18.8818
    20.2370  20.2370  20.2400  20.2402  20.2517  20.2518  20.2518  20.2519
    20.3451  20.3452  20.3452  20.3453  20.6450  20.6452  20.8164  20.8167
    20.8187  20.8190  20.8451  20.8453  20.8738  20.8741

          k = 0.2770 0.3878 0.3878 ( 12623 PWs)   bands (ev):

   -52.5628 -52.5491 -52.5491 -52.5398 -52.5394 -52.5323 -52.5323 -52.5258
   -51.8667 -51.8665 -51.8661 -51.8650 -51.8635 -51.8625 -51.8620 -51.8575
   -24.0766 -24.0688 -24.0688 -24.0519 -24.0375 -24.0373 -24.0350 -24.0193
   -24.0192 -24.0061 -23.9949 -23.9829 -23.9479 -23.9462 -23.9384 -23.9097
   -23.9096 -23.8869 -23.8828 -23.8826 -23.8812 -23.8812 -23.8620 -23.8562
   -23.2070 -23.2068 -23.2058 -23.2019 -23.1908 -23.1906 -23.1890 -23.1833
   -23.1752 -23.1633 -23.1392 -23.1390 -23.1347 -23.1321 -23.1285 -23.1282
   -23.1093 -23.1092 -23.0875 -23.0874 -23.0867 -23.0769 -23.0766 -23.0676
    13.4704  14.3409  14.3409  14.9428  15.0608  15.5217  15.5217  16.1098
    16.1777  16.2222  16.2627  16.2977  16.2978  16.3518  16.3520  16.5672
    16.6337  16.6706  16.6706  16.7924  17.0337  17.1560  17.2057  17.2058
    17.2541  17.2965  17.2966  17.3493  17.4272  17.4769  17.5696  17.6587
    17.6589  17.6958  17.7033  17.7035  17.7282  17.7817  17.7818  17.8467
    17.8467  17.8966  17.9083  17.9392  17.9895  18.2684  18.2684  18.8382
    20.2336  20.2338  20.2493  20.2624  20.3200  20.4161  20.4562  20.4956
    20.4957  20.4976  20.4977  20.5146  20.5975  20.5976  20.6543  20.7135
    20.8261  20.8262  20.8411  20.8458  20.8986  20.9090

          k = 0.2770 0.3878-0.4986 ( 12634 PWs)   bands (ev):

   -52.5561 -52.5558 -52.5444 -52.5441 -52.5362 -52.5359 -52.5292 -52.5289
   -51.8660 -51.8658 -51.8652 -51.8649 -51.8644 -51.8638 -51.8601 -51.8596
   -24.0575 -24.0573 -24.0561 -24.0560 -24.0434 -24.0431 -24.0180 -24.0178
   -24.0171 -24.0170 -23.9814 -23.9813 -23.9450 -23.9450 -23.9204 -23.9201
   -23.9193 -23.9192 -23.8913 -23.8911 -23.8750 -23.8746 -23.8715 -23.8713
   -23.2067 -23.2066 -23.1977 -23.1976 -23.1962 -23.1962 -23.1811 -23.1811
   -23.1574 -23.1572 -23.1529 -23.1526 -23.1315 -23.1313 -23.1258 -23.1258
   -23.1065 -23.1062 -23.0969 -23.0969 -23.0817 -23.0816 -23.0719 -23.0719
    13.8826  13.8829  14.6467  14.6469  15.3199  15.3201  15.9065  15.9068
    16.2454  16.2456  16.2857  16.2858  16.4585  16.4587  16.4793  16.4794
    16.5497  16.5499  17.0174  17.0176  17.0396  17.0398  17.0873  17.0874
    17.1795  17.1796  17.3538  17.3539  17.4035  17.4037  17.5295  17.5296
    17.5951  17.5953  17.6456  17.6458  17.7780  17.7782  17.7906  17.7906
    17.8194  17.8195  17.9012  17.9013  17.9681  17.9681  18.5036  18.5036
    20.3679  20.3680  20.3763  20.3765  20.4349  20.4350  20.4397  20.4399
    20.4804  20.4804  20.5495  20.5495  20.6349  20.6351  20.7467  20.7470
    20.7631  20.7634  20.7885  20.7887  20.8481  20.8484

          k = 0.2770-0.4986-0.4986 ( 12632 PWs)   bands (ev):

   -52.5504 -52.5502 -52.5500 -52.5499 -52.5328 -52.5326 -52.5324 -52.5323
   -51.8657 -51.8656 -51.8654 -51.8648 -51.8624 -51.8623 -51.8621 -51.8613
   -24.0463 -24.0462 -24.0460 -24.0459 -24.0358 -24.0358 -24.0356 -24.0356
   -23.9940 -23.9940 -23.9939 -23.9938 -23.9237 -23.9237 -23.9236 -23.9236
   -23.9165 -23.9165 -23.9163 -23.9163 -23.8835 -23.8833 -23.8832 -23.8831
   -23.2021 -23.2021 -23.2019 -23.2019 -23.1849 -23.1848 -23.1845 -23.1845
   -23.1582 -23.1581 -23.1580 -23.1574 -23.1177 -23.1176 -23.1175 -23.1169
   -23.1121 -23.1121 -23.1119 -23.1118 -23.0777 -23.0776 -23.0773 -23.0773
    14.2531  14.2532  14.2534  14.2535  15.6436  15.6437  15.6438  15.6439
    16.2880  16.2881  16.2882  16.2883  16.6702  16.6702  16.6703  16.6704
    16.7484  16.7485  16.7486  16.7487  16.9593  16.9594  16.9594  16.9595
    17.2629  17.2630  17.2631  17.2631  17.4000  17.4001  17.4002  17.4003
    17.6388  17.6389  17.6390  17.6390  17.6618  17.6619  17.6620  17.6621
    17.8357  17.8358  17.8358  17.8359  18.1787  18.1787  18.1787  18.1788
    20.4428  20.4428  20.4429  20.4433  20.5606  20.5608  20.5608  20.5609
    20.5933  20.5934  20.5935  20.5937  20.6393  20.6394  20.6395  20.6396
    20.7559  20.7561  20.7562  20.7565  20.9023  20.9024

          k = 0.3878 0.3878 0.3878 ( 12637 PWs)   bands (ev):

   -52.5575 -52.5452 -52.5452 -52.5452 -52.5363 -52.5362 -52.5362 -52.5290
   -51.8657 -51.8657 -51.8654 -51.8641 -51.8634 -51.8634 -51.8628 -51.8592
   -24.0493 -24.0491 -24.0491 -24.0311 -24.0311 -24.0308 -24.0160 -23.9912
   -23.9912 -23.9911 -23.9802 -23.9802 -23.9719 -23.9719 -23.9202 -23.9202
   -23.9200 -23.9147 -23.9145 -23.9145 -23.9011 -23.9011 -23.9008 -23.8702
   -23.1982 -23.1883 -23.1882 -23.1882 -23.1807 -23.1807 -23.1803 -23.1745
   -23.1745 -23.1386 -23.1384 -23.1384 -23.1376 -23.1371 -23.1369 -23.1369
   -23.1118 -23.1115 -23.1115 -23.0879 -23.0879 -23.0878 -23.0878 -23.0875
    13.7983  14.6319  14.6319  14.6320  15.2744  15.2744  15.2744  16.0432
    16.3343  16.3343  16.4543  16.4543  16.4543  16.6292  16.6293  16.6293
    16.6565  16.6565  16.6566  16.7831  17.1038  17.1038  17.2753  17.2755
    17.2755  17.3042  17.3042  17.3921  17.3921  17.3921  17.4199  17.4199
    17.4199  17.5927  17.5927  17.5927  17.6009  17.6009  17.6011  17.6532
    17.6532  17.6534  17.8147  17.8147  17.9214  17.9214  17.9214  18.4395
    20.3744  20.3746  20.3746  20.5619  20.5656  20.5656  20.5658  20.5796
    20.5796  20.6077  20.6077  20.6077  20.6534  20.6535  20.6535  20.7753
    20.7753  20.8376  20.8377  20.8377  20.8594  20.8594

          k = 0.3878 0.3878-0.4986 ( 12646 PWs)   bands (ev):

   -52.5515 -52.5512 -52.5409 -52.5409 -52.5406 -52.5406 -52.5328 -52.5325
   -51.8650 -51.8650 -51.8647 -51.8644 -51.8644 -51.8637 -51.8615 -51.8609
   -24.0345 -24.0343 -24.0343 -24.0342 -24.0162 -24.0159 -24.0038 -24.0037
   -24.0022 -24.0020 -23.9566 -23.9565 -23.9565 -23.9564 -23.9443 -23.9440
   -23.9427 -23.9425 -23.9143 -23.9142 -23.9141 -23.9139 -23.8927 -23.8926
   -23.1935 -23.1934 -23.1768 -23.1768 -23.1767 -23.1766 -23.1754 -23.1754
   -23.1428 -23.1428 -23.1427 -23.1426 -23.1419 -23.1414 -23.1391 -23.1390
   -23.1124 -23.1121 -23.1012 -23.1012 -23.1009 -23.1009 -23.0881 -23.0881
    14.1971  14.1974  14.9612  14.9612  14.9614  14.9615  15.6654  15.6657
    16.4730  16.4731  16.5516  16.5518  16.5734  16.5734  16.5735  16.5735
    16.7458  16.7460  16.9904  16.9906  16.9906  16.9908  17.1626  17.1627
    17.1880  17.1882  17.3467  17.3469  17.3519  17.3521  17.4412  17.4413
    17.4413  17.4413  17.5611  17.5612  17.5612  17.5613  17.6425  17.6425
    17.6426  17.6426  17.6942  17.6943  17.7068  17.7069  18.1046  18.1046
    20.4838  20.4840  20.5144  20.5145  20.5145  20.5146  20.6548  20.6548
    20.6549  20.6549  20.6832  20.6833  20.7214  20.7217  20.8117  20.8119
    20.8170  20.8172  20.8308  20.8308  20.8310  20.8310

          k = 0.3878-0.4986-0.4986 ( 12632 PWs)   bands (ev):

   -52.5463 -52.5461 -52.5459 -52.5458 -52.5369 -52.5368 -52.5366 -52.5365
   -51.8649 -51.8649 -51.8647 -51.8641 -51.8632 -51.8631 -51.8629 -51.8620
   -24.0153 -24.0152 -24.0150 -24.0149 -24.0104 -24.0104 -24.0102 -24.0102
   -23.9723 -23.9723 -23.9722 -23.9721 -23.9476 -23.9475 -23.9474 -23.9474
   -23.9474 -23.9473 -23.9472 -23.9472 -23.9163 -23.9162 -23.9161 -23.9160
   -23.1824 -23.1824 -23.1822 -23.1822 -23.1575 -23.1575 -23.1574 -23.1569
   -23.1567 -23.1567 -23.1564 -23.1564 -23.1239 -23.1238 -23.1237 -23.1232
   -23.1228 -23.1226 -23.1226 -23.1225 -23.1002 -23.1001 -23.0999 -23.0999
    14.5709  14.5710  14.5711  14.5713  15.3231  15.3232  15.3233  15.3235
    16.5609  16.5610  16.5612  16.5612  16.7987  16.7988  16.7989  16.7990
    16.9096  16.9096  16.9097  16.9098  16.9107  16.9108  16.9109  16.9110
    17.3284  17.3285  17.3286  17.3287  17.3479  17.3480  17.3481  17.3481
    17.4201  17.4202  17.4203  17.4205  17.5468  17.5469  17.5470  17.5471
    17.6124  17.6124  17.6124  17.6125  17.7762  17.7763  17.7763  17.7763
    20.5559  20.5560  20.5560  20.5564  20.6263  20.6264  20.6265  20.6267
    20.7257  20.7259  20.7259  20.7262  20.8076  20.8078  20.8078  20.8081
    20.8179  20.8181  20.8181  20.8181  20.8651  20.8651

          k =-0.4986-0.4986-0.4986 ( 12712 PWs)   bands (ev):

   -52.5417 -52.5415 -52.5415 -52.5414 -52.5413 -52.5412 -52.5412 -52.5411
   -51.8642 -51.8640 -51.8640 -51.8640 -51.8637 -51.8637 -51.8635 -51.8624
   -23.9802 -23.9802 -23.9802 -23.9801 -23.9801 -23.9800 -23.9800 -23.9800
   -23.9800 -23.9799 -23.9799 -23.9799 -23.9798 -23.9797 -23.9797 -23.9796
   -23.9466 -23.9465 -23.9465 -23.9465 -23.9464 -23.9464 -23.9463 -23.9463
   -23.1653 -23.1652 -23.1651 -23.1651 -23.1650 -23.1650 -23.1650 -23.1650
   -23.1279 -23.1279 -23.1278 -23.1277 -23.1276 -23.1276 -23.1276 -23.1276
   -23.1275 -23.1274 -23.1274 -23.1274 -23.1273 -23.1268 -23.1268 -23.1268
    14.9447  14.9448  14.9448  14.9449  14.9450  14.9451  14.9451  14.9452
    16.8551  16.8551  16.8551  16.8552  16.8552  16.8552  16.8553  16.8553
    16.8553  16.8554  16.8554  16.8554  16.8554  16.8554  16.8555  16.8556
    17.4266  17.4267  17.4267  17.4267  17.4267  17.4267  17.4268  17.4268
    17.4457  17.4458  17.4458  17.4458  17.4459  17.4459  17.4459  17.4460
    17.4460  17.4460  17.4460  17.4460  17.4460  17.4462  17.4462  17.4462
    20.6819  20.6820  20.6820  20.6821  20.6822  20.6822  20.6822  20.6822
    20.6823  20.6823  20.6823  20.6823  20.6824  20.6824  20.6828  20.6828
    21.0686  21.0687  21.0687  21.0688  21.0688  21.0689

     the Fermi energy is    19.4172 ev

!    total energy              =   -3971.54343112 Ry
     Harris-Foulkes estimate   =   -3971.54342604 Ry
     estimated scf accuracy    <       0.00000035 Ry

     total all-electron energy =    -33628.066311 Ry

     The total energy is the sum of the following terms:

     one-electron contribution =    -890.49977263 Ry
     hartree contribution      =     581.93280718 Ry
     xc contribution           =    -356.66521838 Ry
     ewald contribution        =   -2118.38121151 Ry
     one-center paw contrib.   =   -1187.96386639 Ry
     smearing contrib. (-TS)   =       0.03383060 Ry

     total magnetization       =    -0.00 Bohr mag/cell
     absolute magnetization    =    10.60 Bohr mag/cell

     convergence has been achieved in  28 iterations

     Forces acting on atoms (cartesian axes, Ry/au):

     atom    1 type  1   force =     0.00000000    0.00000000    0.00000000
     atom    2 type  2   force =     0.00003052    0.00003052    0.00003052
     atom    3 type  1   force =     0.00000000    0.00000000    0.00000000
     atom    4 type  2   force =     0.00003052    0.00003052   -0.00003052
     atom    5 type  1   force =     0.00000000    0.00000000    0.00000000
     atom    6 type  2   force =     0.00003052   -0.00003052    0.00003052
     atom    7 type  1   force =     0.00000000    0.00000000    0.00000000
     atom    8 type  2   force =     0.00003052   -0.00003052   -0.00003052
     atom    9 type  1   force =     0.00000000    0.00000000    0.00000000
     atom   10 type  2   force =    -0.00003052    0.00003052    0.00003052
     atom   11 type  1   force =     0.00000000   -0.00000000    0.00000000
     atom   12 type  2   force =    -0.00003052    0.00003052   -0.00003052
     atom   13 type  1   force =     0.00000000    0.00000000    0.00000000
     atom   14 type  2   force =    -0.00003052   -0.00003052    0.00003052
     atom   15 type  1   force =     0.00000000    0.00000000    0.00000000
     atom   16 type  2   force =    -0.00003052   -0.00003052   -0.00003052

     Total force =     0.000150     Total SCF correction =     0.000414
     SCF correction compared to forces is large: reduce conv_thr to get better values


     Computing stress (Cartesian axis) and pressure

          total   stress  (Ry/bohr**3)                   (kbar)     P=   -1.80
  -0.00001226   0.00000000   0.00000000         -1.80      0.00      0.00
   0.00000000  -0.00001226   0.00000000          0.00     -1.80      0.00
   0.00000000   0.00000000  -0.00001226          0.00      0.00     -1.80


     Writing output data file NAbnEcmEgYVpqmjL.save/
 
     init_run     :      7.31s CPU      7.61s WALL (       1 calls)
     electrons    :    892.67s CPU    910.94s WALL (       1 calls)
     forces       :      2.25s CPU      2.38s WALL (       1 calls)
     stress       :      9.06s CPU      9.12s WALL (       1 calls)

     Called by init_run:
     wfcinit      :      6.69s CPU      6.94s WALL (       1 calls)
     potinit      :      0.30s CPU      0.31s WALL (       1 calls)
     hinit0       :      0.12s CPU      0.13s WALL (       1 calls)

     Called by electrons:
     c_bands      :    822.07s CPU    836.99s WALL (      29 calls)
     sum_band     :     61.17s CPU     63.76s WALL (      29 calls)
     v_of_rho     :      0.73s CPU      0.77s WALL (      29 calls)
     newd         :      1.53s CPU      1.89s WALL (      29 calls)
     PAW_pot      :      7.16s CPU      7.49s WALL (      29 calls)
     mix_rho      :      0.21s CPU      0.23s WALL (      29 calls)

     Called by c_bands:
     init_us_2    :      4.64s CPU      4.72s WALL (    4270 calls)
     cegterg      :    797.55s CPU    812.25s WALL (    2030 calls)

     Called by sum_band:
     sum_band:bec :      0.62s CPU      0.62s WALL (    2030 calls)
     addusdens    :      3.08s CPU      3.49s WALL (      29 calls)

     Called by *egterg:
     h_psi        :    290.65s CPU    299.57s WALL (   10580 calls)
     s_psi        :     22.65s CPU     22.76s WALL (   10580 calls)
     g_psi        :      1.18s CPU      1.19s WALL (    8480 calls)
     cdiaghg      :    394.69s CPU    395.72s WALL (   10440 calls)

     Called by h_psi:
     h_psi:pot    :    288.67s CPU    297.56s WALL (   10580 calls)
     h_psi:calbec :     25.48s CPU     28.16s WALL (   10580 calls)
     vloc_psi     :    239.25s CPU    245.36s WALL (   10580 calls)
     add_vuspsi   :     23.85s CPU     23.98s WALL (   10580 calls)

     General routines
     calbec       :     35.96s CPU     39.73s WALL (   12960 calls)
     fft          :      0.54s CPU      0.60s WALL (     767 calls)
     ffts         :      0.05s CPU      0.06s WALL (     116 calls)
     fftw         :    265.20s CPU    271.93s WALL ( 1759848 calls)
     interpolate  :      0.07s CPU      0.08s WALL (      58 calls)
 
     Parallel routines
     fft_scatt_xy :     21.39s CPU     21.92s WALL ( 1760731 calls)
     fft_scatt_yz :    154.10s CPU    158.16s WALL ( 1760731 calls)
 
     PWSCF        : 15m14.63s CPU    15m40.41s WALL

 
   This run was terminated on:   3:29:10  16Jun2020            

=------------------------------------------------------------------------------=
   JOB DONE.
=------------------------------------------------------------------------------=
