
     Program PWSCF v.6.3 starts on 15Jun2020 at 22:22:53 

     This program is part of the open-source Quantum ESPRESSO suite
     for quantum simulation of materials; please cite
         "P. Giannozzi et al., J. Phys.:Condens. Matter 21 395502 (2009);
         "P. Giannozzi et al., J. Phys.:Condens. Matter 29 465901 (2017);
          URL http://www.quantum-espresso.org", 
     in publications or presentations arising from this work. More details at
     http://www.quantum-espresso.org/quote

     Parallel version (MPI & OpenMP), running on      20 processor cores
     Number of MPI processes:                20
     Threads/MPI process:                     1

     MPI processes distributed on     1 nodes
     R & G space division:  proc/nbgrp/npool/nimage =      20
     Reading input from wd/eos/eos_008.in
Warning: card &IONS ignored
Warning: card ION_DYNAMICS = 'BFGS', ignored
Warning: card / ignored
Warning: card &CELL ignored
Warning: card CELL_DYNAMICS = 'BFGS', ignored
Warning: card CELL_FACTOR = 2.0, ignored
Warning: card PRESS = 0.0, ignored
Warning: card / ignored

     Current dimensions of program PWSCF are:
     Max number of different atomic species (ntypx) = 10
     Max number of k-points (npk) =  40000
     Max angular momentum in pseudopotentials (lmaxx) =  3
     Message from routine read_upf::
     Pseudo file /rds/homes/b/bxp912/pp/Cr.pbe-spn-kjpaw_psl.1.0.0.UPF has been successfully fixed on the fly.
To avoid this message in the future you can permanently fix 
 your pseudo files following instructions given in: 
https://gitlab.com/QEF/q-e/blob/master/upftools/how_to_fix_upf.md
               file Cr.pbe-spn-kjpaw_psl.1.0.0.UPF: wavefunction(s)  3S 3P 3D renormalized
     Message from routine read_upf::
     Pseudo file /rds/homes/b/bxp912/pp/Cr.pbe-spn-kjpaw_psl.1.0.0.UPF has been successfully fixed on the fly.
To avoid this message in the future you can permanently fix 
 your pseudo files following instructions given in: 
https://gitlab.com/QEF/q-e/blob/master/upftools/how_to_fix_upf.md
               file Cr.pbe-spn-kjpaw_psl.1.0.0.UPF: wavefunction(s)  3S 3P 3D renormalized

     Subspace diagonalization in iterative solution of the eigenvalue problem:
     a serial algorithm will be used

     Found symmetry operation: I + (  0.0000  0.0000  0.5000)
     This is a supercell, fractional translations are disabled
 
     Parallelization info
     --------------------
     sticks:   dense  smooth     PW     G-vecs:    dense   smooth      PW
     Min         197     130     36                 9341     5016     745
     Max         198     131     38                 9344     5020     749
     Sum        3953    2601    741               186863   100377   14939
 


     bravais-lattice index     =            0
     lattice parameter (alat)  =      10.7442  a.u.
     unit-cell volume          =    1240.2760 (a.u.)^3
     number of atoms/cell      =           16
     number of atomic types    =            2
     number of electrons       =       224.00
     number of Kohn-Sham states=          134
     kinetic-energy cutoff     =      71.0000  Ry
     charge density cutoff     =     430.0000  Ry
     convergence threshold     =      1.0E-06
     mixing beta               =       0.1000
     number of iterations used =           10  plain     mixing
     Exchange-correlation      = SLA PW PBX PBC ( 1  4  3  4 0 0)

     celldm(1)=  10.744168  celldm(2)=   0.000000  celldm(3)=   0.000000
     celldm(4)=   0.000000  celldm(5)=   0.000000  celldm(6)=   0.000000

     crystal axes: (cart. coord. in units of alat)
               a(1) = (   1.000000   0.000000   0.000000 )  
               a(2) = (   0.000000   1.000000   0.000000 )  
               a(3) = (   0.000000   0.000000   1.000000 )  

     reciprocal axes: (cart. coord. in units 2 pi/alat)
               b(1) = (  1.000000  0.000000  0.000000 )  
               b(2) = (  0.000000  1.000000  0.000000 )  
               b(3) = (  0.000000  0.000000  1.000000 )  


     PseudoPot. # 1 for Cr read from file:
     /rds/homes/b/bxp912/pp/Cr.pbe-spn-kjpaw_psl.1.0.0.UPF
     MD5 check sum: cb1c17117da000fe5e03c4f1a6841d9c
     Pseudo is Projector augmented-wave + core cor, Zval = 14.0
     Generated using "atomic" code by A. Dal Corso v.5.1
     Shape of augmentation charge: PSQ
     Using radial grid of 1183 points,  6 beta functions with: 
                l(1) =   0
                l(2) =   0
                l(3) =   1
                l(4) =   1
                l(5) =   2
                l(6) =   2
     Q(r) pseudized with 0 coefficients 


     PseudoPot. # 2 for Cr read from file:
     /rds/homes/b/bxp912/pp/Cr.pbe-spn-kjpaw_psl.1.0.0.UPF
     MD5 check sum: cb1c17117da000fe5e03c4f1a6841d9c
     Pseudo is Projector augmented-wave + core cor, Zval = 14.0
     Generated using "atomic" code by A. Dal Corso v.5.1
     Shape of augmentation charge: PSQ
     Using radial grid of 1183 points,  6 beta functions with: 
                l(1) =   0
                l(2) =   0
                l(3) =   1
                l(4) =   1
                l(5) =   2
                l(6) =   2
     Q(r) pseudized with 0 coefficients 


     atomic species   valence    mass     pseudopotential
        Cr1           14.00    55.84500     Cr( 1.00)
        Cr2           14.00    55.84500     Cr( 1.00)

     Starting magnetic structure 
     atomic species   magnetization
        Cr1          0.300
        Cr2         -0.300

     48 Sym. Ops., with inversion, found



   Cartesian axes

     site n.     atom                  positions (alat units)
         1           Cr1 tau(   1) = (   0.0000000   0.0000000   0.0000000  )
         2           Cr2 tau(   2) = (   0.2500000   0.2500000   0.2499998  )
         3           Cr1 tau(   3) = (   0.0000000   0.0000000   0.4999995  )
         4           Cr2 tau(   4) = (   0.2500000   0.2500000   0.7500002  )
         5           Cr1 tau(   5) = (   0.0000000   0.5000002   0.0000000  )
         6           Cr2 tau(   6) = (   0.2500000   0.7500002   0.2499998  )
         7           Cr1 tau(   7) = (   0.0000000   0.5000002   0.4999995  )
         8           Cr2 tau(   8) = (   0.2500000   0.7500002   0.7500002  )
         9           Cr1 tau(   9) = (   0.5000002   0.0000000   0.0000000  )
        10           Cr2 tau(  10) = (   0.7500002   0.2500000   0.2499998  )
        11           Cr1 tau(  11) = (   0.5000002   0.0000000   0.4999995  )
        12           Cr2 tau(  12) = (   0.7500002   0.2500000   0.7500002  )
        13           Cr1 tau(  13) = (   0.5000002   0.5000002   0.0000000  )
        14           Cr2 tau(  14) = (   0.7500002   0.7500002   0.2499998  )
        15           Cr1 tau(  15) = (   0.5000002   0.5000002   0.4999995  )
        16           Cr2 tau(  16) = (   0.7500002   0.7500002   0.7500002  )

     number of k points=    35  Marzari-Vanderbilt smearing, width (Ry)=  0.0400
                       cart. coord. in units 2pi/alat
        k(    1) = (   0.0555556   0.0555556   0.0555556), wk =   0.0109739
        k(    2) = (   0.0555556   0.0555556   0.1666667), wk =   0.0329218
        k(    3) = (   0.0555556   0.0555556   0.2777778), wk =   0.0329218
        k(    4) = (   0.0555556   0.0555556   0.3888889), wk =   0.0329218
        k(    5) = (   0.0555556   0.0555556  -0.5000000), wk =   0.0164609
        k(    6) = (   0.0555556   0.1666667   0.1666667), wk =   0.0329218
        k(    7) = (   0.0555556   0.1666667   0.2777778), wk =   0.0658436
        k(    8) = (   0.0555556   0.1666667   0.3888889), wk =   0.0658436
        k(    9) = (   0.0555556   0.1666667  -0.5000000), wk =   0.0329218
        k(   10) = (   0.0555556   0.2777778   0.2777778), wk =   0.0329218
        k(   11) = (   0.0555556   0.2777778   0.3888889), wk =   0.0658436
        k(   12) = (   0.0555556   0.2777778  -0.5000000), wk =   0.0329218
        k(   13) = (   0.0555556   0.3888889   0.3888889), wk =   0.0329218
        k(   14) = (   0.0555556   0.3888889  -0.5000000), wk =   0.0329218
        k(   15) = (   0.0555556  -0.5000000  -0.5000000), wk =   0.0082305
        k(   16) = (   0.1666667   0.1666667   0.1666667), wk =   0.0109739
        k(   17) = (   0.1666667   0.1666667   0.2777778), wk =   0.0329218
        k(   18) = (   0.1666667   0.1666667   0.3888889), wk =   0.0329218
        k(   19) = (   0.1666667   0.1666667  -0.5000000), wk =   0.0164609
        k(   20) = (   0.1666667   0.2777778   0.2777778), wk =   0.0329218
        k(   21) = (   0.1666667   0.2777778   0.3888889), wk =   0.0658436
        k(   22) = (   0.1666667   0.2777778  -0.5000000), wk =   0.0329218
        k(   23) = (   0.1666667   0.3888889   0.3888889), wk =   0.0329218
        k(   24) = (   0.1666667   0.3888889  -0.5000000), wk =   0.0329218
        k(   25) = (   0.1666667  -0.5000000  -0.5000000), wk =   0.0082305
        k(   26) = (   0.2777778   0.2777778   0.2777778), wk =   0.0109739
        k(   27) = (   0.2777778   0.2777778   0.3888889), wk =   0.0329218
        k(   28) = (   0.2777778   0.2777778  -0.5000000), wk =   0.0164609
        k(   29) = (   0.2777778   0.3888889   0.3888889), wk =   0.0329218
        k(   30) = (   0.2777778   0.3888889  -0.5000000), wk =   0.0329218
        k(   31) = (   0.2777778  -0.5000000  -0.5000000), wk =   0.0082305
        k(   32) = (   0.3888889   0.3888889   0.3888889), wk =   0.0109739
        k(   33) = (   0.3888889   0.3888889  -0.5000000), wk =   0.0164609
        k(   34) = (   0.3888889  -0.5000000  -0.5000000), wk =   0.0082305
        k(   35) = (  -0.5000000  -0.5000000  -0.5000000), wk =   0.0013717

     Dense  grid:   186863 G-vectors     FFT dimensions: (  72,  72,  72)

     Smooth grid:   100377 G-vectors     FFT dimensions: (  60,  60,  60)

     Estimated max dynamical RAM per process >     143.00 MB

     Estimated total dynamical RAM >       2.79 GB
     Generating pointlists ...
     new r_m :   0.1786 (alat units)  1.9191 (a.u.) for type    1
     new r_m :   0.1786 (alat units)  1.9191 (a.u.) for type    2

     Check: negative/imaginary core charge=   -0.000009    0.000000

     Initial potential from superposition of free atoms

     starting charge  223.98764, renormalised to  224.00000
     Starting wfcs are  160 randomized atomic wfcs
     Checking if some PAW data can be deallocated... 

     total cpu time spent up to now is        9.4 secs

     Self-consistent Calculation

     iteration #  1     ecut=    71.00 Ry     beta= 0.10
     Davidson diagonalization with overlap
     ethr =  1.00E-02,  avg # of iterations =  3.2

     Threshold (ethr) on eigenvalues was too large:
     Diagonalizing with lowered threshold

     Davidson diagonalization with overlap
     ethr =  7.76E-04,  avg # of iterations =  3.6

     total cpu time spent up to now is       57.9 secs

     total energy              =   -3970.58438357 Ry
     Harris-Foulkes estimate   =   -3970.49086730 Ry
     estimated scf accuracy    <       1.80963023 Ry

     total magnetization       =    -0.00 Bohr mag/cell
     absolute magnetization    =    38.82 Bohr mag/cell

     iteration #  2     ecut=    71.00 Ry     beta= 0.10
     Davidson diagonalization with overlap
     ethr =  8.08E-04,  avg # of iterations =  1.0

     total cpu time spent up to now is       74.0 secs

     total energy              =   -3971.02120436 Ry
     Harris-Foulkes estimate   =   -3970.59511624 Ry
     estimated scf accuracy    <       1.36904312 Ry

     total magnetization       =     0.00 Bohr mag/cell
     absolute magnetization    =    38.84 Bohr mag/cell

     iteration #  3     ecut=    71.00 Ry     beta= 0.10
     Davidson diagonalization with overlap
     ethr =  6.11E-04,  avg # of iterations =  2.9

     total cpu time spent up to now is       99.6 secs

     total energy              =   -3971.26818727 Ry
     Harris-Foulkes estimate   =   -3971.22659981 Ry
     estimated scf accuracy    <       0.32422096 Ry

     total magnetization       =    -0.00 Bohr mag/cell
     absolute magnetization    =    37.46 Bohr mag/cell

     iteration #  4     ecut=    71.00 Ry     beta= 0.10
     Davidson diagonalization with overlap
     ethr =  1.45E-04,  avg # of iterations =  2.0

     total cpu time spent up to now is      118.3 secs

     total energy              =   -3971.28204559 Ry
     Harris-Foulkes estimate   =   -3971.27849050 Ry
     estimated scf accuracy    <       0.47208697 Ry

     total magnetization       =    -0.00 Bohr mag/cell
     absolute magnetization    =    37.86 Bohr mag/cell

     iteration #  5     ecut=    71.00 Ry     beta= 0.10
     Davidson diagonalization with overlap
     ethr =  1.45E-04,  avg # of iterations =  5.3

     total cpu time spent up to now is      152.1 secs

     total energy              =   -3971.41611689 Ry
     Harris-Foulkes estimate   =   -3971.41121619 Ry
     estimated scf accuracy    <       0.04402650 Ry

     total magnetization       =     0.00 Bohr mag/cell
     absolute magnetization    =    30.86 Bohr mag/cell

     iteration #  6     ecut=    71.00 Ry     beta= 0.10
     Davidson diagonalization with overlap
     ethr =  1.97E-05,  avg # of iterations =  3.2

     total cpu time spent up to now is      174.3 secs

     total energy              =   -3971.40939572 Ry
     Harris-Foulkes estimate   =   -3971.41750475 Ry
     estimated scf accuracy    <       0.04014571 Ry

     total magnetization       =     0.00 Bohr mag/cell
     absolute magnetization    =    30.64 Bohr mag/cell

     iteration #  7     ecut=    71.00 Ry     beta= 0.10
     Davidson diagonalization with overlap
     ethr =  1.79E-05,  avg # of iterations =  1.0

     total cpu time spent up to now is      190.4 secs

     total energy              =   -3971.43617585 Ry
     Harris-Foulkes estimate   =   -3971.40997128 Ry
     estimated scf accuracy    <       0.04985947 Ry

     total magnetization       =     0.00 Bohr mag/cell
     absolute magnetization    =    31.00 Bohr mag/cell

     iteration #  8     ecut=    71.00 Ry     beta= 0.10
     Davidson diagonalization with overlap
     ethr =  1.79E-05,  avg # of iterations =  5.9

     total cpu time spent up to now is      231.5 secs

     total energy              =   -3971.49256569 Ry
     Harris-Foulkes estimate   =   -3971.48572242 Ry
     estimated scf accuracy    <       0.02421542 Ry

     total magnetization       =    -0.00 Bohr mag/cell
     absolute magnetization    =    25.50 Bohr mag/cell

     iteration #  9     ecut=    71.00 Ry     beta= 0.10
     Davidson diagonalization with overlap
     ethr =  1.08E-05,  avg # of iterations =  2.2

     total cpu time spent up to now is      250.6 secs

     total energy              =   -3971.50147927 Ry
     Harris-Foulkes estimate   =   -3971.49399844 Ry
     estimated scf accuracy    <       0.01172889 Ry

     total magnetization       =    -0.00 Bohr mag/cell
     absolute magnetization    =    24.84 Bohr mag/cell

     iteration # 10     ecut=    71.00 Ry     beta= 0.10
     Davidson diagonalization with overlap
     ethr =  5.24E-06,  avg # of iterations =  4.8

     total cpu time spent up to now is      283.2 secs

     total energy              =   -3971.51352884 Ry
     Harris-Foulkes estimate   =   -3971.50734940 Ry
     estimated scf accuracy    <       0.00979000 Ry

     total magnetization       =    -0.00 Bohr mag/cell
     absolute magnetization    =    22.92 Bohr mag/cell

     iteration # 11     ecut=    71.00 Ry     beta= 0.10
     Davidson diagonalization with overlap
     ethr =  4.37E-06,  avg # of iterations =  4.6

     total cpu time spent up to now is      313.1 secs

     total energy              =   -3971.52152067 Ry
     Harris-Foulkes estimate   =   -3971.51704227 Ry
     estimated scf accuracy    <       0.00662762 Ry

     total magnetization       =    -0.00 Bohr mag/cell
     absolute magnetization    =    21.37 Bohr mag/cell

     iteration # 12     ecut=    71.00 Ry     beta= 0.10
     Davidson diagonalization with overlap
     ethr =  2.96E-06,  avg # of iterations =  5.0

     total cpu time spent up to now is      347.9 secs

     total energy              =   -3971.52734362 Ry
     Harris-Foulkes estimate   =   -3971.52649279 Ry
     estimated scf accuracy    <       0.00422293 Ry

     total magnetization       =     0.00 Bohr mag/cell
     absolute magnetization    =    19.51 Bohr mag/cell

     iteration # 13     ecut=    71.00 Ry     beta= 0.10
     Davidson diagonalization with overlap
     ethr =  1.89E-06,  avg # of iterations =  1.2

     total cpu time spent up to now is      364.3 secs

     total energy              =   -3971.52866608 Ry
     Harris-Foulkes estimate   =   -3971.52744310 Ry
     estimated scf accuracy    <       0.00302405 Ry

     total magnetization       =     0.00 Bohr mag/cell
     absolute magnetization    =    19.33 Bohr mag/cell

     iteration # 14     ecut=    71.00 Ry     beta= 0.10
     Davidson diagonalization with overlap
     ethr =  1.35E-06,  avg # of iterations =  4.1

     total cpu time spent up to now is      391.8 secs

     total energy              =   -3971.53082503 Ry
     Harris-Foulkes estimate   =   -3971.52924888 Ry
     estimated scf accuracy    <       0.00216003 Ry

     total magnetization       =    -0.00 Bohr mag/cell
     absolute magnetization    =    18.78 Bohr mag/cell

     iteration # 15     ecut=    71.00 Ry     beta= 0.10
     Davidson diagonalization with overlap
     ethr =  9.64E-07,  avg # of iterations =  4.3

     total cpu time spent up to now is      420.9 secs

     total energy              =   -3971.53280612 Ry
     Harris-Foulkes estimate   =   -3971.53153297 Ry
     estimated scf accuracy    <       0.00161155 Ry

     total magnetization       =     0.00 Bohr mag/cell
     absolute magnetization    =    18.08 Bohr mag/cell

     iteration # 16     ecut=    71.00 Ry     beta= 0.10
     Davidson diagonalization with overlap
     ethr =  7.19E-07,  avg # of iterations =  5.0

     total cpu time spent up to now is      456.0 secs

     total energy              =   -3971.53005619 Ry
     Harris-Foulkes estimate   =   -3971.53434328 Ry
     estimated scf accuracy    <       0.00101519 Ry

     total magnetization       =     0.00 Bohr mag/cell
     absolute magnetization    =    17.01 Bohr mag/cell

     iteration # 17     ecut=    71.00 Ry     beta= 0.10
     Davidson diagonalization with overlap
     ethr =  4.53E-07,  avg # of iterations =  4.7

     total cpu time spent up to now is      489.3 secs

     total energy              =   -3971.53126440 Ry
     Harris-Foulkes estimate   =   -3971.53163665 Ry
     estimated scf accuracy    <       0.00178891 Ry

     total magnetization       =    -0.00 Bohr mag/cell
     absolute magnetization    =    18.11 Bohr mag/cell

     iteration # 18     ecut=    71.00 Ry     beta= 0.10
     Davidson diagonalization with overlap
     ethr =  4.53E-07,  avg # of iterations =  1.0

     total cpu time spent up to now is      505.5 secs

     total energy              =   -3971.52641536 Ry
     Harris-Foulkes estimate   =   -3971.53129242 Ry
     estimated scf accuracy    <       0.00233795 Ry

     total magnetization       =    -0.01 Bohr mag/cell
     absolute magnetization    =    18.21 Bohr mag/cell

     iteration # 19     ecut=    71.00 Ry     beta= 0.10
     Davidson diagonalization with overlap
     ethr =  4.53E-07,  avg # of iterations =  5.8

     total cpu time spent up to now is      551.9 secs

     total energy              =   -3971.53758406 Ry
     Harris-Foulkes estimate   =   -3971.53792028 Ry
     estimated scf accuracy    <       0.00101568 Ry

     total magnetization       =     0.01 Bohr mag/cell
     absolute magnetization    =    15.22 Bohr mag/cell

     iteration # 20     ecut=    71.00 Ry     beta= 0.10
     Davidson diagonalization with overlap
     ethr =  4.53E-07,  avg # of iterations =  1.0

     total cpu time spent up to now is      568.2 secs

     total energy              =   -3971.51676442 Ry
     Harris-Foulkes estimate   =   -3971.53761620 Ry
     estimated scf accuracy    <       0.00100546 Ry

     total magnetization       =     0.01 Bohr mag/cell
     absolute magnetization    =    15.35 Bohr mag/cell

     iteration # 21     ecut=    71.00 Ry     beta= 0.10
     Davidson diagonalization with overlap
     ethr =  4.49E-07,  avg # of iterations =  6.0

     total cpu time spent up to now is      624.9 secs

     total energy              =   -3971.53451512 Ry
     Harris-Foulkes estimate   =   -3971.54154191 Ry
     estimated scf accuracy    <       0.00051059 Ry

     total magnetization       =     0.01 Bohr mag/cell
     absolute magnetization    =    10.85 Bohr mag/cell

     iteration # 22     ecut=    71.00 Ry     beta= 0.10
     Davidson diagonalization with overlap
     ethr =  2.28E-07,  avg # of iterations =  5.8

     total cpu time spent up to now is      672.6 secs

     total energy              =   -3971.51977016 Ry
     Harris-Foulkes estimate   =   -3971.54187955 Ry
     estimated scf accuracy    <       0.00052676 Ry

     total magnetization       =     0.01 Bohr mag/cell
     absolute magnetization    =     8.35 Bohr mag/cell

     iteration # 23     ecut=    71.00 Ry     beta= 0.10
     Davidson diagonalization with overlap
     ethr =  2.28E-07,  avg # of iterations =  5.9

     total cpu time spent up to now is      727.2 secs

     total energy              =   -3971.53444027 Ry
     Harris-Foulkes estimate   =   -3971.54077005 Ry
     estimated scf accuracy    <       0.00020998 Ry

     total magnetization       =     0.00 Bohr mag/cell
     absolute magnetization    =    12.53 Bohr mag/cell

     iteration # 24     ecut=    71.00 Ry     beta= 0.10
     Davidson diagonalization with overlap
     ethr =  9.37E-08,  avg # of iterations =  5.8

     total cpu time spent up to now is      782.5 secs

     total energy              =   -3971.53453343 Ry
     Harris-Foulkes estimate   =   -3971.54173302 Ry
     estimated scf accuracy    <       0.00024988 Ry

     total magnetization       =     0.01 Bohr mag/cell
     absolute magnetization    =    10.06 Bohr mag/cell

     iteration # 25     ecut=    71.00 Ry     beta= 0.10
     Davidson diagonalization with overlap
     ethr =  9.37E-08,  avg # of iterations =  5.7

     total cpu time spent up to now is      836.3 secs

     total energy              =   -3971.53909616 Ry
     Harris-Foulkes estimate   =   -3971.54086564 Ry
     estimated scf accuracy    <       0.00008450 Ry

     total magnetization       =     0.00 Bohr mag/cell
     absolute magnetization    =    12.34 Bohr mag/cell

     iteration # 26     ecut=    71.00 Ry     beta= 0.10
     Davidson diagonalization with overlap
     ethr =  3.77E-08,  avg # of iterations =  5.9

     total cpu time spent up to now is      890.6 secs

     total energy              =   -3971.53992829 Ry
     Harris-Foulkes estimate   =   -3971.54150843 Ry
     estimated scf accuracy    <       0.00002588 Ry

     total magnetization       =     0.00 Bohr mag/cell
     absolute magnetization    =    10.92 Bohr mag/cell

     iteration # 27     ecut=    71.00 Ry     beta= 0.10
     Davidson diagonalization with overlap
     ethr =  1.16E-08,  avg # of iterations =  6.1

     total cpu time spent up to now is      948.1 secs

     total energy              =   -3971.54121460 Ry
     Harris-Foulkes estimate   =   -3971.54178975 Ry
     estimated scf accuracy    <       0.00002543 Ry

     total magnetization       =     0.00 Bohr mag/cell
     absolute magnetization    =     9.67 Bohr mag/cell

     iteration # 28     ecut=    71.00 Ry     beta= 0.10
     Davidson diagonalization with overlap
     ethr =  1.14E-08,  avg # of iterations =  5.9

     total cpu time spent up to now is     1001.4 secs

     total energy              =   -3971.54083961 Ry
     Harris-Foulkes estimate   =   -3971.54186071 Ry
     estimated scf accuracy    <       0.00001148 Ry

     total magnetization       =     0.00 Bohr mag/cell
     absolute magnetization    =     8.94 Bohr mag/cell

     iteration # 29     ecut=    71.00 Ry     beta= 0.10
     Davidson diagonalization with overlap
     ethr =  5.12E-09,  avg # of iterations =  6.1

     total cpu time spent up to now is     1058.1 secs

     total energy              =   -3971.54184529 Ry
     Harris-Foulkes estimate   =   -3971.54187596 Ry
     estimated scf accuracy    <       0.00000245 Ry

     total magnetization       =     0.00 Bohr mag/cell
     absolute magnetization    =     8.00 Bohr mag/cell

     iteration # 30     ecut=    71.00 Ry     beta= 0.10
     Davidson diagonalization with overlap
     ethr =  1.10E-09,  avg # of iterations =  5.5

     total cpu time spent up to now is     1105.7 secs

     total energy              =   -3971.54187203 Ry
     Harris-Foulkes estimate   =   -3971.54187292 Ry
     estimated scf accuracy    <       0.00000208 Ry

     total magnetization       =     0.00 Bohr mag/cell
     absolute magnetization    =     7.85 Bohr mag/cell

     iteration # 31     ecut=    71.00 Ry     beta= 0.10
     Davidson diagonalization with overlap
     ethr =  9.31E-10,  avg # of iterations =  4.8
 
     Magnetic moment per site:
     atom:    1    charge:   12.2182    magn:    0.4610    constr:    0.0000
     atom:    2    charge:   12.2182    magn:   -0.4600    constr:    0.0000
     atom:    3    charge:   12.2181    magn:    0.4600    constr:    0.0000
     atom:    4    charge:   12.2182    magn:   -0.4600    constr:    0.0000
     atom:    5    charge:   12.2181    magn:    0.4600    constr:    0.0000
     atom:    6    charge:   12.2182    magn:   -0.4600    constr:    0.0000
     atom:    7    charge:   12.2182    magn:    0.4600    constr:    0.0000
     atom:    8    charge:   12.2182    magn:   -0.4600    constr:    0.0000
     atom:    9    charge:   12.2181    magn:    0.4600    constr:    0.0000
     atom:   10    charge:   12.2182    magn:   -0.4600    constr:    0.0000
     atom:   11    charge:   12.2182    magn:    0.4600    constr:    0.0000
     atom:   12    charge:   12.2182    magn:   -0.4600    constr:    0.0000
     atom:   13    charge:   12.2182    magn:    0.4600    constr:    0.0000
     atom:   14    charge:   12.2182    magn:   -0.4600    constr:    0.0000
     atom:   15    charge:   12.2182    magn:    0.4610    constr:    0.0000
     atom:   16    charge:   12.2182    magn:   -0.4600    constr:    0.0000

     total cpu time spent up to now is     1139.3 secs

     End of self-consistent calculation

 ------ SPIN UP ------------


          k = 0.0556 0.0556 0.0556 ( 12572 PWs)   bands (ev):

   -52.3501 -52.2783 -52.2777 -52.2777 -52.2606 -52.2601 -52.2601 -52.2438
   -51.7818 -51.7818 -51.7818 -51.7648 -51.7648 -51.7648 -51.7481 -51.7399
   -23.9763 -23.9763 -23.9761 -23.9721 -23.9719 -23.9719 -23.7250 -23.7250
   -23.7250 -23.7075 -23.7075 -23.7000 -23.6993 -23.6905 -23.6905 -23.5490
   -23.5488 -23.5488 -23.5388 -23.5388 -23.5385 -23.5212 -23.5212 -23.5212
   -23.2223 -23.2223 -23.2222 -23.1982 -23.1982 -23.1883 -23.0471 -23.0470
   -23.0470 -23.0422 -23.0422 -23.0422 -23.0324 -23.0324 -23.0323 -22.9323
   -22.9322 -22.9322 -22.9280 -22.9280 -22.9279 -22.9068 -22.8980 -22.8980
    11.7939  15.1801  15.1801  15.1801  15.2468  15.2468  15.2468  15.3334
    15.3334  15.4476  15.4477  15.4477  15.8941  15.8941  15.8941  17.0893
    17.1636  17.1636  17.1986  17.1986  17.1987  17.2144  17.2146  17.2146
    17.5160  17.5160  17.5452  17.5533  17.5533  17.5535  18.1001  18.1001
    18.1002  18.7413  18.7413  18.7963  18.9905  18.9908  18.9908  19.0959
    19.0959  19.0961  19.4137  19.4137  19.4138  19.5731  19.5731  19.5731
    20.2358  20.2358  20.2358  20.3709  20.3709  20.3712  20.6109  20.6110
    20.6110  20.7535  20.7536  20.7536  20.8229  20.8229  20.8230  20.8511
    20.8511  20.9074  20.9074  20.9074  21.0712  21.0712

          k = 0.0556 0.0556 0.1667 ( 12558 PWs)   bands (ev):

   -52.3461 -52.2826 -52.2770 -52.2766 -52.2615 -52.2611 -52.2592 -52.2448
   -51.7808 -51.7808 -51.7789 -51.7658 -51.7658 -51.7638 -51.7492 -51.7421
   -23.9645 -23.9644 -23.9633 -23.9596 -23.9515 -23.9513 -23.7427 -23.7427
   -23.7275 -23.7244 -23.7161 -23.7139 -23.6991 -23.6875 -23.6794 -23.5908
   -23.5905 -23.5575 -23.5518 -23.5386 -23.5386 -23.5312 -23.5223 -23.5223
   -23.2038 -23.1923 -23.1876 -23.1876 -23.1736 -23.1620 -23.0480 -23.0479
   -23.0428 -23.0353 -23.0335 -23.0334 -23.0310 -23.0310 -23.0299 -22.9450
   -22.9450 -22.9432 -22.9398 -22.9309 -22.9309 -22.9279 -22.9051 -22.9020
    11.9304  14.8929  15.2213  15.2213  15.2870  15.3091  15.3091  15.3608
    15.4038  15.4126  15.4904  15.4904  15.9242  15.9242  16.1448  16.9671
    17.0999  17.1099  17.1332  17.1783  17.1927  17.2560  17.2561  17.3037
    17.3038  17.3665  17.5210  17.5212  17.6914  17.7003  17.9837  17.9838
    18.4942  18.7092  18.7329  18.7864  18.7866  18.8670  18.8799  19.0526
    19.0896  19.0896  19.3171  19.3171  19.6043  19.6872  19.6872  19.7837
    19.8036  19.8037  20.0389  20.1097  20.1098  20.1105  20.2383  20.5677
    20.5677  20.7411  20.7412  20.7561  20.8219  20.8563  20.8564  20.8891
    20.9240  20.9746  20.9747  20.9813  21.0597  21.0682

          k = 0.0556 0.0556 0.2778 ( 12548 PWs)   bands (ev):

   -52.3384 -52.2914 -52.2750 -52.2746 -52.2635 -52.2631 -52.2574 -52.2467
   -51.7788 -51.7788 -51.7736 -51.7678 -51.7678 -51.7619 -51.7510 -51.7464
   -23.9391 -23.9391 -23.9382 -23.9353 -23.9145 -23.9143 -23.7748 -23.7748
   -23.7641 -23.7586 -23.7303 -23.7202 -23.6831 -23.6708 -23.6602 -23.6562
   -23.6559 -23.5747 -23.5746 -23.5504 -23.5367 -23.5366 -23.5244 -23.5244
   -23.1747 -23.1681 -23.1376 -23.1376 -23.1329 -23.1228 -23.0628 -23.0466
   -23.0465 -23.0356 -23.0355 -23.0144 -23.0142 -23.0142 -23.0088 -22.9669
   -22.9668 -22.9648 -22.9633 -22.9631 -22.9404 -22.9404 -22.9189 -22.9143
    12.1984  14.2737  15.3000  15.3000  15.4239  15.4239  15.4916  15.5420
    15.5420  15.5433  15.5603  15.5805  15.9366  15.9366  16.2137  16.7200
    16.7616  16.9616  17.0557  17.1427  17.1458  17.1547  17.3841  17.3842
    17.4637  17.4638  17.5437  17.5439  17.9188  17.9189  17.9602  17.9805
    18.4809  18.4811  18.6855  18.7057  18.7057  18.7067  18.7200  18.7785
    18.9711  19.1875  19.1877  19.2122  19.4619  19.4619  19.6334  19.6335
    19.6789  19.6793  19.7232  19.8837  19.8837  20.0204  20.0964  20.5704
    20.6173  20.6174  20.7451  20.7452  20.8528  20.9565  20.9566  20.9622
    20.9752  21.0348  21.0630  21.0692  21.2469  21.2938

          k = 0.0556 0.0556 0.3889 ( 12531 PWs)   bands (ev):

   -52.3279 -52.3029 -52.2723 -52.2720 -52.2662 -52.2658 -52.2549 -52.2492
   -51.7763 -51.7763 -51.7703 -51.7703 -51.7667 -51.7594 -51.7536 -51.7523
   -23.9033 -23.9033 -23.9022 -23.9007 -23.8629 -23.8627 -23.8160 -23.8160
   -23.8110 -23.8082 -23.7314 -23.7287 -23.7284 -23.7261 -23.6605 -23.6491
   -23.6346 -23.6032 -23.5978 -23.5761 -23.5338 -23.5338 -23.5273 -23.5273
   -23.1492 -23.1196 -23.0894 -23.0858 -23.0858 -23.0855 -23.0784 -23.0440
   -23.0439 -23.0384 -23.0383 -23.0108 -22.9980 -22.9980 -22.9967 -22.9958
   -22.9940 -22.9940 -22.9889 -22.9831 -22.9550 -22.9550 -22.9386 -22.9333
    12.5872  13.6539  15.4018  15.4018  15.5524  15.5524  15.5757  15.5757
    15.7495  15.7545  15.7754  15.8748  15.8749  15.8884  16.1334  16.3446
    16.4560  16.6428  17.0458  17.0693  17.1009  17.1111  17.5767  17.5768
    17.6881  17.6882  17.7172  17.7175  17.9831  17.9832  18.2006  18.2008
    18.3113  18.3315  18.3388  18.3388  18.6012  18.6014  18.6732  18.7092
    18.7119  18.7177  18.8606  18.8607  19.1108  19.2011  19.2066  19.4860
    19.5839  19.9519  19.9520  20.1149  20.1150  20.3027  20.3420  20.4476
    20.4477  20.4696  20.5736  20.5737  20.8981  20.9966  21.0498  21.0541
    21.0569  21.0653  21.1485  21.2392  21.3001  21.3293

          k = 0.0556 0.0556-0.5000 ( 12548 PWs)   bands (ev):

   -52.3156 -52.3155 -52.2693 -52.2692 -52.2689 -52.2689 -52.2521 -52.2520
   -51.7735 -51.7735 -51.7731 -51.7731 -51.7595 -51.7592 -51.7566 -51.7563
   -23.8607 -23.8607 -23.8606 -23.8606 -23.8582 -23.8581 -23.8579 -23.8578
   -23.7996 -23.7994 -23.7993 -23.7992 -23.7300 -23.7299 -23.6330 -23.6329
   -23.6238 -23.6237 -23.6056 -23.6055 -23.5307 -23.5307 -23.5305 -23.5305
   -23.1198 -23.1195 -23.0650 -23.0647 -23.0432 -23.0431 -23.0429 -23.0429
   -23.0387 -23.0384 -23.0366 -23.0366 -23.0363 -23.0363 -23.0348 -23.0346
   -22.9736 -22.9736 -22.9734 -22.9734 -22.9628 -22.9625 -22.9570 -22.9567
    13.0803  13.0806  15.4982  15.4982  15.4984  15.4984  15.7394  15.7394
    15.7395  15.7396  15.9611  15.9613  16.0184  16.0186  16.1099  16.1100
    16.2565  16.2568  17.0645  17.0646  17.0760  17.0761  17.8200  17.8200
    17.8202  17.8202  17.9352  17.9353  17.9354  17.9354  18.1390  18.1392
    18.1392  18.1394  18.3827  18.3828  18.3829  18.3829  18.6792  18.6792
    18.7076  18.7077  18.7303  18.7303  18.7428  18.7428  19.2847  19.2849
    19.9663  19.9665  20.2281  20.2281  20.2282  20.2282  20.3537  20.3538
    20.3538  20.3539  20.7361  20.7363  20.8798  20.8799  20.9486  20.9488
    21.0525  21.0527  21.1406  21.1408  21.1931  21.1932

          k = 0.0556 0.1667 0.1667 ( 12541 PWs)   bands (ev):

   -52.3422 -52.2816 -52.2812 -52.2758 -52.2626 -52.2605 -52.2601 -52.2458
   -51.7797 -51.7781 -51.7781 -51.7666 -51.7648 -51.7648 -51.7502 -51.7442
   -23.9600 -23.9522 -23.9520 -23.9402 -23.9401 -23.9245 -23.7571 -23.7472
   -23.7470 -23.7441 -23.7244 -23.7234 -23.6949 -23.6814 -23.6703 -23.6155
   -23.5881 -23.5879 -23.5512 -23.5508 -23.5479 -23.5329 -23.5328 -23.5242
   -23.1891 -23.1811 -23.1810 -23.1606 -23.1568 -23.1338 -23.0562 -23.0454
   -23.0453 -23.0363 -23.0363 -23.0338 -23.0172 -23.0171 -23.0157 -22.9643
   -22.9541 -22.9534 -22.9534 -22.9414 -22.9414 -22.9264 -22.9112 -22.9001
    12.0649  14.9534  14.9535  15.2030  15.3300  15.3300  15.4109  15.4210
    15.4210  15.4744  15.4896  15.5430  15.9683  16.1789  16.1789  16.8617
    17.0205  17.1344  17.1345  17.1520  17.2323  17.2324  17.2750  17.2751
    17.2816  17.4234  17.4661  17.4681  17.6182  17.7451  17.8578  18.2963
    18.2965  18.6359  18.6652  18.6654  18.7120  18.7144  18.9188  18.9843
    19.2994  19.2996  19.3401  19.3402  19.3657  19.4293  19.6387  19.6387
    19.7549  19.8369  19.8370  19.8510  19.8510  19.9403  20.3352  20.3353
    20.6215  20.7404  20.7621  20.7622  20.7883  20.8613  20.8651  20.8688
    20.8688  21.0489  21.0655  21.1298  21.1659  21.2163

          k = 0.0556 0.1667 0.2778 ( 12535 PWs)   bands (ev):

   -52.3348 -52.2897 -52.2789 -52.2738 -52.2650 -52.2623 -52.2584 -52.2477
   -51.7778 -51.7766 -51.7732 -51.7681 -51.7667 -51.7629 -51.7520 -51.7481
   -23.9409 -23.9289 -23.9284 -23.9183 -23.9051 -23.8830 -23.7840 -23.7816
   -23.7757 -23.7582 -23.7520 -23.7352 -23.6799 -23.6674 -23.6660 -23.6506
   -23.6404 -23.5891 -23.5723 -23.5531 -23.5507 -23.5477 -23.5361 -23.5278
   -23.1769 -23.1628 -23.1447 -23.1210 -23.1197 -23.0974 -23.0674 -23.0608
   -23.0498 -23.0361 -23.0347 -23.0162 -22.9985 -22.9974 -22.9940 -22.9923
   -22.9907 -22.9719 -22.9711 -22.9613 -22.9466 -22.9290 -22.9244 -22.9062
    12.3285  14.3548  15.0514  15.2072  15.4103  15.5333  15.5371  15.5588
    15.6070  15.6130  15.6365  15.6401  16.0059  16.1828  16.2582  16.7168
    16.7487  16.8990  17.1079  17.1906  17.2129  17.2258  17.2923  17.3499
    17.3776  17.4195  17.4509  17.6122  17.7561  17.8216  17.9317  18.1587
    18.3742  18.4896  18.4997  18.5664  18.5778  18.6406  18.6863  18.8489
    18.9244  19.0761  19.1325  19.2939  19.3342  19.4135  19.4395  19.4888
    19.5491  19.6765  19.6899  19.9233  19.9380  20.0796  20.1244  20.4592
    20.5988  20.6479  20.7012  20.7532  20.7885  20.8025  20.9163  20.9163
    21.0202  21.0658  21.0733  21.1795  21.2219  21.2511

          k = 0.0556 0.1667 0.3889 ( 12544 PWs)   bands (ev):

   -52.3247 -52.3007 -52.2757 -52.2711 -52.2683 -52.2650 -52.2559 -52.2502
   -51.7752 -51.7746 -51.7701 -51.7693 -51.7669 -51.7604 -51.7546 -51.7536
   -23.9095 -23.8963 -23.8953 -23.8871 -23.8562 -23.8297 -23.8245 -23.8192
   -23.8146 -23.8029 -23.7540 -23.7452 -23.7316 -23.7030 -23.6580 -23.6406
   -23.6296 -23.6042 -23.5927 -23.5800 -23.5488 -23.5431 -23.5402 -23.5325
   -23.1550 -23.1304 -23.1037 -23.0958 -23.0784 -23.0769 -23.0602 -23.0586
   -23.0551 -23.0386 -23.0376 -23.0352 -23.0213 -22.9991 -22.9986 -22.9917
   -22.9884 -22.9817 -22.9752 -22.9676 -22.9550 -22.9433 -22.9387 -22.9209
    12.7103  13.7528  15.1467  15.2168  15.5115  15.6437  15.6826  15.7377
    15.7961  15.8216  15.8440  15.9381  15.9668  16.0923  16.1855  16.3956
    16.4713  16.6487  17.0807  17.1416  17.1526  17.1713  17.4474  17.5173
    17.5396  17.5667  17.6065  17.7489  17.8603  18.0129  18.1422  18.2290
    18.2470  18.2805  18.3286  18.3695  18.5035  18.5171  18.5408  18.5446
    18.5946  18.6570  18.7619  18.8698  18.9444  18.9978  19.3042  19.6472
    19.7635  19.9452  19.9916  20.1116  20.1308  20.1384  20.2900  20.3663
    20.4168  20.4850  20.5784  20.6323  20.8215  20.8573  20.9749  20.9962
    21.0217  21.0704  21.0728  21.1169  21.1969  21.2048

          k = 0.0556 0.1667-0.5000 ( 12520 PWs)   bands (ev):

   -52.3129 -52.3128 -52.2721 -52.2719 -52.2681 -52.2680 -52.2531 -52.2530
   -51.7725 -51.7724 -51.7722 -51.7721 -51.7602 -51.7599 -51.7577 -51.7573
   -23.8692 -23.8691 -23.8583 -23.8582 -23.8559 -23.8558 -23.8478 -23.8477
   -23.7967 -23.7966 -23.7682 -23.7681 -23.7517 -23.7516 -23.6316 -23.6315
   -23.6106 -23.6105 -23.6096 -23.6095 -23.5447 -23.5446 -23.5379 -23.5377
   -23.1266 -23.1264 -23.0868 -23.0867 -23.0638 -23.0637 -23.0603 -23.0601
   -23.0362 -23.0359 -23.0337 -23.0334 -23.0330 -23.0327 -23.0213 -23.0211
   -22.9670 -22.9668 -22.9666 -22.9663 -22.9546 -22.9545 -22.9422 -22.9421
    13.1932  13.1935  15.2038  15.2040  15.6029  15.6031  15.8422  15.8423
    15.9272  15.9273  16.0114  16.0116  16.0916  16.0918  16.1497  16.1498
    16.2942  16.2946  17.0990  17.0991  17.1342  17.1343  17.6862  17.6863
    17.7307  17.7309  17.7584  17.7585  17.8227  17.8229  18.1962  18.1963
    18.2010  18.2012  18.3826  18.3826  18.4581  18.4582  18.4946  18.4946
    18.5265  18.5265  18.5913  18.5914  18.6281  18.6282  19.4918  19.4919
    20.0766  20.0767  20.1231  20.1231  20.2673  20.2674  20.3632  20.3633
    20.3998  20.3999  20.4263  20.4264  20.7963  20.7965  20.9178  20.9180
    21.0832  21.0833  21.0979  21.0981  21.1541  21.1543

          k = 0.0556 0.2778 0.2778 ( 12530 PWs)   bands (ev):

   -52.3280 -52.2868 -52.2864 -52.2718 -52.2683 -52.2606 -52.2602 -52.2496
   -51.7759 -51.7725 -51.7725 -51.7687 -51.7649 -51.7648 -51.7539 -51.7514
   -23.9296 -23.9095 -23.9092 -23.8870 -23.8870 -23.8379 -23.8016 -23.7958
   -23.7880 -23.7878 -23.7699 -23.7540 -23.6956 -23.6665 -23.6640 -23.6297
   -23.6210 -23.6207 -23.5674 -23.5671 -23.5651 -23.5579 -23.5578 -23.5339
   -23.1719 -23.1479 -23.1478 -23.0950 -23.0911 -23.0743 -23.0743 -23.0734
   -23.0654 -23.0354 -23.0322 -23.0183 -23.0182 -23.0181 -22.9841 -22.9841
   -22.9826 -22.9728 -22.9728 -22.9589 -22.9589 -22.9363 -22.9235 -22.9041
    12.5829  14.5007  14.5008  15.1147  15.6195  15.6195  15.7182  15.7209
    15.7219  15.7427  15.7427  15.7991  16.0978  16.2709  16.2710  16.6433
    16.8145  16.8756  16.8757  17.1425  17.2900  17.2900  17.3454  17.3455
    17.3567  17.3905  17.4403  17.5998  17.7003  17.8282  17.9405  18.2537
    18.2539  18.3800  18.3802  18.3943  18.4224  18.4430  18.5024  18.6391
    18.8570  18.8570  19.0051  19.0052  19.1094  19.1971  19.1973  19.3287
    19.8019  19.8020  19.8590  20.0432  20.0663  20.0664  20.2933  20.4353
    20.4354  20.5922  20.7046  20.7047  20.7608  20.7947  20.7948  20.8356
    20.8837  20.9834  21.0759  21.1098  21.2046  21.2324

          k = 0.0556 0.2778 0.3889 ( 12541 PWs)   bands (ev):

   -52.3186 -52.2966 -52.2823 -52.2726 -52.2691 -52.2631 -52.2579 -52.2521
   -51.7733 -51.7716 -51.7696 -51.7675 -51.7672 -51.7623 -51.7565 -51.7560
   -23.9052 -23.8836 -23.8828 -23.8613 -23.8439 -23.8297 -23.8260 -23.8225
   -23.7969 -23.7886 -23.7835 -23.7707 -23.7404 -23.6682 -23.6468 -23.6460
   -23.6119 -23.6101 -23.5896 -23.5865 -23.5706 -23.5637 -23.5599 -23.5421
   -23.1566 -23.1379 -23.1229 -23.1035 -23.0814 -23.0805 -23.0746 -23.0635
   -23.0590 -23.0582 -23.0327 -23.0260 -23.0207 -23.0045 -23.0036 -22.9965
   -22.9775 -22.9701 -22.9586 -22.9533 -22.9517 -22.9476 -22.9257 -22.9109
    12.9499  13.9394  14.6811  15.0037  15.7179  15.7995  15.8805  15.8843
    15.8901  15.9025  16.0175  16.0315  16.1203  16.1955  16.2128  16.4853
    16.5608  16.6487  17.1328  17.1468  17.2189  17.2680  17.2719  17.3779
    17.4140  17.4801  17.5372  17.5684  17.8934  17.9608  17.9907  18.0979
    18.1123  18.2223  18.2487  18.3364  18.3432  18.3499  18.3992  18.4636
    18.5509  18.5838  18.5842  18.6758  18.7338  18.8105  19.4938  19.5315
    19.9857  20.0064  20.1049  20.1480  20.1898  20.1935  20.2206  20.2949
    20.4353  20.4646  20.5615  20.6165  20.6499  20.7761  20.7935  20.8814
    20.9255  20.9464  20.9530  21.0941  21.1225  21.1408

          k = 0.0556 0.2778-0.5000 ( 12514 PWs)   bands (ev):

   -52.3078 -52.3077 -52.2775 -52.2774 -52.2662 -52.2661 -52.2550 -52.2549
   -51.7708 -51.7705 -51.7704 -51.7702 -51.7616 -51.7613 -51.7596 -51.7592
   -23.8704 -23.8704 -23.8546 -23.8545 -23.8526 -23.8525 -23.8299 -23.8298
   -23.7929 -23.7928 -23.7827 -23.7826 -23.7248 -23.7248 -23.6237 -23.6236
   -23.6177 -23.6176 -23.6007 -23.6007 -23.5689 -23.5688 -23.5511 -23.5510
   -23.1325 -23.1323 -23.1122 -23.1121 -23.0914 -23.0914 -23.0835 -23.0834
   -23.0320 -23.0317 -23.0291 -23.0289 -23.0238 -23.0235 -23.0026 -23.0025
   -22.9741 -22.9738 -22.9621 -22.9620 -22.9353 -22.9352 -22.9261 -22.9260
    13.4107  13.4109  14.8580  14.8582  15.7942  15.7943  16.0301  16.0301
    16.0573  16.0574  16.0600  16.0602  16.2149  16.2150  16.2748  16.2750
    16.3596  16.3599  17.1573  17.1573  17.2248  17.2249  17.4769  17.4770
    17.5249  17.5251  17.5371  17.5373  17.7555  17.7556  18.1517  18.1518
    18.2087  18.2088  18.2764  18.2764  18.3325  18.3326  18.3620  18.3621
    18.4364  18.4364  18.4589  18.4589  18.5268  18.5268  19.6652  19.6652
    20.0473  20.0473  20.1376  20.1376  20.2495  20.2496  20.3590  20.3591
    20.4149  20.4150  20.4452  20.4453  20.5946  20.5948  20.8529  20.8530
    20.9976  20.9978  21.0832  21.0834  21.1284  21.1285

          k = 0.0556 0.3889 0.3889 ( 12500 PWs)   bands (ev):

   -52.3104 -52.2912 -52.2909 -52.2783 -52.2665 -52.2607 -52.2603 -52.2547
   -51.7707 -51.7690 -51.7677 -51.7677 -51.7649 -51.7649 -51.7594 -51.7590
   -23.8883 -23.8673 -23.8670 -23.8367 -23.8344 -23.8274 -23.8272 -23.8266
   -23.8263 -23.7982 -23.7948 -23.7599 -23.7312 -23.6409 -23.6364 -23.6361
   -23.6304 -23.6025 -23.5930 -23.5927 -23.5882 -23.5807 -23.5804 -23.5544
   -23.1489 -23.1330 -23.1329 -23.1077 -23.1076 -23.1072 -23.0965 -23.0885
   -23.0453 -23.0419 -23.0190 -23.0135 -23.0134 -23.0068 -23.0031 -23.0031
   -22.9682 -22.9682 -22.9674 -22.9635 -22.9309 -22.9309 -22.9195 -22.9091
    13.2921  14.1908  14.1909  14.7541  15.9558  15.9891  15.9892  15.9918
    16.0231  16.1518  16.1518  16.1896  16.1898  16.2525  16.2563  16.4409
    16.5980  16.8400  16.8401  17.1555  17.2674  17.2913  17.2914  17.3260
    17.3619  17.3620  17.4062  17.5789  17.6611  17.7778  18.0106  18.0108
    18.0669  18.0954  18.1789  18.1790  18.1931  18.2702  18.3747  18.3747
    18.3922  18.3924  18.4015  18.5073  18.5455  19.1238  19.1240  19.6726
    20.0599  20.1119  20.1121  20.1487  20.2898  20.3063  20.3064  20.3568
    20.5001  20.5100  20.5101  20.6345  20.6512  20.6580  20.6582  20.7121
    20.7121  20.8498  20.9209  20.9970  21.0405  21.1252

          k = 0.0556 0.3889-0.5000 ( 12520 PWs)   bands (ev):

   -52.3009 -52.3008 -52.2847 -52.2846 -52.2636 -52.2635 -52.2576 -52.2575
   -51.7685 -51.7682 -51.7680 -51.7676 -51.7636 -51.7633 -51.7621 -51.7618
   -23.8611 -23.8611 -23.8510 -23.8510 -23.8500 -23.8499 -23.8144 -23.8144
   -23.8101 -23.8100 -23.7909 -23.7908 -23.6795 -23.6795 -23.6214 -23.6213
   -23.6195 -23.6194 -23.5986 -23.5985 -23.5951 -23.5951 -23.5681 -23.5679
   -23.1319 -23.1318 -23.1282 -23.1282 -23.1151 -23.1151 -23.1057 -23.1056
   -23.0280 -23.0277 -23.0263 -23.0260 -23.0110 -23.0107 -22.9847 -22.9846
   -22.9845 -22.9844 -22.9631 -22.9631 -22.9213 -22.9213 -22.9162 -22.9161
    13.7155  13.7157  14.4743  14.4745  16.0262  16.0263  16.1069  16.1071
    16.1253  16.1254  16.2550  16.2551  16.2626  16.2627  16.4236  16.4238
    16.5379  16.5381  17.1915  17.1917  17.1930  17.1931  17.2901  17.2902
    17.3020  17.3021  17.3828  17.3830  17.8108  17.8109  17.9351  17.9352
    18.0190  18.0191  18.0796  18.0796  18.1813  18.1814  18.2353  18.2354
    18.4169  18.4169  18.4430  18.4430  18.7466  18.7466  19.4602  19.4602
    20.0510  20.0510  20.2290  20.2290  20.3473  20.3473  20.4503  20.4504
    20.5033  20.5034  20.5103  20.5104  20.5148  20.5148  20.7563  20.7564
    20.8456  20.8456  20.8514  20.8516  21.0024  21.0026

          k = 0.0556-0.5000-0.5000 ( 12492 PWs)   bands (ev):

   -52.2930 -52.2930 -52.2927 -52.2925 -52.2608 -52.2607 -52.2605 -52.2603
   -51.7661 -51.7659 -51.7658 -51.7656 -51.7651 -51.7650 -51.7648 -51.7647
   -23.8494 -23.8494 -23.8492 -23.8490 -23.8416 -23.8416 -23.8413 -23.8413
   -23.7958 -23.7958 -23.7955 -23.7955 -23.6408 -23.6408 -23.6405 -23.6405
   -23.6148 -23.6148 -23.6144 -23.6144 -23.5857 -23.5857 -23.5854 -23.5852
   -23.1289 -23.1289 -23.1288 -23.1288 -23.1228 -23.1228 -23.1227 -23.1227
   -23.0259 -23.0258 -23.0256 -23.0255 -22.9974 -22.9973 -22.9971 -22.9970
   -22.9708 -22.9708 -22.9708 -22.9708 -22.9146 -22.9146 -22.9146 -22.9146
    14.0813  14.0814  14.0816  14.0817  16.1361  16.1361  16.1363  16.1364
    16.2106  16.2107  16.2108  16.2108  16.4132  16.4132  16.4133  16.4134
    16.8529  16.8530  16.8532  16.8533  17.2024  17.2025  17.2027  17.2027
    17.3143  17.3143  17.3144  17.3145  17.8925  17.8926  17.8928  17.8929
    17.9210  17.9210  17.9212  17.9212  18.1521  18.1522  18.1523  18.1523
    18.4040  18.4041  18.4042  18.4043  19.0969  19.0969  19.0971  19.0971
    20.1525  20.1525  20.1526  20.1527  20.5201  20.5202  20.5202  20.5202
    20.5517  20.5517  20.5518  20.5518  20.6370  20.6372  20.6373  20.6374
    20.6779  20.6780  20.6782  20.6782  20.9742  20.9743

          k = 0.1667 0.1667 0.1667 ( 12545 PWs)   bands (ev):

   -52.3384 -52.2805 -52.2799 -52.2799 -52.2620 -52.2614 -52.2614 -52.2468
   -51.7773 -51.7773 -51.7773 -51.7656 -51.7656 -51.7656 -51.7511 -51.7461
   -23.9475 -23.9475 -23.9473 -23.9156 -23.9154 -23.9154 -23.7625 -23.7619
   -23.7618 -23.7618 -23.7149 -23.7149 -23.7060 -23.7060 -23.6489 -23.6057
   -23.6057 -23.6057 -23.5617 -23.5617 -23.5614 -23.5356 -23.5356 -23.5356
   -23.1654 -23.1654 -23.1602 -23.1602 -23.1601 -23.1061 -23.0472 -23.0472
   -23.0471 -23.0438 -23.0438 -23.0438 -23.0025 -23.0025 -23.0025 -22.9782
   -22.9674 -22.9674 -22.9674 -22.9380 -22.9380 -22.9380 -22.9076 -22.9076
    12.1976  15.0208  15.0209  15.0209  15.3173  15.3173  15.3173  15.5181
    15.5181  15.5181  15.5551  15.5551  16.2316  16.2316  16.2316  16.7758
    17.1069  17.1069  17.1133  17.1133  17.1134  17.2579  17.2579  17.2581
    17.3831  17.3832  17.3832  17.5561  17.6173  17.6173  18.1243  18.1243
    18.1245  18.5855  18.5858  18.5858  18.6178  18.6178  19.0800  19.0800
    19.0802  19.1139  19.2548  19.2548  19.2549  19.4841  19.4841  19.4842
    19.6494  19.6496  19.6496  19.9229  19.9229  19.9230  20.5667  20.5667
    20.5668  20.6592  20.6592  20.6593  20.7845  20.7845  20.8607  20.8607
    20.8607  21.0513  21.0513  21.1617  21.1617  21.1619

          k = 0.1667 0.1667 0.2778 ( 12529 PWs)   bands (ev):

   -52.3313 -52.2881 -52.2779 -52.2775 -52.2642 -52.2638 -52.2597 -52.2487
   -51.7758 -51.7758 -51.7728 -51.7671 -51.7671 -51.7638 -51.7530 -51.7497
   -23.9292 -23.9291 -23.9228 -23.8981 -23.8767 -23.8766 -23.7892 -23.7891
   -23.7865 -23.7661 -23.7473 -23.7337 -23.6983 -23.6816 -23.6500 -23.6498
   -23.6275 -23.5940 -23.5856 -23.5637 -23.5637 -23.5572 -23.5405 -23.5404
   -23.1622 -23.1524 -23.1273 -23.1273 -23.1260 -23.0743 -23.0701 -23.0504
   -23.0504 -23.0479 -23.0479 -23.0219 -23.0152 -22.9874 -22.9874 -22.9854
   -22.9854 -22.9814 -22.9760 -22.9608 -22.9390 -22.9390 -22.9220 -22.9100
    12.4574  14.4402  15.1320  15.1321  15.3247  15.3247  15.5363  15.6637
    15.6637  15.6847  15.7052  15.7230  16.2665  16.2665  16.3264  16.6781
    16.7535  16.9893  17.0807  17.1519  17.1521  17.2161  17.3151  17.3487
    17.3488  17.3885  17.5493  17.5493  17.6790  17.8484  17.9685  17.9687
    18.3088  18.3842  18.3843  18.4816  18.5225  18.5845  18.7771  18.7772
    18.7798  18.7798  19.0435  19.1863  19.1864  19.2179  19.2832  19.2873
    19.6443  19.7539  19.7540  20.0291  20.0291  20.1976  20.3189  20.5189
    20.5190  20.6353  20.7303  20.7844  20.7844  20.8549  20.8681  20.8875
    20.8876  20.8963  21.0192  21.0580  21.1499  21.2105

          k = 0.1667 0.1667 0.3889 ( 12537 PWs)   bands (ev):

   -52.3216 -52.2986 -52.2747 -52.2743 -52.2674 -52.2670 -52.2571 -52.2513
   -51.7738 -51.7738 -51.7691 -51.7691 -51.7670 -51.7613 -51.7555 -51.7547
   -23.9000 -23.8999 -23.8876 -23.8740 -23.8268 -23.8266 -23.8249 -23.8248
   -23.8151 -23.7957 -23.7662 -23.7493 -23.7079 -23.7077 -23.6747 -23.6519
   -23.6154 -23.6084 -23.5893 -23.5860 -23.5601 -23.5600 -23.5470 -23.5469
   -23.1479 -23.1320 -23.0974 -23.0924 -23.0924 -23.0800 -23.0575 -23.0556
   -23.0556 -23.0471 -23.0470 -23.0426 -23.0122 -23.0121 -22.9953 -22.9936
   -22.9915 -22.9689 -22.9689 -22.9582 -22.9449 -22.9448 -22.9426 -22.9203
    12.8331  13.8543  15.2439  15.2439  15.3340  15.3341  15.8390  15.8421
    15.8422  15.8753  15.9011  16.0061  16.1941  16.1942  16.2677  16.4182
    16.4947  16.6844  17.0862  17.1655  17.2304  17.2416  17.3505  17.3506
    17.4967  17.4968  17.7378  17.7379  17.8529  17.8530  17.9612  18.1304
    18.2367  18.2368  18.3137  18.3138  18.4171  18.4237  18.4511  18.4688
    18.4688  18.5400  18.7071  18.7072  18.7596  18.7615  19.4677  19.5275
    19.8904  20.0304  20.0305  20.1068  20.1727  20.1727  20.3686  20.3686
    20.4234  20.4540  20.5424  20.6263  20.6263  20.8161  20.9674  20.9704
    20.9823  21.0724  21.1265  21.1788  21.1789  21.1877

          k = 0.1667 0.1667-0.5000 ( 12494 PWs)   bands (ev):

   -52.3103 -52.3102 -52.2711 -52.2710 -52.2707 -52.2706 -52.2543 -52.2541
   -51.7716 -51.7716 -51.7713 -51.7713 -51.7609 -51.7605 -51.7585 -51.7582
   -23.8637 -23.8636 -23.8636 -23.8635 -23.8453 -23.8452 -23.8441 -23.8440
   -23.7689 -23.7688 -23.7687 -23.7687 -23.7604 -23.7603 -23.6462 -23.6461
   -23.6188 -23.6187 -23.5945 -23.5944 -23.5539 -23.5539 -23.5538 -23.5538
   -23.1249 -23.1248 -23.0986 -23.0985 -23.0663 -23.0663 -23.0662 -23.0662
   -23.0362 -23.0362 -23.0359 -23.0359 -23.0344 -23.0341 -23.0141 -23.0140
   -22.9679 -22.9676 -22.9549 -22.9549 -22.9548 -22.9548 -22.9370 -22.9369
    13.3070  13.3073  15.3146  15.3147  15.3148  15.3148  16.0320  16.0320
    16.0321  16.0321  16.1057  16.1059  16.1220  16.1222  16.1853  16.1854
    16.3378  16.3382  17.1180  17.1181  17.1959  17.1959  17.6568  17.6569
    17.6570  17.6571  17.6954  17.6954  17.6955  17.6956  18.1879  18.1880
    18.1880  18.1881  18.3333  18.3333  18.3662  18.3662  18.3663  18.3663
    18.4152  18.4152  18.4430  18.4431  18.4864  18.4864  19.6187  19.6188
    20.1256  20.1257  20.1655  20.1656  20.2167  20.2167  20.2167  20.2167
    20.4015  20.4015  20.4015  20.4015  20.8981  20.8983  20.9319  20.9321
    21.0728  21.0731  21.0967  21.0969  21.1198  21.1200

          k = 0.1667 0.2778 0.2778 ( 12552 PWs)   bands (ev):

   -52.3248 -52.2852 -52.2848 -52.2754 -52.2671 -52.2622 -52.2618 -52.2507
   -51.7742 -51.7721 -51.7720 -51.7678 -51.7653 -51.7653 -51.7548 -51.7527
   -23.9174 -23.9064 -23.9062 -23.8648 -23.8648 -23.8349 -23.8045 -23.8003
   -23.7927 -23.7925 -23.7533 -23.7448 -23.6961 -23.6872 -23.6757 -23.6268
   -23.6266 -23.6071 -23.5858 -23.5855 -23.5802 -23.5645 -23.5644 -23.5487
   -23.1499 -23.1334 -23.1334 -23.1061 -23.0997 -23.0738 -23.0737 -23.0598
   -23.0534 -23.0487 -23.0487 -23.0263 -23.0263 -23.0066 -22.9889 -22.9888
   -22.9726 -22.9658 -22.9658 -22.9585 -22.9585 -22.9347 -22.9314 -22.9121
    12.7092  14.5948  14.5949  15.2371  15.2700  15.5506  15.5506  15.8069
    15.8221  15.8549  15.8624  15.8624  16.3731  16.3732  16.3757  16.6395
    16.8452  16.8452  16.9374  17.0988  17.1305  17.2974  17.2975  17.4111
    17.4449  17.4450  17.4840  17.4874  17.7360  17.7915  17.8298  18.1155
    18.1157  18.2705  18.3098  18.3100  18.3762  18.4129  18.5116  18.5668
    18.6331  18.6331  18.8291  18.8292  18.8819  18.9524  18.9525  19.4770
    19.8944  19.8945  19.9327  20.1593  20.2314  20.2315  20.3843  20.4539
    20.6235  20.6235  20.6425  20.6443  20.6444  20.7647  20.8147  20.8148
    20.8335  20.9955  21.0605  21.1122  21.1137  21.1806

          k = 0.1667 0.2778 0.3889 ( 12532 PWs)   bands (ev):

   -52.3158 -52.2946 -52.2808 -52.2723 -52.2713 -52.2651 -52.2594 -52.2533
   -51.7721 -51.7711 -51.7688 -51.7674 -51.7672 -51.7629 -51.7573 -51.7569
   -23.8939 -23.8821 -23.8745 -23.8482 -23.8269 -23.8265 -23.8211 -23.8172
   -23.7897 -23.7878 -23.7840 -23.7637 -23.7192 -23.6763 -23.6742 -23.6645
   -23.6232 -23.5969 -23.5960 -23.5935 -23.5849 -23.5795 -23.5732 -23.5591
   -23.1389 -23.1298 -23.1091 -23.0987 -23.0837 -23.0764 -23.0761 -23.0690
   -23.0633 -23.0602 -23.0286 -23.0243 -23.0217 -23.0087 -23.0006 -23.0004
   -22.9828 -22.9631 -22.9567 -22.9517 -22.9502 -22.9460 -22.9353 -22.9175
    13.0719  14.0457  14.7868  15.1265  15.4182  15.5581  15.8647  15.9699
    15.9955  16.0380  16.0645  16.1300  16.3063  16.3215  16.3707  16.5280
    16.5594  16.7035  17.1039  17.1373  17.2009  17.2348  17.3169  17.3348
    17.4209  17.5325  17.5588  17.6718  17.7043  17.8667  17.9113  17.9909
    18.0453  18.1321  18.1869  18.2235  18.2401  18.3051  18.3143  18.3468
    18.3928  18.4450  18.4456  18.4715  18.5419  18.6123  19.1891  19.6240
    20.0919  20.1235  20.1346  20.1686  20.2616  20.2746  20.2907  20.3748
    20.5037  20.5112  20.5225  20.6561  20.6582  20.7454  20.8884  20.9191
    20.9380  20.9883  21.0825  21.1292  21.1302  21.1539

          k = 0.1667 0.2778-0.5000 ( 12518 PWs)   bands (ev):

   -52.3054 -52.3053 -52.2762 -52.2760 -52.2688 -52.2687 -52.2564 -52.2563
   -51.7701 -51.7699 -51.7698 -51.7696 -51.7621 -51.7618 -51.7602 -51.7599
   -23.8622 -23.8622 -23.8542 -23.8541 -23.8402 -23.8401 -23.8251 -23.8250
   -23.7797 -23.7796 -23.7707 -23.7706 -23.7287 -23.7286 -23.6497 -23.6496
   -23.6312 -23.6311 -23.5903 -23.5902 -23.5811 -23.5811 -23.5701 -23.5700
   -23.1215 -23.1214 -23.1127 -23.1127 -23.0837 -23.0836 -23.0764 -23.0763
   -23.0343 -23.0341 -23.0304 -23.0302 -23.0281 -23.0278 -23.0031 -23.0030
   -22.9742 -22.9739 -22.9578 -22.9578 -22.9410 -22.9409 -22.9292 -22.9291
    13.5262  13.5264  14.9746  14.9748  15.5218  15.5219  16.1593  16.1595
    16.1657  16.1658  16.2255  16.2256  16.2272  16.2273  16.3025  16.3027
    16.4224  16.4227  17.1749  17.1749  17.2690  17.2691  17.4454  17.4455
    17.4750  17.4752  17.5697  17.5698  17.7072  17.7073  18.0304  18.0304
    18.0932  18.0933  18.2205  18.2205  18.2307  18.2308  18.2355  18.2356
    18.2713  18.2714  18.3224  18.3224  18.3760  18.3761  19.4761  19.4761
    20.1386  20.1386  20.2071  20.2071  20.3141  20.3143  20.3718  20.3719
    20.4545  20.4546  20.4598  20.4598  20.8540  20.8542  20.8661  20.8663
    20.9998  21.0001  21.0573  21.0575  21.1202  21.1204

          k = 0.1667 0.3889 0.3889 ( 12503 PWs)   bands (ev):

   -52.3078 -52.2894 -52.2890 -52.2768 -52.2693 -52.2626 -52.2622 -52.2561
   -51.7700 -51.7684 -51.7675 -51.7675 -51.7650 -51.7650 -51.7600 -51.7596
   -23.8769 -23.8590 -23.8588 -23.8330 -23.8229 -23.8201 -23.8199 -23.8132
   -23.8131 -23.7901 -23.7850 -23.7412 -23.7349 -23.6630 -23.6620 -23.6448
   -23.6444 -23.6063 -23.6061 -23.6050 -23.5996 -23.5992 -23.5902 -23.5741
   -23.1288 -23.1198 -23.1198 -23.1069 -23.0971 -23.0970 -23.0816 -23.0810
   -23.0489 -23.0478 -23.0202 -23.0130 -23.0129 -23.0068 -23.0068 -23.0063
   -22.9726 -22.9726 -22.9652 -22.9615 -22.9356 -22.9356 -22.9300 -22.9178
    13.4125  14.3036  14.3037  14.8778  15.6237  15.8650  15.8650  16.0861
    16.1307  16.2933  16.2933  16.2972  16.2994  16.2995  16.4715  16.5176
    16.6597  16.8399  16.8400  17.1171  17.1778  17.3216  17.3217  17.3542
    17.3937  17.3937  17.5310  17.5670  17.5770  17.6310  17.9560  17.9619
    17.9621  17.9858  18.0468  18.0469  18.1554  18.2026  18.2100  18.2100
    18.2117  18.2435  18.2437  18.3615  18.3644  18.8261  18.8262  19.4541
    20.1553  20.2401  20.2973  20.2974  20.3510  20.4216  20.4217  20.4324
    20.5537  20.6509  20.6578  20.6579  20.7210  20.7211  20.7417  20.7418
    20.8760  20.8954  20.9704  21.0184  21.0411  21.1097

          k = 0.1667 0.3889-0.5000 ( 12518 PWs)   bands (ev):

   -52.2987 -52.2986 -52.2831 -52.2830 -52.2659 -52.2658 -52.2593 -52.2592
   -51.7681 -51.7678 -51.7677 -51.7673 -51.7638 -51.7635 -51.7625 -51.7622
   -23.8510 -23.8509 -23.8441 -23.8440 -23.8366 -23.8365 -23.8055 -23.8055
   -23.8023 -23.8022 -23.7749 -23.7748 -23.6857 -23.6857 -23.6446 -23.6445
   -23.6391 -23.6391 -23.6114 -23.6113 -23.5989 -23.5989 -23.5892 -23.5891
   -23.1198 -23.1198 -23.1152 -23.1152 -23.1026 -23.1025 -23.0912 -23.0911
   -23.0296 -23.0294 -23.0267 -23.0265 -23.0141 -23.0138 -22.9896 -22.9896
   -22.9851 -22.9848 -22.9650 -22.9650 -22.9300 -22.9300 -22.9240 -22.9240
    13.8331  13.8333  14.5939  14.5941  15.7900  15.7902  16.2054  16.2055
    16.2087  16.2089  16.2345  16.2346  16.4602  16.4603  16.5359  16.5360
    16.5652  16.5653  17.1914  17.1916  17.2195  17.2196  17.2446  17.2448
    17.3173  17.3174  17.4444  17.4445  17.7705  17.7706  17.7713  17.7713
    17.9076  17.9077  18.0390  18.0390  18.0541  18.0542  18.1262  18.1263
    18.2521  18.2521  18.2934  18.2935  18.4915  18.4915  19.1193  19.1193
    20.2796  20.2796  20.3933  20.3933  20.4845  20.4846  20.5361  20.5362
    20.5482  20.5484  20.5603  20.5604  20.6751  20.6752  20.7834  20.7835
    20.8756  20.8758  20.9861  20.9863  21.0332  21.0334

          k = 0.1667-0.5000-0.5000 ( 12516 PWs)   bands (ev):

   -52.2911 -52.2911 -52.2908 -52.2906 -52.2627 -52.2627 -52.2624 -52.2622
   -51.7660 -51.7659 -51.7657 -51.7655 -51.7651 -51.7650 -51.7648 -51.7647
   -23.8377 -23.8376 -23.8374 -23.8373 -23.8309 -23.8309 -23.8307 -23.8307
   -23.7845 -23.7845 -23.7842 -23.7842 -23.6518 -23.6518 -23.6514 -23.6514
   -23.6336 -23.6336 -23.6332 -23.6332 -23.6040 -23.6039 -23.6037 -23.6035
   -23.1160 -23.1160 -23.1159 -23.1159 -23.1050 -23.1050 -23.1049 -23.1049
   -23.0264 -23.0263 -23.0262 -23.0261 -22.9991 -22.9989 -22.9988 -22.9986
   -22.9761 -22.9760 -22.9760 -22.9760 -22.9243 -22.9243 -22.9242 -22.9242
    14.2007  14.2008  14.2009  14.2011  16.0499  16.0499  16.0500  16.0501
    16.2421  16.2422  16.2423  16.2424  16.5988  16.5989  16.5989  16.5989
    16.8733  16.8734  16.8736  16.8736  17.1729  17.1729  17.1730  17.1731
    17.3585  17.3585  17.3586  17.3586  17.7465  17.7465  17.7467  17.7468
    17.8824  17.8824  17.8826  17.8826  18.0424  18.0424  18.0425  18.0425
    18.2471  18.2471  18.2472  18.2473  18.7744  18.7744  18.7745  18.7745
    20.4299  20.4299  20.4300  20.4300  20.5710  20.5711  20.5712  20.5712
    20.6819  20.6820  20.6822  20.6823  20.7200  20.7200  20.7202  20.7203
    20.7513  20.7513  20.7514  20.7514  20.9659  20.9661

          k = 0.2778 0.2778 0.2778 ( 12551 PWs)   bands (ev):

   -52.3187 -52.2824 -52.2819 -52.2819 -52.2654 -52.2648 -52.2648 -52.2528
   -51.7712 -51.7712 -51.7712 -51.7662 -51.7662 -51.7662 -51.7565 -51.7552
   -23.8937 -23.8937 -23.8935 -23.8295 -23.8294 -23.8294 -23.8049 -23.8037
   -23.8035 -23.8035 -23.7270 -23.7270 -23.7261 -23.7261 -23.6458 -23.6458
   -23.6457 -23.6064 -23.6064 -23.6061 -23.5907 -23.5761 -23.5760 -23.5760
   -23.1130 -23.1130 -23.1101 -23.1101 -23.1100 -23.0730 -23.0727 -23.0727
   -23.0726 -23.0358 -23.0357 -23.0357 -23.0303 -22.9998 -22.9998 -22.9997
   -22.9584 -22.9584 -22.9584 -22.9564 -22.9564 -22.9564 -22.9278 -22.9278
    12.9554  14.7669  14.7670  14.7670  15.4739  15.4740  15.4740  15.9645
    15.9645  16.0180  16.0180  16.0181  16.5235  16.5235  16.5235  16.6524
    16.8287  16.8287  16.8288  17.1322  17.1369  17.1369  17.3583  17.3583
    17.3584  17.5853  17.5854  17.5854  17.6313  17.6313  17.9475  17.9475
    17.9477  18.1667  18.1669  18.1669  18.2842  18.2842  18.2844  18.3561
    18.3561  18.5293  18.5294  18.5294  18.6464  18.6464  18.6465  19.6154
    20.0685  20.0685  20.0686  20.1152  20.3760  20.3760  20.3761  20.5373
    20.5373  20.5373  20.7358  20.7358  20.8012  20.8012  20.8013  20.9459
    20.9459  20.9460  21.0219  21.0219  21.1144  21.1144

          k = 0.2778 0.2778 0.3889 ( 12507 PWs)   bands (ev):

   -52.3103 -52.2909 -52.2783 -52.2779 -52.2692 -52.2688 -52.2621 -52.2557
   -51.7700 -51.7700 -51.7674 -51.7673 -51.7671 -51.7639 -51.7588 -51.7587
   -23.8726 -23.8725 -23.8599 -23.8226 -23.8225 -23.8224 -23.8099 -23.7953
   -23.7852 -23.7851 -23.7721 -23.7554 -23.7019 -23.6913 -23.6866 -23.6865
   -23.6381 -23.6159 -23.6117 -23.6096 -23.6096 -23.5898 -23.5897 -23.5855
   -23.1154 -23.1124 -23.0959 -23.0903 -23.0861 -23.0860 -23.0714 -23.0713
   -23.0696 -23.0408 -23.0407 -23.0163 -23.0163 -23.0147 -23.0066 -22.9987
   -22.9875 -22.9536 -22.9536 -22.9536 -22.9536 -22.9497 -22.9446 -22.9281
    13.3087  14.2467  14.9835  14.9835  15.3635  15.3635  15.8085  16.1242
    16.1681  16.1944  16.1945  16.2781  16.5141  16.5144  16.5145  16.5665
    16.5845  16.7598  17.0185  17.0187  17.1702  17.2923  17.3197  17.4256
    17.4675  17.4676  17.5103  17.6754  17.6754  17.7848  17.7849  17.8054
    17.9682  17.9683  18.0462  18.0463  18.0752  18.1198  18.1436  18.1505
    18.2245  18.2411  18.2412  18.2781  18.3522  18.3523  18.8136  19.4285
    20.1452  20.2424  20.2834  20.2835  20.4399  20.4399  20.4742  20.4743
    20.5965  20.6727  20.6861  20.6991  20.6991  20.7097  20.8619  20.8746
    20.9551  21.0603  21.1112  21.1218  21.1219  21.1299

          k = 0.2778 0.2778-0.5000 ( 12538 PWs)   bands (ev):

   -52.3008 -52.3007 -52.2738 -52.2737 -52.2734 -52.2733 -52.2590 -52.2588
   -51.7688 -51.7688 -51.7685 -51.7685 -51.7630 -51.7627 -51.7615 -51.7612
   -23.8472 -23.8472 -23.8471 -23.8470 -23.8185 -23.8184 -23.8159 -23.8158
   -23.7789 -23.7789 -23.7361 -23.7360 -23.7359 -23.7359 -23.6714 -23.6713
   -23.6520 -23.6519 -23.6024 -23.6023 -23.6023 -23.6022 -23.5943 -23.5942
   -23.1112 -23.1112 -23.1046 -23.1045 -23.0728 -23.0728 -23.0728 -23.0728
   -23.0340 -23.0339 -23.0337 -23.0336 -23.0265 -23.0262 -23.0038 -23.0037
   -22.9771 -22.9768 -22.9522 -22.9522 -22.9522 -22.9521 -22.9341 -22.9340
    13.7484  13.7487  15.1965  15.1966  15.1967  15.1967  16.2108  16.2109
    16.3276  16.3278  16.3712  16.3713  16.3713  16.3714  16.3728  16.3730
    16.5436  16.5438  17.2253  17.2254  17.3203  17.3203  17.3671  17.3673
    17.3673  17.3675  17.6228  17.6229  17.6229  17.6230  17.7783  17.7784
    17.9852  17.9853  18.0322  18.0322  18.0323  18.0324  18.1196  18.1196
    18.1196  18.1197  18.1409  18.1409  18.1839  18.1840  19.0907  19.0907
    20.3968  20.3968  20.4262  20.4264  20.4356  20.4356  20.4356  20.4357
    20.5250  20.5250  20.5251  20.5251  20.8554  20.8556  20.9886  20.9889
    21.0094  21.0096  21.0255  21.0257  21.0945  21.0946

          k = 0.2778 0.3889 0.3889 ( 12517 PWs)   bands (ev):

   -52.3030 -52.2860 -52.2856 -52.2744 -52.2742 -52.2661 -52.2657 -52.2588
   -51.7686 -51.7674 -51.7672 -51.7670 -51.7653 -51.7653 -51.7612 -51.7608
   -23.8546 -23.8431 -23.8429 -23.8219 -23.8099 -23.8096 -23.8038 -23.7874
   -23.7874 -23.7718 -23.7658 -23.7422 -23.7101 -23.7005 -23.6978 -23.6586
   -23.6583 -23.6340 -23.6324 -23.6321 -23.6287 -23.6284 -23.6091 -23.5921
   -23.1044 -23.0981 -23.0981 -23.0952 -23.0800 -23.0800 -23.0716 -23.0604
   -23.0541 -23.0518 -23.0212 -23.0135 -23.0135 -23.0133 -23.0133 -23.0072
   -22.9788 -22.9788 -22.9620 -22.9591 -22.9502 -22.9449 -22.9448 -22.9349
    13.6456  14.5183  14.5184  15.1167  15.2384  15.6957  15.6957  16.2621
    16.3359  16.3768  16.4546  16.4574  16.4574  16.5104  16.5105  16.7352
    16.7797  16.8332  16.8333  16.9549  17.2231  17.3417  17.3822  17.3823
    17.4018  17.4630  17.4630  17.5301  17.5881  17.6501  17.7281  17.8483
    17.8484  17.8733  17.8779  17.8781  17.9067  17.9415  17.9416  18.0252
    18.0254  18.0766  18.0851  18.1123  18.1692  18.4539  18.4539  19.0464
    20.4099  20.4218  20.4219  20.4492  20.4991  20.5926  20.6442  20.6714
    20.6715  20.6862  20.6862  20.7028  20.7820  20.7820  20.8444  20.9277
    21.0146  21.0147  21.0400  21.0637  21.0659  21.1121

          k = 0.2778 0.3889-0.5000 ( 12534 PWs)   bands (ev):

   -52.2945 -52.2944 -52.2801 -52.2800 -52.2702 -52.2701 -52.2624 -52.2623
   -51.7673 -51.7671 -51.7670 -51.7668 -51.7643 -51.7639 -51.7632 -51.7629
   -23.8317 -23.8316 -23.8289 -23.8288 -23.8116 -23.8115 -23.7893 -23.7893
   -23.7883 -23.7882 -23.7470 -23.7470 -23.6977 -23.6977 -23.6771 -23.6770
   -23.6687 -23.6686 -23.6389 -23.6388 -23.6259 -23.6257 -23.6125 -23.6125
   -23.1051 -23.1051 -23.0877 -23.0877 -23.0817 -23.0817 -23.0682 -23.0681
   -23.0347 -23.0345 -23.0236 -23.0233 -23.0196 -23.0194 -23.0000 -22.9999
   -22.9858 -22.9855 -22.9679 -22.9679 -22.9470 -22.9470 -22.9389 -22.9389
    14.0594  14.0596  14.8233  14.8235  15.4968  15.4970  16.0869  16.0871
    16.4002  16.4004  16.4441  16.4442  16.6173  16.6175  16.6428  16.6429
    16.7074  16.7076  17.1856  17.1858  17.2093  17.2095  17.2716  17.2717
    17.3437  17.3438  17.5223  17.5224  17.5786  17.5787  17.7001  17.7002
    17.7827  17.7827  17.8059  17.8060  17.9399  17.9400  17.9657  17.9657
    18.0007  18.0008  18.0806  18.0806  18.1464  18.1464  18.6972  18.6972
    20.5555  20.5557  20.5639  20.5640  20.6134  20.6135  20.6255  20.6257
    20.6630  20.6630  20.7259  20.7259  20.8389  20.8390  20.9206  20.9208
    20.9549  20.9550  20.9680  20.9681  21.0421  21.0423

          k = 0.2778-0.5000-0.5000 ( 12528 PWs)   bands (ev):

   -52.2875 -52.2875 -52.2872 -52.2870 -52.2664 -52.2664 -52.2661 -52.2660
   -51.7658 -51.7657 -51.7655 -51.7654 -51.7652 -51.7651 -51.7649 -51.7647
   -23.8148 -23.8148 -23.8146 -23.8145 -23.8103 -23.8103 -23.8100 -23.8100
   -23.7635 -23.7635 -23.7633 -23.7632 -23.6736 -23.6735 -23.6733 -23.6733
   -23.6659 -23.6659 -23.6656 -23.6656 -23.6344 -23.6344 -23.6342 -23.6341
   -23.0945 -23.0945 -23.0944 -23.0944 -23.0747 -23.0747 -23.0746 -23.0746
   -23.0284 -23.0283 -23.0282 -23.0281 -23.0012 -23.0011 -23.0009 -23.0008
   -22.9857 -22.9857 -22.9857 -22.9857 -22.9428 -22.9428 -22.9427 -22.9427
    14.4304  14.4305  14.4307  14.4308  15.8231  15.8232  15.8233  15.8234
    16.4445  16.4445  16.4447  16.4448  16.8336  16.8337  16.8337  16.8338
    16.9116  16.9117  16.9118  16.9119  17.1302  17.1302  17.1303  17.1304
    17.4282  17.4282  17.4283  17.4283  17.5869  17.5870  17.5871  17.5872
    17.8113  17.8113  17.8115  17.8115  17.8201  17.8201  17.8202  17.8202
    18.0155  18.0155  18.0156  18.0156  18.3632  18.3633  18.3633  18.3633
    20.6323  20.6324  20.6326  20.6326  20.7515  20.7516  20.7518  20.7519
    20.7737  20.7737  20.7738  20.7738  20.8212  20.8213  20.8214  20.8214
    20.9475  20.9475  20.9477  20.9478  21.0848  21.0848

          k = 0.3889 0.3889 0.3889 ( 12559 PWs)   bands (ev):

   -52.2964 -52.2816 -52.2810 -52.2810 -52.2710 -52.2704 -52.2704 -52.2624
   -51.7667 -51.7667 -51.7667 -51.7657 -51.7657 -51.7657 -51.7628 -51.7623
   -23.8230 -23.8230 -23.8228 -23.8022 -23.8019 -23.8019 -23.7842 -23.7532
   -23.7532 -23.7532 -23.7407 -23.7407 -23.7387 -23.7387 -23.6736 -23.6736
   -23.6734 -23.6695 -23.6695 -23.6692 -23.6530 -23.6528 -23.6528 -23.6089
   -23.0980 -23.0742 -23.0742 -23.0742 -23.0632 -23.0632 -23.0631 -23.0553
   -23.0553 -23.0218 -23.0218 -23.0218 -23.0195 -23.0195 -23.0194 -23.0101
   -22.9792 -22.9792 -22.9792 -22.9592 -22.9592 -22.9574 -22.9574 -22.9574
    13.9753  14.8107  14.8108  14.8108  15.4520  15.4521  15.4521  16.2318
    16.4903  16.4903  16.6157  16.6157  16.6158  16.7893  16.7893  16.7894
    16.8219  16.8219  16.8220  16.9382  17.2898  17.2898  17.4567  17.4567
    17.4577  17.4577  17.4579  17.5507  17.5507  17.5508  17.5955  17.5956
    17.5956  17.7670  17.7670  17.7672  17.7713  17.7715  17.7715  17.8267
    17.8269  17.8269  17.9908  17.9908  18.0993  18.0993  18.0994  18.6324
    20.5612  20.5612  20.5613  20.7373  20.7545  20.7545  20.7546  20.7686
    20.7686  20.7916  20.7916  20.7916  20.8348  20.8348  20.8349  20.9827
    20.9827  21.0333  21.0333  21.0334  21.0548  21.0550

          k = 0.3889 0.3889-0.5000 ( 12528 PWs)   bands (ev):

   -52.2889 -52.2888 -52.2762 -52.2760 -52.2757 -52.2757 -52.2666 -52.2664
   -51.7664 -51.7664 -51.7660 -51.7660 -51.7649 -51.7645 -51.7641 -51.7638
   -23.8060 -23.8060 -23.8058 -23.8058 -23.7838 -23.7837 -23.7735 -23.7734
   -23.7674 -23.7673 -23.7140 -23.7139 -23.7139 -23.7138 -23.7057 -23.7056
   -23.6988 -23.6987 -23.6696 -23.6696 -23.6695 -23.6695 -23.6377 -23.6376
   -23.0875 -23.0874 -23.0584 -23.0583 -23.0578 -23.0578 -23.0578 -23.0577
   -23.0269 -23.0269 -23.0267 -23.0266 -23.0153 -23.0152 -23.0152 -23.0150
   -22.9890 -22.9887 -22.9704 -22.9704 -22.9704 -22.9704 -22.9574 -22.9574
    14.3756  14.3758  15.1405  15.1406  15.1407  15.1408  15.8481  15.8484
    16.6308  16.6310  16.7122  16.7124  16.7356  16.7357  16.7358  16.7358
    16.9089  16.9090  17.1591  17.1593  17.1593  17.1595  17.3395  17.3395
    17.3717  17.3718  17.5068  17.5069  17.5081  17.5082  17.6108  17.6109
    17.6109  17.6110  17.7390  17.7391  17.7392  17.7393  17.8115  17.8115
    17.8116  17.8116  17.8683  17.8683  17.8821  17.8822  18.2883  18.2883
    20.6716  20.6718  20.7017  20.7017  20.7019  20.7019  20.8390  20.8391
    20.8391  20.8392  20.8812  20.8813  20.9125  20.9127  20.9916  20.9918
    21.0164  21.0166  21.0252  21.0252  21.0253  21.0254

          k = 0.3889-0.5000-0.5000 ( 12552 PWs)   bands (ev):

   -52.2826 -52.2826 -52.2823 -52.2821 -52.2714 -52.2714 -52.2711 -52.2709
   -51.7657 -51.7655 -51.7653 -51.7653 -51.7652 -51.7652 -51.7650 -51.7648
   -23.7826 -23.7826 -23.7825 -23.7824 -23.7808 -23.7808 -23.7805 -23.7805
   -23.7355 -23.7354 -23.7353 -23.7352 -23.7059 -23.7058 -23.7057 -23.7057
   -23.7050 -23.7049 -23.7047 -23.7047 -23.6689 -23.6689 -23.6689 -23.6688
   -23.0701 -23.0701 -23.0700 -23.0700 -23.0388 -23.0388 -23.0387 -23.0387
   -23.0342 -23.0341 -23.0340 -23.0339 -23.0029 -23.0028 -23.0027 -23.0026
   -22.9964 -22.9964 -22.9963 -22.9963 -22.9694 -22.9694 -22.9694 -22.9694
    14.7505  14.7506  14.7507  14.7508  15.5050  15.5050  15.5052  15.5053
    16.7213  16.7214  16.7216  16.7216  16.9629  16.9630  16.9631  16.9632
    17.0772  17.0773  17.0774  17.0774  17.0784  17.0785  17.0786  17.0787
    17.5087  17.5087  17.5089  17.5090  17.5162  17.5162  17.5163  17.5164
    17.5781  17.5781  17.5782  17.5783  17.7184  17.7184  17.7185  17.7186
    17.7868  17.7868  17.7869  17.7869  17.9531  17.9531  17.9531  17.9531
    20.7442  20.7443  20.7444  20.7445  20.8160  20.8161  20.8163  20.8164
    20.9167  20.9167  20.9169  20.9170  21.0035  21.0036  21.0038  21.0039
    21.0042  21.0042  21.0043  21.0043  21.0514  21.0514

          k =-0.5000-0.5000-0.5000 ( 12568 PWs)   bands (ev):

   -52.2774 -52.2774 -52.2768 -52.2767 -52.2767 -52.2766 -52.2766 -52.2765
   -51.7655 -51.7654 -51.7654 -51.7653 -51.7652 -51.7651 -51.7651 -51.7649
   -23.7450 -23.7450 -23.7450 -23.7449 -23.7449 -23.7449 -23.7446 -23.7446
   -23.7446 -23.7446 -23.7446 -23.7445 -23.7445 -23.7445 -23.7445 -23.7445
   -23.7031 -23.7031 -23.7031 -23.7030 -23.7030 -23.7030 -23.7029 -23.7028
   -23.0484 -23.0484 -23.0483 -23.0483 -23.0483 -23.0482 -23.0482 -23.0481
   -23.0023 -23.0023 -23.0023 -23.0023 -23.0023 -23.0022 -23.0022 -23.0022
   -23.0021 -23.0021 -23.0021 -23.0020 -23.0020 -23.0020 -23.0020 -23.0020
    15.1263  15.1264  15.1265  15.1265  15.1265  15.1266  15.1267  15.1268
    17.0207  17.0207  17.0207  17.0207  17.0209  17.0209  17.0209  17.0209
    17.0210  17.0210  17.0210  17.0211  17.0211  17.0211  17.0211  17.0211
    17.5975  17.5975  17.5975  17.5975  17.5975  17.5975  17.5976  17.5976
    17.6160  17.6160  17.6160  17.6160  17.6161  17.6161  17.6162  17.6162
    17.6162  17.6162  17.6162  17.6163  17.6163  17.6163  17.6163  17.6163
    20.8722  20.8722  20.8723  20.8723  20.8725  20.8725  20.8725  20.8725
    20.8726  20.8726  20.8726  20.8727  20.8727  20.8727  20.8727  20.8727
    21.2582  21.2583  21.2583  21.2583  21.2583  21.2584

 ------ SPIN DOWN ----------


          k = 0.0556 0.0556 0.0556 ( 12572 PWs)   bands (ev):

   -52.3495 -52.2773 -52.2773 -52.2773 -52.2597 -52.2597 -52.2597 -52.2432
   -51.7813 -51.7813 -51.7807 -51.7643 -51.7643 -51.7637 -51.7474 -51.7392
   -23.9757 -23.9757 -23.9757 -23.9715 -23.9715 -23.9714 -23.7245 -23.7244
   -23.7244 -23.7069 -23.7069 -23.6995 -23.6987 -23.6900 -23.6900 -23.5483
   -23.5483 -23.5483 -23.5382 -23.5382 -23.5381 -23.5207 -23.5206 -23.5206
   -23.2216 -23.2216 -23.2216 -23.1975 -23.1975 -23.1876 -23.0466 -23.0463
   -23.0463 -23.0416 -23.0416 -23.0413 -23.0317 -23.0317 -23.0317 -22.9317
   -22.9317 -22.9315 -22.9274 -22.9272 -22.9272 -22.9062 -22.8973 -22.8973
    11.7934  15.1800  15.1801  15.1801  15.2467  15.2468  15.2468  15.3339
    15.3339  15.4474  15.4474  15.4474  15.8939  15.8940  15.8940  17.0891
    17.1635  17.1635  17.1985  17.1986  17.1986  17.2144  17.2144  17.2145
    17.5158  17.5158  17.5450  17.5540  17.5540  17.5540  18.1007  18.1009
    18.1009  18.7413  18.7413  18.7963  18.9906  18.9906  18.9906  19.0960
    19.0960  19.0960  19.4137  19.4137  19.4138  19.5730  19.5732  19.5732
    20.2358  20.2359  20.2359  20.3705  20.3708  20.3711  20.6106  20.6107
    20.6107  20.7536  20.7536  20.7537  20.8235  20.8235  20.8235  20.8522
    20.8522  20.9080  20.9083  20.9083  21.0723  21.0723

          k = 0.0556 0.0556 0.1667 ( 12558 PWs)   bands (ev):

   -52.3455 -52.2821 -52.2763 -52.2763 -52.2607 -52.2607 -52.2587 -52.2442
   -51.7803 -51.7799 -51.7781 -51.7654 -51.7650 -51.7631 -51.7485 -51.7414
   -23.9639 -23.9639 -23.9628 -23.9591 -23.9509 -23.9509 -23.7422 -23.7421
   -23.7270 -23.7239 -23.7155 -23.7133 -23.6986 -23.6870 -23.6789 -23.5901
   -23.5901 -23.5569 -23.5512 -23.5381 -23.5381 -23.5306 -23.5218 -23.5217
   -23.2031 -23.1917 -23.1870 -23.1869 -23.1729 -23.1613 -23.0473 -23.0472
   -23.0422 -23.0346 -23.0328 -23.0328 -23.0305 -23.0302 -23.0292 -22.9444
   -22.9443 -22.9425 -22.9391 -22.9304 -22.9302 -22.9273 -22.9045 -22.9014
    11.9299  14.8925  15.2212  15.2212  15.2870  15.3090  15.3090  15.3608
    15.4043  15.4130  15.4901  15.4902  15.9240  15.9241  16.1448  16.9670
    17.0997  17.1098  17.1338  17.1782  17.1926  17.2560  17.2560  17.3036
    17.3037  17.3663  17.5217  17.5217  17.6912  17.7001  17.9843  17.9844
    18.4949  18.7092  18.7329  18.7865  18.7865  18.8670  18.8799  19.0528
    19.0896  19.0897  19.3173  19.3173  19.6043  19.6873  19.6873  19.7837
    19.8038  19.8038  20.0390  20.1096  20.1097  20.1104  20.2379  20.5678
    20.5678  20.7419  20.7419  20.7573  20.8227  20.8570  20.8572  20.8902
    20.9249  20.9747  20.9748  20.9815  21.0607  21.0693

          k = 0.0556 0.0556 0.2778 ( 12548 PWs)   bands (ev):

   -52.3378 -52.2908 -52.2743 -52.2743 -52.2627 -52.2627 -52.2568 -52.2461
   -51.7784 -51.7780 -51.7729 -51.7673 -51.7669 -51.7612 -51.7503 -51.7457
   -23.9386 -23.9386 -23.9377 -23.9347 -23.9139 -23.9139 -23.7743 -23.7743
   -23.7635 -23.7581 -23.7297 -23.7196 -23.6825 -23.6703 -23.6596 -23.6555
   -23.6555 -23.5742 -23.5741 -23.5498 -23.5361 -23.5361 -23.5239 -23.5238
   -23.1740 -23.1675 -23.1370 -23.1370 -23.1323 -23.1222 -23.0621 -23.0459
   -23.0459 -23.0349 -23.0348 -23.0138 -23.0137 -23.0134 -23.0081 -22.9662
   -22.9662 -22.9641 -22.9627 -22.9624 -22.9399 -22.9396 -22.9183 -22.9137
    12.1979  14.2733  15.2999  15.3000  15.4238  15.4238  15.4915  15.5417
    15.5417  15.5438  15.5607  15.5804  15.9365  15.9365  16.2139  16.7206
    16.7614  16.9614  17.0556  17.1426  17.1457  17.1546  17.3840  17.3841
    17.4637  17.4637  17.5443  17.5443  17.9193  17.9194  17.9600  17.9803
    18.4810  18.4810  18.6855  18.7056  18.7057  18.7068  18.7200  18.7785
    18.9711  19.1878  19.1878  19.2129  19.4619  19.4620  19.6337  19.6338
    19.6786  19.6793  19.7229  19.8839  19.8839  20.0204  20.0964  20.5715
    20.6180  20.6181  20.7458  20.7459  20.8536  20.9566  20.9567  20.9633
    20.9761  21.0358  21.0641  21.0703  21.2471  21.2940

          k = 0.0556 0.0556 0.3889 ( 12531 PWs)   bands (ev):

   -52.3273 -52.3023 -52.2716 -52.2716 -52.2654 -52.2654 -52.2543 -52.2486
   -51.7758 -51.7754 -51.7699 -51.7695 -51.7660 -51.7587 -51.7529 -51.7516
   -23.9027 -23.9027 -23.9017 -23.9002 -23.8622 -23.8622 -23.8155 -23.8155
   -23.8104 -23.8077 -23.7309 -23.7280 -23.7280 -23.7255 -23.6600 -23.6485
   -23.6340 -23.6026 -23.5972 -23.5756 -23.5333 -23.5332 -23.5268 -23.5267
   -23.1486 -23.1189 -23.0888 -23.0852 -23.0851 -23.0848 -23.0778 -23.0433
   -23.0433 -23.0377 -23.0377 -23.0102 -22.9974 -22.9973 -22.9960 -22.9951
   -22.9935 -22.9932 -22.9882 -22.9824 -22.9545 -22.9542 -22.9379 -22.9327
    12.5867  13.6534  15.4016  15.4016  15.5521  15.5522  15.5757  15.5757
    15.7501  15.7550  15.7753  15.8747  15.8748  15.8883  16.1337  16.3451
    16.4559  16.6427  17.0457  17.0691  17.1008  17.1110  17.5766  17.5767
    17.6881  17.6882  17.7178  17.7178  17.9834  17.9834  18.2007  18.2008
    18.3111  18.3313  18.3387  18.3388  18.6016  18.6016  18.6732  18.7092
    18.7119  18.7177  18.8608  18.8609  19.1109  19.2008  19.2063  19.4860
    19.5848  19.9523  19.9524  20.1153  20.1154  20.3037  20.3420  20.4482
    20.4483  20.4696  20.5742  20.5743  20.8989  20.9975  21.0508  21.0551
    21.0580  21.0665  21.1486  21.2402  21.3002  21.3295

          k = 0.0556 0.0556-0.5000 ( 12548 PWs)   bands (ev):

   -52.3151 -52.3148 -52.2687 -52.2687 -52.2683 -52.2683 -52.2516 -52.2513
   -51.7728 -51.7728 -51.7725 -51.7723 -51.7587 -51.7586 -51.7558 -51.7557
   -23.8602 -23.8602 -23.8600 -23.8600 -23.8578 -23.8575 -23.8574 -23.8572
   -23.7989 -23.7989 -23.7987 -23.7987 -23.7295 -23.7293 -23.6325 -23.6322
   -23.6233 -23.6231 -23.6051 -23.6048 -23.5303 -23.5302 -23.5299 -23.5299
   -23.1190 -23.1190 -23.0642 -23.0642 -23.0426 -23.0425 -23.0423 -23.0422
   -23.0380 -23.0378 -23.0360 -23.0360 -23.0357 -23.0356 -23.0341 -23.0340
   -22.9731 -22.9730 -22.9728 -22.9727 -22.9620 -22.9619 -22.9562 -22.9562
    13.0798  13.0801  15.4981  15.4981  15.4982  15.4982  15.7394  15.7394
    15.7395  15.7395  15.9615  15.9617  16.0189  16.0191  16.1097  16.1100
    16.2565  16.2566  17.0643  17.0645  17.0758  17.0760  17.8200  17.8200
    17.8201  17.8201  17.9353  17.9354  17.9354  17.9354  18.1394  18.1394
    18.1395  18.1395  18.3829  18.3830  18.3831  18.3832  18.6791  18.6793
    18.7076  18.7078  18.7300  18.7301  18.7425  18.7426  19.2847  19.2849
    19.9674  19.9675  20.2286  20.2287  20.2287  20.2288  20.3542  20.3542
    20.3543  20.3543  20.7362  20.7363  20.8798  20.8799  20.9495  20.9497
    21.0535  21.0538  21.1417  21.1418  21.1942  21.1944

          k = 0.0556 0.1667 0.1667 ( 12541 PWs)   bands (ev):

   -52.3416 -52.2808 -52.2808 -52.2752 -52.2620 -52.2597 -52.2597 -52.2452
   -51.7791 -51.7776 -51.7771 -51.7660 -51.7643 -51.7639 -51.7495 -51.7435
   -23.9595 -23.9516 -23.9516 -23.9396 -23.9396 -23.9239 -23.7566 -23.7466
   -23.7465 -23.7436 -23.7238 -23.7228 -23.6943 -23.6808 -23.6698 -23.6150
   -23.5875 -23.5874 -23.5505 -23.5505 -23.5473 -23.5323 -23.5323 -23.5236
   -23.1884 -23.1805 -23.1803 -23.1600 -23.1561 -23.1331 -23.0555 -23.0447
[...]
    20.5489  20.5490  20.5610  20.5611  20.6753  20.6754  20.7841  20.7843
    20.8766  20.8766  20.9873  20.9874  21.0340  21.0341

          k = 0.1667-0.5000-0.5000 ( 12516 PWs)   bands (ev):

   -52.2905 -52.2904 -52.2902 -52.2901 -52.2622 -52.2621 -52.2619 -52.2617
   -51.7654 -51.7652 -51.7650 -51.7650 -51.7645 -51.7643 -51.7639 -51.7638
   -23.8372 -23.8371 -23.8369 -23.8368 -23.8303 -23.8303 -23.8302 -23.8302
   -23.7839 -23.7838 -23.7838 -23.7838 -23.6511 -23.6511 -23.6510 -23.6510
   -23.6329 -23.6329 -23.6328 -23.6328 -23.6034 -23.6033 -23.6031 -23.6030
   -23.1155 -23.1155 -23.1151 -23.1151 -23.1045 -23.1045 -23.1041 -23.1041
   -23.0258 -23.0257 -23.0255 -23.0255 -22.9985 -22.9983 -22.9980 -22.9980
   -22.9756 -22.9756 -22.9752 -22.9752 -22.9238 -22.9237 -22.9234 -22.9234
    14.2002  14.2003  14.2005  14.2006  16.0496  16.0496  16.0497  16.0498
    16.2425  16.2426  16.2427  16.2427  16.5987  16.5987  16.5988  16.5988
    16.8737  16.8738  16.8740  16.8741  17.1730  17.1731  17.1732  17.1732
    17.3585  17.3586  17.3587  17.3587  17.7464  17.7464  17.7465  17.7466
    17.8824  17.8824  17.8825  17.8825  18.0424  18.0424  18.0425  18.0426
    18.2471  18.2471  18.2473  18.2473  18.7744  18.7744  18.7745  18.7745
    20.4301  20.4301  20.4303  20.4303  20.5718  20.5719  20.5720  20.5721
    20.6826  20.6827  20.6829  20.6829  20.7207  20.7208  20.7210  20.7211
    20.7513  20.7513  20.7515  20.7515  20.9670  20.9672

          k = 0.2778 0.2778 0.2778 ( 12551 PWs)   bands (ev):

   -52.3181 -52.2815 -52.2815 -52.2815 -52.2644 -52.2644 -52.2644 -52.2522
   -51.7707 -51.7707 -51.7701 -51.7657 -51.7657 -51.7651 -51.7558 -51.7545
   -23.8931 -23.8931 -23.8931 -23.8289 -23.8288 -23.8288 -23.8043 -23.8031
   -23.8031 -23.8031 -23.7265 -23.7265 -23.7256 -23.7256 -23.6453 -23.6452
   -23.6452 -23.6057 -23.6057 -23.6057 -23.5901 -23.5756 -23.5755 -23.5755
   -23.1124 -23.1124 -23.1096 -23.1093 -23.1093 -23.0724 -23.0722 -23.0722
   -23.0716 -23.0353 -23.0350 -23.0350 -23.0297 -22.9993 -22.9990 -22.9990
   -22.9579 -22.9579 -22.9574 -22.9559 -22.9557 -22.9557 -22.9271 -22.9271
    12.9549  14.7665  14.7665  14.7665  15.4737  15.4737  15.4737  15.9650
    15.9650  16.0181  16.0181  16.0181  16.5236  16.5237  16.5237  16.6522
    16.8292  16.8292  16.8292  17.1319  17.1368  17.1368  17.3582  17.3583
    17.3583  17.5854  17.5854  17.5854  17.6313  17.6313  17.9476  17.9478
    17.9478  18.1667  18.1667  18.1669  18.2845  18.2845  18.2845  18.3561
    18.3561  18.5292  18.5292  18.5293  18.6464  18.6464  18.6464  19.6154
    20.0692  20.0693  20.0693  20.1153  20.3761  20.3763  20.3763  20.5379
    20.5379  20.5379  20.7369  20.7369  20.8020  20.8021  20.8021  20.9460
    20.9462  20.9462  21.0228  21.0228  21.1155  21.1156

          k = 0.2778 0.2778 0.3889 ( 12507 PWs)   bands (ev):

   -52.3098 -52.2903 -52.2775 -52.2775 -52.2684 -52.2684 -52.2616 -52.2551
   -51.7695 -51.7691 -51.7668 -51.7665 -51.7664 -51.7632 -51.7581 -51.7580
   -23.8720 -23.8720 -23.8594 -23.8221 -23.8219 -23.8219 -23.8093 -23.7948
   -23.7846 -23.7846 -23.7716 -23.7549 -23.7013 -23.6908 -23.6861 -23.6860
   -23.6376 -23.6154 -23.6112 -23.6091 -23.6090 -23.5893 -23.5892 -23.5850
   -23.1148 -23.1118 -23.0953 -23.0897 -23.0854 -23.0854 -23.0709 -23.0705
   -23.0690 -23.0401 -23.0401 -23.0158 -23.0155 -23.0141 -23.0059 -22.9981
   -22.9869 -22.9531 -22.9531 -22.9528 -22.9528 -22.9491 -22.9439 -22.9275
    13.3082  14.2462  14.9831  14.9831  15.3632  15.3632  15.8082  16.1246
    16.1685  16.1945  16.1946  16.2781  16.5144  16.5145  16.5146  16.5670
    16.5842  16.7596  17.0189  17.0190  17.1701  17.2922  17.3196  17.4256
    17.4675  17.4675  17.5103  17.6755  17.6755  17.7849  17.7850  17.8055
    17.9684  17.9684  18.0462  18.0462  18.0753  18.1197  18.1434  18.1507
    18.2245  18.2411  18.2411  18.2781  18.3522  18.3523  18.8136  19.4285
    20.1453  20.2432  20.2842  20.2842  20.4401  20.4402  20.4747  20.4747
    20.5975  20.6729  20.6862  20.7000  20.7000  20.7103  20.8630  20.8755
    20.9559  21.0612  21.1123  21.1229  21.1230  21.1309

          k = 0.2778 0.2778-0.5000 ( 12538 PWs)   bands (ev):

   -52.3003 -52.3000 -52.2732 -52.2731 -52.2728 -52.2728 -52.2585 -52.2582
   -51.7682 -51.7682 -51.7679 -51.7677 -51.7622 -51.7621 -51.7606 -51.7606
   -23.8466 -23.8466 -23.8465 -23.8465 -23.8180 -23.8178 -23.8154 -23.8152
   -23.7784 -23.7783 -23.7355 -23.7354 -23.7354 -23.7354 -23.6710 -23.6707
   -23.6515 -23.6513 -23.6019 -23.6019 -23.6016 -23.6016 -23.5938 -23.5936
   -23.1105 -23.1105 -23.1039 -23.1039 -23.0723 -23.0723 -23.0720 -23.0720
   -23.0333 -23.0333 -23.0331 -23.0329 -23.0257 -23.0256 -23.0032 -23.0031
   -22.9764 -22.9763 -22.9517 -22.9517 -22.9514 -22.9514 -22.9334 -22.9334
    13.7479  13.7482  15.1961  15.1962  15.1963  15.1963  16.2105  16.2107
    16.3281  16.3283  16.3714  16.3714  16.3715  16.3716  16.3732  16.3734
    16.5436  16.5437  17.2252  17.2254  17.3202  17.3204  17.3675  17.3675
    17.3677  17.3677  17.6228  17.6229  17.6229  17.6230  17.7781  17.7782
    17.9853  17.9855  18.0322  18.0322  18.0323  18.0323  18.1196  18.1196
    18.1197  18.1197  18.1408  18.1409  18.1839  18.1841  19.0907  19.0907
    20.3968  20.3969  20.4272  20.4273  20.4361  20.4361  20.4361  20.4361
    20.5257  20.5258  20.5259  20.5259  20.8561  20.8563  20.9896  20.9897
    21.0105  21.0107  21.0257  21.0258  21.0955  21.0957

          k = 0.2778 0.3889 0.3889 ( 12517 PWs)   bands (ev):

   -52.3024 -52.2852 -52.2852 -52.2738 -52.2736 -52.2653 -52.2653 -52.2582
   -51.7679 -51.7667 -51.7666 -51.7662 -51.7648 -51.7644 -51.7605 -51.7600
   -23.8541 -23.8425 -23.8425 -23.8214 -23.8092 -23.8092 -23.8033 -23.7869
   -23.7868 -23.7712 -23.7653 -23.7417 -23.7096 -23.7000 -23.6972 -23.6580
   -23.6579 -23.6334 -23.6317 -23.6317 -23.6280 -23.6280 -23.6086 -23.5916
   -23.1038 -23.0976 -23.0973 -23.0945 -23.0795 -23.0792 -23.0709 -23.0598
   -23.0535 -23.0511 -23.0205 -23.0130 -23.0127 -23.0127 -23.0126 -23.0066
   -22.9782 -22.9781 -22.9613 -22.9584 -22.9496 -22.9444 -22.9440 -22.9342
    13.6451  14.5179  14.5179  15.1163  15.2380  15.6954  15.6954  16.2625
    16.3361  16.3772  16.4542  16.4575  16.4575  16.5108  16.5108  16.7353
    16.7796  16.8336  16.8337  16.9553  17.2231  17.3415  17.3822  17.3822
    17.4020  17.4630  17.4631  17.5302  17.5883  17.6502  17.7282  17.8484
    17.8484  17.8733  17.8780  17.8781  17.9066  17.9416  17.9417  18.0252
    18.0254  18.0766  18.0851  18.1124  18.1692  18.4539  18.4539  19.0463
    20.4099  20.4227  20.4227  20.4500  20.4995  20.5930  20.6452  20.6716
    20.6717  20.6867  20.6868  20.7037  20.7828  20.7830  20.8455  20.9285
    21.0150  21.0152  21.0411  21.0646  21.0667  21.1132

          k = 0.2778 0.3889-0.5000 ( 12534 PWs)   bands (ev):

   -52.2941 -52.2937 -52.2796 -52.2793 -52.2697 -52.2694 -52.2619 -52.2616
   -51.7666 -51.7666 -51.7663 -51.7661 -51.7634 -51.7634 -51.7623 -51.7622
   -23.8311 -23.8311 -23.8284 -23.8282 -23.8112 -23.8109 -23.7888 -23.7887
   -23.7878 -23.7876 -23.7465 -23.7464 -23.6972 -23.6971 -23.6766 -23.6764
   -23.6682 -23.6681 -23.6384 -23.6382 -23.6254 -23.6251 -23.6120 -23.6119
   -23.1044 -23.1044 -23.0871 -23.0871 -23.0811 -23.0811 -23.0675 -23.0675
   -23.0340 -23.0339 -23.0228 -23.0227 -23.0189 -23.0188 -22.9994 -22.9993
   -22.9851 -22.9850 -22.9672 -22.9672 -22.9463 -22.9463 -22.9382 -22.9382
    14.0589  14.0591  14.8228  14.8230  15.4965  15.4966  16.0865  16.0868
    16.4006  16.4008  16.4443  16.4445  16.6177  16.6179  16.6429  16.6430
    16.7074  16.7075  17.1860  17.1862  17.2096  17.2098  17.2716  17.2718
    17.3438  17.3438  17.5223  17.5224  17.5785  17.5786  17.7001  17.7001
    17.7826  17.7827  17.8060  17.8062  17.9400  17.9401  17.9657  17.9657
    18.0007  18.0008  18.0806  18.0807  18.1464  18.1464  18.6972  18.6972
    20.5565  20.5566  20.5644  20.5644  20.6141  20.6142  20.6264  20.6265
    20.6634  20.6634  20.7260  20.7260  20.8396  20.8398  20.9215  20.9216
    20.9560  20.9561  20.9682  20.9683  21.0432  21.0434

          k = 0.2778-0.5000-0.5000 ( 12528 PWs)   bands (ev):

   -52.2869 -52.2868 -52.2866 -52.2865 -52.2659 -52.2658 -52.2656 -52.2654
   -51.7652 -51.7650 -51.7649 -51.7649 -51.7646 -51.7644 -51.7639 -51.7638
   -23.8143 -23.8142 -23.8141 -23.8140 -23.8096 -23.8096 -23.8096 -23.8096
   -23.7629 -23.7628 -23.7628 -23.7628 -23.6729 -23.6729 -23.6728 -23.6728
   -23.6653 -23.6653 -23.6652 -23.6652 -23.6339 -23.6338 -23.6336 -23.6336
   -23.0940 -23.0940 -23.0937 -23.0936 -23.0742 -23.0742 -23.0738 -23.0738
   -23.0278 -23.0276 -23.0275 -23.0275 -23.0006 -23.0004 -23.0002 -23.0002
   -22.9852 -22.9852 -22.9849 -22.9849 -22.9423 -22.9423 -22.9420 -22.9419
    14.4300  14.4300  14.4302  14.4303  15.8228  15.8228  15.8230  15.8230
    16.4449  16.4449  16.4450  16.4451  16.8336  16.8336  16.8337  16.8337
    16.9120  16.9121  16.9122  16.9123  17.1304  17.1305  17.1306  17.1306
    17.4282  17.4282  17.4283  17.4284  17.5868  17.5869  17.5870  17.5870
    17.8113  17.8113  17.8114  17.8114  17.8202  17.8202  17.8203  17.8204
    18.0155  18.0155  18.0156  18.0156  18.3632  18.3632  18.3633  18.3633
    20.6333  20.6334  20.6335  20.6336  20.7525  20.7525  20.7526  20.7527
    20.7739  20.7739  20.7741  20.7741  20.8218  20.8218  20.8219  20.8219
    20.9485  20.9487  20.9488  20.9489  21.0848  21.0849

          k = 0.3889 0.3889 0.3889 ( 12559 PWs)   bands (ev):

   -52.2958 -52.2806 -52.2806 -52.2806 -52.2700 -52.2700 -52.2700 -52.2618
   -51.7662 -51.7662 -51.7656 -51.7652 -51.7652 -51.7647 -51.7620 -51.7615
   -23.8224 -23.8224 -23.8223 -23.8015 -23.8015 -23.8015 -23.7836 -23.7527
   -23.7526 -23.7526 -23.7401 -23.7401 -23.7382 -23.7382 -23.6731 -23.6730
   -23.6730 -23.6689 -23.6689 -23.6689 -23.6523 -23.6523 -23.6523 -23.6084
   -23.0974 -23.0738 -23.0735 -23.0735 -23.0627 -23.0627 -23.0622 -23.0547
   -23.0547 -23.0213 -23.0211 -23.0211 -23.0190 -23.0187 -23.0187 -23.0094
   -22.9787 -22.9785 -22.9785 -22.9586 -22.9586 -22.9569 -22.9569 -22.9564
    13.9747  14.8103  14.8103  14.8103  15.4517  15.4517  15.4517  16.2313
    16.4908  16.4908  16.6158  16.6159  16.6159  16.7897  16.7897  16.7897
    16.8221  16.8222  16.8222  16.9380  17.2898  17.2898  17.4569  17.4569
    17.4578  17.4578  17.4578  17.5509  17.5510  17.5510  17.5955  17.5956
    17.5956  17.7670  17.7672  17.7672  17.7714  17.7714  17.7715  17.8267
    17.8267  17.8269  17.9908  17.9908  18.0993  18.0994  18.0994  18.6324
    20.5621  20.5622  20.5622  20.7374  20.7550  20.7550  20.7551  20.7696
    20.7696  20.7924  20.7926  20.7926  20.8350  20.8352  20.8352  20.9836
    20.9836  21.0344  21.0345  21.0345  21.0560  21.0560

          k = 0.3889 0.3889-0.5000 ( 12528 PWs)   bands (ev):

   -52.2884 -52.2881 -52.2755 -52.2755 -52.2752 -52.2752 -52.2661 -52.2658
   -51.7657 -51.7657 -51.7655 -51.7653 -51.7640 -51.7640 -51.7632 -51.7631
   -23.8054 -23.8054 -23.8053 -23.8053 -23.7834 -23.7831 -23.7729 -23.7728
   -23.7669 -23.7667 -23.7134 -23.7134 -23.7134 -23.7133 -23.7052 -23.7049
   -23.6983 -23.6981 -23.6691 -23.6691 -23.6689 -23.6689 -23.6372 -23.6371
   -23.0868 -23.0868 -23.0578 -23.0577 -23.0572 -23.0572 -23.0570 -23.0570
   -23.0262 -23.0262 -23.0261 -23.0260 -23.0146 -23.0146 -23.0146 -23.0145
   -22.9883 -22.9882 -22.9699 -22.9699 -22.9696 -22.9696 -22.9567 -22.9567
    14.3750  14.3753  15.1401  15.1401  15.1403  15.1403  15.8477  15.8479
    16.6312  16.6314  16.7126  16.7128  16.7359  16.7360  16.7360  16.7361
    16.9089  16.9091  17.1595  17.1595  17.1597  17.1597  17.3395  17.3396
    17.3716  17.3718  17.5068  17.5069  17.5083  17.5085  17.6108  17.6109
    17.6109  17.6110  17.7391  17.7391  17.7392  17.7392  17.8115  17.8115
    17.8116  17.8116  17.8682  17.8683  17.8821  17.8822  18.2883  18.2883
    20.6726  20.6727  20.7027  20.7027  20.7028  20.7028  20.8394  20.8394
    20.8395  20.8395  20.8821  20.8822  20.9136  20.9137  20.9922  20.9923
    21.0175  21.0176  21.0263  21.0263  21.0264  21.0265

          k = 0.3889-0.5000-0.5000 ( 12552 PWs)   bands (ev):

   -52.2821 -52.2819 -52.2817 -52.2816 -52.2709 -52.2707 -52.2705 -52.2704
   -51.7651 -51.7649 -51.7648 -51.7648 -51.7647 -51.7645 -51.7639 -51.7639
   -23.7821 -23.7820 -23.7819 -23.7818 -23.7802 -23.7801 -23.7801 -23.7801
   -23.7349 -23.7348 -23.7348 -23.7348 -23.7053 -23.7053 -23.7052 -23.7051
   -23.7043 -23.7043 -23.7043 -23.7043 -23.6685 -23.6684 -23.6683 -23.6682
   -23.0696 -23.0695 -23.0693 -23.0693 -23.0383 -23.0383 -23.0379 -23.0379
   -23.0335 -23.0334 -23.0334 -23.0334 -23.0023 -23.0021 -23.0020 -23.0020
   -22.9958 -22.9958 -22.9957 -22.9956 -22.9689 -22.9689 -22.9686 -22.9685
    14.7500  14.7501  14.7502  14.7503  15.5045  15.5046  15.5047  15.5048
    16.7217  16.7218  16.7219  16.7220  16.9633  16.9634  16.9635  16.9636
    17.0773  17.0774  17.0775  17.0775  17.0787  17.0788  17.0789  17.0790
    17.5087  17.5088  17.5089  17.5090  17.5162  17.5163  17.5163  17.5164
    17.5781  17.5782  17.5783  17.5783  17.7184  17.7184  17.7185  17.7185
    17.7868  17.7868  17.7869  17.7870  17.9530  17.9530  17.9530  17.9530
    20.7452  20.7453  20.7454  20.7455  20.8170  20.8171  20.8172  20.8173
    20.9177  20.9178  20.9180  20.9181  21.0046  21.0046  21.0046  21.0046
    21.0047  21.0047  21.0048  21.0049  21.0516  21.0517

          k =-0.5000-0.5000-0.5000 ( 12568 PWs)   bands (ev):

   -52.2765 -52.2764 -52.2764 -52.2763 -52.2762 -52.2761 -52.2761 -52.2760
   -51.7649 -51.7648 -51.7648 -51.7647 -51.7647 -51.7646 -51.7640 -51.7639
   -23.7443 -23.7443 -23.7443 -23.7443 -23.7443 -23.7442 -23.7442 -23.7442
   -23.7441 -23.7441 -23.7441 -23.7440 -23.7440 -23.7440 -23.7440 -23.7440
   -23.7026 -23.7026 -23.7025 -23.7025 -23.7024 -23.7024 -23.7024 -23.7024
   -23.0479 -23.0478 -23.0476 -23.0476 -23.0476 -23.0475 -23.0475 -23.0475
   -23.0018 -23.0017 -23.0017 -23.0017 -23.0017 -23.0016 -23.0016 -23.0016
   -23.0016 -23.0016 -23.0013 -23.0012 -23.0012 -23.0012 -23.0012 -23.0012
    15.1258  15.1259  15.1259  15.1260  15.1261  15.1262  15.1262  15.1263
    17.0211  17.0211  17.0211  17.0212  17.0212  17.0212  17.0213  17.0213
    17.0213  17.0213  17.0213  17.0214  17.0214  17.0214  17.0215  17.0215
    17.5974  17.5974  17.5974  17.5974  17.5974  17.5974  17.5975  17.5975
    17.6160  17.6160  17.6160  17.6161  17.6161  17.6161  17.6161  17.6162
    17.6162  17.6162  17.6162  17.6162  17.6163  17.6163  17.6163  17.6163
    20.8733  20.8733  20.8734  20.8734  20.8734  20.8734  20.8735  20.8735
    20.8735  20.8736  20.8736  20.8736  20.8738  20.8738  20.8739  20.8739
    21.2586  21.2586  21.2586  21.2586  21.2587  21.2587

     the Fermi energy is    19.6200 ev

!    total energy              =   -3971.54187806 Ry
     Harris-Foulkes estimate   =   -3971.54187509 Ry
     estimated scf accuracy    <       0.00000082 Ry

     total all-electron energy =    -33628.064758 Ry

     The total energy is the sum of the following terms:

     one-electron contribution =    -881.23806879 Ry
     hartree contribution      =     578.78215678 Ry
     xc contribution           =    -356.70545452 Ry
     ewald contribution        =   -2124.43372927 Ry
     one-center paw contrib.   =   -1187.97350436 Ry
     smearing contrib. (-TS)   =       0.02672209 Ry

     total magnetization       =     0.00 Bohr mag/cell
     absolute magnetization    =     7.90 Bohr mag/cell

     convergence has been achieved in  31 iterations

     Forces acting on atoms (cartesian axes, Ry/au):

     atom    1 type  1   force =     0.00000000    0.00000000    0.00000000
     atom    2 type  2   force =     0.00002327    0.00002327    0.00002327
     atom    3 type  1   force =     0.00000000    0.00000000    0.00000000
     atom    4 type  2   force =     0.00002327    0.00002327   -0.00002327
     atom    5 type  1   force =     0.00000000    0.00000000    0.00000000
     atom    6 type  2   force =     0.00002327   -0.00002327    0.00002327
     atom    7 type  1   force =     0.00000000    0.00000000    0.00000000
     atom    8 type  2   force =     0.00002327   -0.00002327   -0.00002327
     atom    9 type  1   force =     0.00000000    0.00000000    0.00000000
     atom   10 type  2   force =    -0.00002327    0.00002327    0.00002327
     atom   11 type  1   force =     0.00000000    0.00000000    0.00000000
     atom   12 type  2   force =    -0.00002327    0.00002327   -0.00002327
     atom   13 type  1   force =     0.00000000    0.00000000   -0.00000000
     atom   14 type  2   force =    -0.00002327   -0.00002327    0.00002327
     atom   15 type  1   force =     0.00000000    0.00000000    0.00000000
     atom   16 type  2   force =    -0.00002327   -0.00002327   -0.00002327

     Total force =     0.000114     Total SCF correction =     0.000396
     SCF correction compared to forces is large: reduce conv_thr to get better values


     Computing stress (Cartesian axis) and pressure

          total   stress  (Ry/bohr**3)                   (kbar)     P=    9.53
   0.00006480   0.00000000   0.00000000          9.53      0.00      0.00
   0.00000000   0.00006480   0.00000000          0.00      9.53      0.00
   0.00000000   0.00000000   0.00006480          0.00      0.00      9.53


     Writing output data file XjeebWLDtNEWJcQH.save/
 
     init_run     :      7.60s CPU      7.91s WALL (       1 calls)
     electrons    :   1107.83s CPU   1129.89s WALL (       1 calls)
     forces       :      2.35s CPU      2.49s WALL (       1 calls)
     stress       :     10.53s CPU     10.62s WALL (       1 calls)

     Called by init_run:
     wfcinit      :      6.94s CPU      7.20s WALL (       1 calls)
     potinit      :      0.31s CPU      0.33s WALL (       1 calls)
     hinit0       :      0.15s CPU      0.16s WALL (       1 calls)

     Called by electrons:
     c_bands      :   1025.90s CPU   1044.23s WALL (      32 calls)
     sum_band     :     70.91s CPU     73.70s WALL (      32 calls)
     v_of_rho     :      0.82s CPU      0.89s WALL (      32 calls)
     newd         :      1.78s CPU      2.21s WALL (      32 calls)
     PAW_pot      :      8.33s CPU      8.72s WALL (      32 calls)
     mix_rho      :      0.27s CPU      0.29s WALL (      32 calls)

     Called by c_bands:
     init_us_2    :      4.72s CPU      4.81s WALL (    4690 calls)
     cegterg      :    997.57s CPU   1015.58s WALL (    2240 calls)

     Called by sum_band:
     sum_band:bec :      0.69s CPU      0.70s WALL (    2240 calls)
     addusdens    :      3.33s CPU      3.76s WALL (      32 calls)

     Called by *egterg:
     h_psi        :    349.56s CPU    360.63s WALL (   11767 calls)
     s_psi        :     26.26s CPU     26.40s WALL (   11767 calls)
     g_psi        :      1.42s CPU      1.43s WALL (    9457 calls)
     cdiaghg      :    504.37s CPU    505.97s WALL (   11627 calls)

     Called by h_psi:
     h_psi:pot    :    347.19s CPU    358.23s WALL (   11767 calls)
     h_psi:calbec :     31.32s CPU     34.28s WALL (   11767 calls)
     vloc_psi     :    288.69s CPU    296.60s WALL (   11767 calls)
     add_vuspsi   :     27.09s CPU     27.27s WALL (   11767 calls)

     General routines
     calbec       :     45.04s CPU     49.03s WALL (   14357 calls)
     fft          :      0.65s CPU      0.73s WALL (     842 calls)
     ffts         :      0.06s CPU      0.07s WALL (     128 calls)
     fftw         :    318.77s CPU    327.41s WALL ( 2031664 calls)
     interpolate  :      0.09s CPU      0.10s WALL (      64 calls)
 
     Parallel routines
     fft_scatt_xy :     25.00s CPU     25.70s WALL ( 2032634 calls)
     fft_scatt_yz :    187.64s CPU    192.92s WALL ( 2032634 calls)
 
     PWSCF        : 18m51.99s CPU    19m20.89s WALL

 
   This run was terminated on:  22:42:13  15Jun2020            

=------------------------------------------------------------------------------=
   JOB DONE.
=------------------------------------------------------------------------------=
