--------------------------------------------------------------------------
WARNING: There was an error initializing an OpenFabrics device.

  Local host:   bear-pg0211u06a
  Local device: mlx5_0
--------------------------------------------------------------------------

     Program PWSCF v.6.3 starts on 15Jun2020 at 20: 9: 5 

     This program is part of the open-source Quantum ESPRESSO suite
     for quantum simulation of materials; please cite
         "P. Giannozzi et al., J. Phys.:Condens. Matter 21 395502 (2009);
         "P. Giannozzi et al., J. Phys.:Condens. Matter 29 465901 (2017);
          URL http://www.quantum-espresso.org", 
     in publications or presentations arising from this work. More details at
     http://www.quantum-espresso.org/quote

     Parallel version (MPI & OpenMP), running on      20 processor cores
     Number of MPI processes:                20
     Threads/MPI process:                     1

     MPI processes distributed on     1 nodes
     R & G space division:  proc/nbgrp/npool/nimage =      20
     Reading input from wd/eos/eos_002.in
Warning: card &IONS ignored
Warning: card ION_DYNAMICS = 'BFGS', ignored
Warning: card / ignored
Warning: card &CELL ignored
Warning: card CELL_DYNAMICS = 'BFGS', ignored
Warning: card CELL_FACTOR = 2.0, ignored
Warning: card PRESS = 0.0, ignored
Warning: card / ignored

     Current dimensions of program PWSCF are:
     Max number of different atomic species (ntypx) = 10
     Max number of k-points (npk) =  40000
     Max angular momentum in pseudopotentials (lmaxx) =  3
     Message from routine read_upf::
     Pseudo file /rds/homes/b/bxp912/pp/Cr.pbe-spn-kjpaw_psl.1.0.0.UPF has been successfully fixed on the fly.
To avoid this message in the future you can permanently fix 
 your pseudo files following instructions given in: 
https://gitlab.com/QEF/q-e/blob/master/upftools/how_to_fix_upf.md
               file Cr.pbe-spn-kjpaw_psl.1.0.0.UPF: wavefunction(s)  3S 3P 3D renormalized
     Message from routine read_upf::
     Pseudo file /rds/homes/b/bxp912/pp/Cr.pbe-spn-kjpaw_psl.1.0.0.UPF has been successfully fixed on the fly.
To avoid this message in the future you can permanently fix 
 your pseudo files following instructions given in: 
https://gitlab.com/QEF/q-e/blob/master/upftools/how_to_fix_upf.md
               file Cr.pbe-spn-kjpaw_psl.1.0.0.UPF: wavefunction(s)  3S 3P 3D renormalized

     Subspace diagonalization in iterative solution of the eigenvalue problem:
     a serial algorithm will be used

     Found symmetry operation: I + (  0.0000  0.0000  0.5000)
     This is a supercell, fractional translations are disabled
 
     Parallelization info
     --------------------
     sticks:   dense  smooth     PW     G-vecs:    dense   smooth      PW
     Min         190     126     35                 8874     4758     707
     Max         191     127     37                 8879     4761     709
     Sum        3809    2537    709               177509    95193   14147
 


     bravais-lattice index     =            0
     lattice parameter (alat)  =      10.7442  a.u.
     unit-cell volume          =    1177.5776 (a.u.)^3
     number of atoms/cell      =           16
     number of atomic types    =            2
     number of electrons       =       224.00
     number of Kohn-Sham states=          134
     kinetic-energy cutoff     =      71.0000  Ry
     charge density cutoff     =     430.0000  Ry
     convergence threshold     =      1.0E-06
     mixing beta               =       0.1000
     number of iterations used =           10  plain     mixing
     Exchange-correlation      = SLA PW PBX PBC ( 1  4  3  4 0 0)

     celldm(1)=  10.744168  celldm(2)=   0.000000  celldm(3)=   0.000000
     celldm(4)=   0.000000  celldm(5)=   0.000000  celldm(6)=   0.000000

     crystal axes: (cart. coord. in units of alat)
               a(1) = (   0.982857   0.000000   0.000000 )  
               a(2) = (   0.000000   0.982857   0.000000 )  
               a(3) = (   0.000000   0.000000   0.982857 )  

     reciprocal axes: (cart. coord. in units 2 pi/alat)
               b(1) = (  1.017442  0.000000  0.000000 )  
               b(2) = (  0.000000  1.017442  0.000000 )  
               b(3) = (  0.000000  0.000000  1.017442 )  


     PseudoPot. # 1 for Cr read from file:
     /rds/homes/b/bxp912/pp/Cr.pbe-spn-kjpaw_psl.1.0.0.UPF
     MD5 check sum: cb1c17117da000fe5e03c4f1a6841d9c
     Pseudo is Projector augmented-wave + core cor, Zval = 14.0
     Generated using "atomic" code by A. Dal Corso v.5.1
     Shape of augmentation charge: PSQ
     Using radial grid of 1183 points,  6 beta functions with: 
                l(1) =   0
                l(2) =   0
                l(3) =   1
                l(4) =   1
                l(5) =   2
                l(6) =   2
     Q(r) pseudized with 0 coefficients 


     PseudoPot. # 2 for Cr read from file:
     /rds/homes/b/bxp912/pp/Cr.pbe-spn-kjpaw_psl.1.0.0.UPF
     MD5 check sum: cb1c17117da000fe5e03c4f1a6841d9c
     Pseudo is Projector augmented-wave + core cor, Zval = 14.0
     Generated using "atomic" code by A. Dal Corso v.5.1
     Shape of augmentation charge: PSQ
     Using radial grid of 1183 points,  6 beta functions with: 
                l(1) =   0
                l(2) =   0
                l(3) =   1
                l(4) =   1
                l(5) =   2
                l(6) =   2
     Q(r) pseudized with 0 coefficients 


     atomic species   valence    mass     pseudopotential
        Cr1           14.00    55.84500     Cr( 1.00)
        Cr2           14.00    55.84500     Cr( 1.00)

     Starting magnetic structure 
     atomic species   magnetization
        Cr1          0.300
        Cr2         -0.300

     48 Sym. Ops., with inversion, found



   Cartesian axes

     site n.     atom                  positions (alat units)
         1           Cr1 tau(   1) = (   0.0000000   0.0000000   0.0000000  )
         2           Cr2 tau(   2) = (   0.2457143   0.2457143   0.2457140  )
         3           Cr1 tau(   3) = (   0.0000000   0.0000000   0.4914281  )
         4           Cr2 tau(   4) = (   0.2457143   0.2457143   0.7371431  )
         5           Cr1 tau(   5) = (   0.0000000   0.4914288   0.0000000  )
         6           Cr2 tau(   6) = (   0.2457143   0.7371431   0.2457140  )
         7           Cr1 tau(   7) = (   0.0000000   0.4914288   0.4914281  )
         8           Cr2 tau(   8) = (   0.2457143   0.7371431   0.7371431  )
         9           Cr1 tau(   9) = (   0.4914288   0.0000000   0.0000000  )
        10           Cr2 tau(  10) = (   0.7371431   0.2457143   0.2457140  )
        11           Cr1 tau(  11) = (   0.4914288   0.0000000   0.4914281  )
        12           Cr2 tau(  12) = (   0.7371431   0.2457143   0.7371431  )
        13           Cr1 tau(  13) = (   0.4914288   0.4914288   0.0000000  )
        14           Cr2 tau(  14) = (   0.7371431   0.7371431   0.2457140  )
        15           Cr1 tau(  15) = (   0.4914288   0.4914288   0.4914281  )
        16           Cr2 tau(  16) = (   0.7371431   0.7371431   0.7371431  )

     number of k points=    35  Marzari-Vanderbilt smearing, width (Ry)=  0.0400
                       cart. coord. in units 2pi/alat
        k(    1) = (   0.0565245   0.0565245   0.0565245), wk =   0.0109739
        k(    2) = (   0.0565245   0.0565245   0.1695736), wk =   0.0329218
        k(    3) = (   0.0565245   0.0565245   0.2826227), wk =   0.0329218
        k(    4) = (   0.0565245   0.0565245   0.3956718), wk =   0.0329218
        k(    5) = (   0.0565245   0.0565245  -0.5087209), wk =   0.0164609
        k(    6) = (   0.0565245   0.1695736   0.1695736), wk =   0.0329218
        k(    7) = (   0.0565245   0.1695736   0.2826227), wk =   0.0658436
        k(    8) = (   0.0565245   0.1695736   0.3956718), wk =   0.0658436
        k(    9) = (   0.0565245   0.1695736  -0.5087209), wk =   0.0329218
        k(   10) = (   0.0565245   0.2826227   0.2826227), wk =   0.0329218
        k(   11) = (   0.0565245   0.2826227   0.3956718), wk =   0.0658436
        k(   12) = (   0.0565245   0.2826227  -0.5087209), wk =   0.0329218
        k(   13) = (   0.0565245   0.3956718   0.3956718), wk =   0.0329218
        k(   14) = (   0.0565245   0.3956718  -0.5087209), wk =   0.0329218
        k(   15) = (   0.0565245  -0.5087209  -0.5087209), wk =   0.0082305
        k(   16) = (   0.1695736   0.1695736   0.1695736), wk =   0.0109739
        k(   17) = (   0.1695736   0.1695736   0.2826227), wk =   0.0329218
        k(   18) = (   0.1695736   0.1695736   0.3956718), wk =   0.0329218
        k(   19) = (   0.1695736   0.1695736  -0.5087209), wk =   0.0164609
        k(   20) = (   0.1695736   0.2826227   0.2826227), wk =   0.0329218
        k(   21) = (   0.1695736   0.2826227   0.3956718), wk =   0.0658436
        k(   22) = (   0.1695736   0.2826227  -0.5087209), wk =   0.0329218
        k(   23) = (   0.1695736   0.3956718   0.3956718), wk =   0.0329218
        k(   24) = (   0.1695736   0.3956718  -0.5087209), wk =   0.0329218
        k(   25) = (   0.1695736  -0.5087209  -0.5087209), wk =   0.0082305
        k(   26) = (   0.2826227   0.2826227   0.2826227), wk =   0.0109739
        k(   27) = (   0.2826227   0.2826227   0.3956718), wk =   0.0329218
        k(   28) = (   0.2826227   0.2826227  -0.5087209), wk =   0.0164609
        k(   29) = (   0.2826227   0.3956718   0.3956718), wk =   0.0329218
        k(   30) = (   0.2826227   0.3956718  -0.5087209), wk =   0.0329218
        k(   31) = (   0.2826227  -0.5087209  -0.5087209), wk =   0.0082305
        k(   32) = (   0.3956718   0.3956718   0.3956718), wk =   0.0109739
        k(   33) = (   0.3956718   0.3956718  -0.5087209), wk =   0.0164609
        k(   34) = (   0.3956718  -0.5087209  -0.5087209), wk =   0.0082305
        k(   35) = (  -0.5087209  -0.5087209  -0.5087209), wk =   0.0013717

     Dense  grid:   177509 G-vectors     FFT dimensions: (  72,  72,  72)

     Smooth grid:    95193 G-vectors     FFT dimensions: (  60,  60,  60)

     Estimated max dynamical RAM per process >     136.16 MB

     Estimated total dynamical RAM >       2.66 GB
     Generating pointlists ...
     new r_m :   0.1756 (alat units)  1.8862 (a.u.) for type    1
     new r_m :   0.1756 (alat units)  1.8862 (a.u.) for type    2

     Check: negative/imaginary core charge=   -0.000009    0.000000

     Initial potential from superposition of free atoms

     starting charge  223.98764, renormalised to  224.00000
     Starting wfcs are  160 randomized atomic wfcs
     Checking if some PAW data can be deallocated... 

     total cpu time spent up to now is        8.9 secs

     Self-consistent Calculation

     iteration #  1     ecut=    71.00 Ry     beta= 0.10
     Davidson diagonalization with overlap
     ethr =  1.00E-02,  avg # of iterations =  3.1

     Threshold (ethr) on eigenvalues was too large:
     Diagonalizing with lowered threshold

     Davidson diagonalization with overlap
     ethr =  8.47E-04,  avg # of iterations =  3.4

     total cpu time spent up to now is       54.9 secs

     total energy              =   -3970.43251110 Ry
     Harris-Foulkes estimate   =   -3970.33566373 Ry
     estimated scf accuracy    <       1.96175530 Ry

     total magnetization       =    -0.00 Bohr mag/cell
     absolute magnetization    =    37.11 Bohr mag/cell

     iteration #  2     ecut=    71.00 Ry     beta= 0.10
     Davidson diagonalization with overlap
     ethr =  8.76E-04,  avg # of iterations =  1.1

     total cpu time spent up to now is       70.6 secs

     total energy              =   -3970.89447881 Ry
     Harris-Foulkes estimate   =   -3970.44424008 Ry
     estimated scf accuracy    <       1.49147023 Ry

     total magnetization       =     0.00 Bohr mag/cell
     absolute magnetization    =    37.05 Bohr mag/cell

     iteration #  3     ecut=    71.00 Ry     beta= 0.10
     Davidson diagonalization with overlap
     ethr =  6.66E-04,  avg # of iterations =  3.0

     total cpu time spent up to now is       95.7 secs

     total energy              =   -3971.18339327 Ry
     Harris-Foulkes estimate   =   -3971.13049235 Ry
     estimated scf accuracy    <       0.35877934 Ry

     total magnetization       =    -0.00 Bohr mag/cell
     absolute magnetization    =    35.15 Bohr mag/cell

     iteration #  4     ecut=    71.00 Ry     beta= 0.10
     Davidson diagonalization with overlap
     ethr =  1.60E-04,  avg # of iterations =  1.8

     total cpu time spent up to now is      113.3 secs

     total energy              =   -3971.18629297 Ry
     Harris-Foulkes estimate   =   -3971.19534983 Ry
     estimated scf accuracy    <       0.53273188 Ry

     total magnetization       =    -0.00 Bohr mag/cell
     absolute magnetization    =    35.56 Bohr mag/cell

     iteration #  5     ecut=    71.00 Ry     beta= 0.10
     Davidson diagonalization with overlap
     ethr =  1.60E-04,  avg # of iterations =  5.6

     total cpu time spent up to now is      147.6 secs

     total energy              =   -3971.34161503 Ry
     Harris-Foulkes estimate   =   -3971.33725667 Ry
     estimated scf accuracy    <       0.05353656 Ry

     total magnetization       =     0.00 Bohr mag/cell
     absolute magnetization    =    27.96 Bohr mag/cell

     iteration #  6     ecut=    71.00 Ry     beta= 0.10
     Davidson diagonalization with overlap
     ethr =  2.39E-05,  avg # of iterations =  2.9

     total cpu time spent up to now is      168.1 secs

     total energy              =   -3971.33173968 Ry
     Harris-Foulkes estimate   =   -3971.34280371 Ry
     estimated scf accuracy    <       0.05032275 Ry

     total magnetization       =     0.00 Bohr mag/cell
     absolute magnetization    =    27.79 Bohr mag/cell

     iteration #  7     ecut=    71.00 Ry     beta= 0.10
     Davidson diagonalization with overlap
     ethr =  2.25E-05,  avg # of iterations =  1.0

     total cpu time spent up to now is      183.5 secs

     total energy              =   -3971.36479565 Ry
     Harris-Foulkes estimate   =   -3971.33260517 Ry
     estimated scf accuracy    <       0.06503725 Ry

     total magnetization       =     0.00 Bohr mag/cell
     absolute magnetization    =    28.26 Bohr mag/cell

     iteration #  8     ecut=    71.00 Ry     beta= 0.10
     Davidson diagonalization with overlap
     ethr =  2.25E-05,  avg # of iterations =  5.7

     total cpu time spent up to now is      222.2 secs

     total energy              =   -3971.43369631 Ry
     Harris-Foulkes estimate   =   -3971.42564394 Ry
     estimated scf accuracy    <       0.02976606 Ry

     total magnetization       =    -0.00 Bohr mag/cell
     absolute magnetization    =    22.26 Bohr mag/cell

     iteration #  9     ecut=    71.00 Ry     beta= 0.10
     Davidson diagonalization with overlap
     ethr =  1.33E-05,  avg # of iterations =  1.4

     total cpu time spent up to now is      238.5 secs

     total energy              =   -3971.44489415 Ry
     Harris-Foulkes estimate   =   -3971.43484671 Ry
     estimated scf accuracy    <       0.01852427 Ry

     total magnetization       =    -0.00 Bohr mag/cell
     absolute magnetization    =    21.62 Bohr mag/cell

     iteration # 10     ecut=    71.00 Ry     beta= 0.10
     Davidson diagonalization with overlap
     ethr =  8.27E-06,  avg # of iterations =  4.6

     total cpu time spent up to now is      267.4 secs

     total energy              =   -3971.45602149 Ry
     Harris-Foulkes estimate   =   -3971.45103108 Ry
     estimated scf accuracy    <       0.01666291 Ry

     total magnetization       =    -0.00 Bohr mag/cell
     absolute magnetization    =    19.66 Bohr mag/cell

     iteration # 11     ecut=    71.00 Ry     beta= 0.10
     Davidson diagonalization with overlap
     ethr =  7.44E-06,  avg # of iterations =  1.1

     total cpu time spent up to now is      283.1 secs

     total energy              =   -3971.46062050 Ry
     Harris-Foulkes estimate   =   -3971.45667885 Ry
     estimated scf accuracy    <       0.01296889 Ry

     total magnetization       =    -0.00 Bohr mag/cell
     absolute magnetization    =    19.10 Bohr mag/cell

     iteration # 12     ecut=    71.00 Ry     beta= 0.10
     Davidson diagonalization with overlap
     ethr =  5.79E-06,  avg # of iterations =  5.4

     total cpu time spent up to now is      320.3 secs

     total energy              =   -3971.47135144 Ry
     Harris-Foulkes estimate   =   -3971.47547352 Ry
     estimated scf accuracy    <       0.00692997 Ry

     total magnetization       =    -0.00 Bohr mag/cell
     absolute magnetization    =    15.93 Bohr mag/cell

     iteration # 13     ecut=    71.00 Ry     beta= 0.10
     Davidson diagonalization with overlap
     ethr =  3.09E-06,  avg # of iterations =  1.7

     total cpu time spent up to now is      337.5 secs

     total energy              =   -3971.47250860 Ry
     Harris-Foulkes estimate   =   -3971.47187949 Ry
     estimated scf accuracy    <       0.00649118 Ry

     total magnetization       =     0.00 Bohr mag/cell
     absolute magnetization    =    16.40 Bohr mag/cell

     iteration # 14     ecut=    71.00 Ry     beta= 0.10
     Davidson diagonalization with overlap
     ethr =  2.90E-06,  avg # of iterations =  1.0

     total cpu time spent up to now is      353.0 secs

     total energy              =   -3971.47277249 Ry
     Harris-Foulkes estimate   =   -3971.47256317 Ry
     estimated scf accuracy    <       0.00636050 Ry

     total magnetization       =     0.00 Bohr mag/cell
     absolute magnetization    =    16.35 Bohr mag/cell

     iteration # 15     ecut=    71.00 Ry     beta= 0.10
     Davidson diagonalization with overlap
     ethr =  2.84E-06,  avg # of iterations =  1.0

     total cpu time spent up to now is      368.5 secs

     total energy              =   -3971.47706192 Ry
     Harris-Foulkes estimate   =   -3971.47288592 Ry
     estimated scf accuracy    <       0.00469446 Ry

     total magnetization       =     0.00 Bohr mag/cell
     absolute magnetization    =    16.33 Bohr mag/cell

     iteration # 16     ecut=    71.00 Ry     beta= 0.10
     Davidson diagonalization with overlap
     ethr =  2.10E-06,  avg # of iterations =  5.0

     total cpu time spent up to now is      401.5 secs

     total energy              =   -3971.48314618 Ry
     Harris-Foulkes estimate   =   -3971.48061581 Ry
     estimated scf accuracy    <       0.00268026 Ry

     total magnetization       =     0.00 Bohr mag/cell
     absolute magnetization    =    14.80 Bohr mag/cell

     iteration # 17     ecut=    71.00 Ry     beta= 0.10
     Davidson diagonalization with overlap
     ethr =  1.20E-06,  avg # of iterations =  4.4

     total cpu time spent up to now is      431.4 secs

     total energy              =   -3971.48630625 Ry
     Harris-Foulkes estimate   =   -3971.48508619 Ry
     estimated scf accuracy    <       0.00210172 Ry

     total magnetization       =     0.00 Bohr mag/cell
     absolute magnetization    =    13.61 Bohr mag/cell

     iteration # 18     ecut=    71.00 Ry     beta= 0.10
     Davidson diagonalization with overlap
     ethr =  9.38E-07,  avg # of iterations =  3.0

     total cpu time spent up to now is      454.0 secs

     total energy              =   -3971.48748301 Ry
     Harris-Foulkes estimate   =   -3971.48654959 Ry
     estimated scf accuracy    <       0.00310655 Ry

     total magnetization       =     0.00 Bohr mag/cell
     absolute magnetization    =    13.38 Bohr mag/cell

     iteration # 19     ecut=    71.00 Ry     beta= 0.10
     Davidson diagonalization with overlap
     ethr =  9.38E-07,  avg # of iterations =  4.1

     total cpu time spent up to now is      481.0 secs

     total energy              =   -3971.48999119 Ry
     Harris-Foulkes estimate   =   -3971.48830374 Ry
     estimated scf accuracy    <       0.00193136 Ry

     total magnetization       =     0.00 Bohr mag/cell
     absolute magnetization    =    12.63 Bohr mag/cell

     iteration # 20     ecut=    71.00 Ry     beta= 0.10
     Davidson diagonalization with overlap
     ethr =  8.62E-07,  avg # of iterations =  4.6

     total cpu time spent up to now is      514.0 secs

     total energy              =   -3971.49153163 Ry
     Harris-Foulkes estimate   =   -3971.49157640 Ry
     estimated scf accuracy    <       0.00320013 Ry

     total magnetization       =     0.00 Bohr mag/cell
     absolute magnetization    =    11.60 Bohr mag/cell

     iteration # 21     ecut=    71.00 Ry     beta= 0.10
     Davidson diagonalization with overlap
     ethr =  8.62E-07,  avg # of iterations =  5.1

     total cpu time spent up to now is      547.7 secs

     total energy              =   -3971.49455218 Ry
     Harris-Foulkes estimate   =   -3971.49371027 Ry
     estimated scf accuracy    <       0.00118495 Ry

     total magnetization       =     0.00 Bohr mag/cell
     absolute magnetization    =    10.32 Bohr mag/cell

     iteration # 22     ecut=    71.00 Ry     beta= 0.10
     Davidson diagonalization with overlap
     ethr =  5.29E-07,  avg # of iterations =  4.8

     total cpu time spent up to now is      581.2 secs

     total energy              =   -3971.49535086 Ry
     Harris-Foulkes estimate   =   -3971.49570449 Ry
     estimated scf accuracy    <       0.00242557 Ry

     total magnetization       =     0.00 Bohr mag/cell
     absolute magnetization    =     9.43 Bohr mag/cell

     iteration # 23     ecut=    71.00 Ry     beta= 0.10
     Davidson diagonalization with overlap
     ethr =  5.29E-07,  avg # of iterations =  1.0

     total cpu time spent up to now is      596.8 secs

     total energy              =   -3971.49437560 Ry
     Harris-Foulkes estimate   =   -3971.49537073 Ry
     estimated scf accuracy    <       0.00195048 Ry

     total magnetization       =    -0.00 Bohr mag/cell
     absolute magnetization    =     9.49 Bohr mag/cell

     iteration # 24     ecut=    71.00 Ry     beta= 0.10
     Davidson diagonalization with overlap
     ethr =  5.29E-07,  avg # of iterations =  3.5

     total cpu time spent up to now is      620.6 secs

     total energy              =   -3971.47145321 Ry
     Harris-Foulkes estimate   =   -3971.49464705 Ry
     estimated scf accuracy    <       0.00178610 Ry

     total magnetization       =     0.00 Bohr mag/cell
     absolute magnetization    =     9.93 Bohr mag/cell

     iteration # 25     ecut=    71.00 Ry     beta= 0.10
     Davidson diagonalization with overlap
     ethr =  5.29E-07,  avg # of iterations =  5.9

     total cpu time spent up to now is      675.5 secs

     total energy              =   -3971.49670114 Ry
     Harris-Foulkes estimate   =   -3971.49957784 Ry
     estimated scf accuracy    <       0.00017120 Ry

     total magnetization       =    -0.00 Bohr mag/cell
     absolute magnetization    =     5.16 Bohr mag/cell

     iteration # 26     ecut=    71.00 Ry     beta= 0.10
     Davidson diagonalization with overlap
     ethr =  7.64E-08,  avg # of iterations =  5.8

     total cpu time spent up to now is      726.3 secs

     total energy              =   -3971.50001024 Ry
     Harris-Foulkes estimate   =   -3971.50045294 Ry
     estimated scf accuracy    <       0.00010614 Ry

     total magnetization       =    -0.00 Bohr mag/cell
     absolute magnetization    =     3.41 Bohr mag/cell

     iteration # 27     ecut=    71.00 Ry     beta= 0.10
     Davidson diagonalization with overlap
     ethr =  4.74E-08,  avg # of iterations =  5.6

     total cpu time spent up to now is      765.5 secs

     total energy              =   -3971.50047101 Ry
     Harris-Foulkes estimate   =   -3971.50070820 Ry
     estimated scf accuracy    <       0.00008917 Ry

     total magnetization       =    -0.00 Bohr mag/cell
     absolute magnetization    =     2.65 Bohr mag/cell

     iteration # 28     ecut=    71.00 Ry     beta= 0.10
     Davidson diagonalization with overlap
     ethr =  3.98E-08,  avg # of iterations =  5.3

     total cpu time spent up to now is      802.4 secs

     total energy              =   -3971.49867558 Ry
     Harris-Foulkes estimate   =   -3971.50085022 Ry
     estimated scf accuracy    <       0.00006375 Ry

     total magnetization       =    -0.00 Bohr mag/cell
     absolute magnetization    =     2.09 Bohr mag/cell

     iteration # 29     ecut=    71.00 Ry     beta= 0.10
     Davidson diagonalization with overlap
     ethr =  2.85E-08,  avg # of iterations =  6.1

     total cpu time spent up to now is      857.7 secs

     total energy              =   -3971.49836597 Ry
     Harris-Foulkes estimate   =   -3971.50108299 Ry
     estimated scf accuracy    <       0.00001672 Ry

     total magnetization       =    -0.00 Bohr mag/cell
     absolute magnetization    =     0.70 Bohr mag/cell

     iteration # 30     ecut=    71.00 Ry     beta= 0.10
     Davidson diagonalization with overlap
     ethr =  7.47E-09,  avg # of iterations =  6.3

     total cpu time spent up to now is      910.7 secs

     total energy              =   -3971.50108939 Ry
     Harris-Foulkes estimate   =   -3971.50110394 Ry
     estimated scf accuracy    <       0.00005273 Ry

     total magnetization       =    -0.00 Bohr mag/cell
     absolute magnetization    =     0.80 Bohr mag/cell

     iteration # 31     ecut=    71.00 Ry     beta= 0.10
     Davidson diagonalization with overlap
     ethr =  7.47E-09,  avg # of iterations =  4.3

     total cpu time spent up to now is      941.1 secs

     total energy              =   -3971.50109153 Ry
     Harris-Foulkes estimate   =   -3971.50109614 Ry
     estimated scf accuracy    <       0.00001357 Ry

     total magnetization       =    -0.00 Bohr mag/cell
     absolute magnetization    =     0.85 Bohr mag/cell

     iteration # 32     ecut=    71.00 Ry     beta= 0.10
     Davidson diagonalization with overlap
     ethr =  6.06E-09,  avg # of iterations =  4.1

     total cpu time spent up to now is      970.0 secs

     total energy              =   -3971.50075682 Ry
     Harris-Foulkes estimate   =   -3971.50109563 Ry
     estimated scf accuracy    <       0.00000499 Ry

     total magnetization       =    -0.00 Bohr mag/cell
     absolute magnetization    =     0.89 Bohr mag/cell

     iteration # 33     ecut=    71.00 Ry     beta= 0.10
     Davidson diagonalization with overlap
     ethr =  2.23E-09,  avg # of iterations =  6.0

     total cpu time spent up to now is     1025.0 secs

     total energy              =   -3971.50113752 Ry
     Harris-Foulkes estimate   =   -3971.50113705 Ry
     estimated scf accuracy    <       0.00000619 Ry

     total magnetization       =    -0.00 Bohr mag/cell
     absolute magnetization    =     0.33 Bohr mag/cell

     iteration # 34     ecut=    71.00 Ry     beta= 0.10
     Davidson diagonalization with overlap
     ethr =  2.23E-09,  avg # of iterations =  2.0

     total cpu time spent up to now is     1043.0 secs

     total energy              =   -3971.50068634 Ry
     Harris-Foulkes estimate   =   -3971.50113797 Ry
     estimated scf accuracy    <       0.00000385 Ry

     total magnetization       =    -0.00 Bohr mag/cell
     absolute magnetization    =     0.31 Bohr mag/cell

     iteration # 35     ecut=    71.00 Ry     beta= 0.10
     Davidson diagonalization with overlap
     ethr =  1.72E-09,  avg # of iterations =  6.1

     total cpu time spent up to now is     1098.5 secs

     total energy              =   -3971.50113545 Ry
     Harris-Foulkes estimate   =   -3971.50113827 Ry
     estimated scf accuracy    <       0.00000103 Ry

     total magnetization       =    -0.00 Bohr mag/cell
     absolute magnetization    =     0.29 Bohr mag/cell

     iteration # 36     ecut=    71.00 Ry     beta= 0.10
     Davidson diagonalization with overlap
     ethr =  4.61E-10,  avg # of iterations =  5.0

     total cpu time spent up to now is     1132.7 secs

     total energy              =   -3971.50110876 Ry
     Harris-Foulkes estimate   =   -3971.50113737 Ry
     estimated scf accuracy    <       0.00000111 Ry

     total magnetization       =    -0.00 Bohr mag/cell
     absolute magnetization    =     0.33 Bohr mag/cell

     iteration # 37     ecut=    71.00 Ry     beta= 0.10
     Davidson diagonalization with overlap
     ethr =  4.61E-10,  avg # of iterations =  5.7
 
     Magnetic moment per site:
     atom:    1    charge:   12.1799    magn:    0.0104    constr:    0.0000
     atom:    2    charge:   12.1800    magn:   -0.0098    constr:    0.0000
     atom:    3    charge:   12.1799    magn:    0.0098    constr:    0.0000
     atom:    4    charge:   12.1800    magn:   -0.0098    constr:    0.0000
     atom:    5    charge:   12.1799    magn:    0.0098    constr:    0.0000
     atom:    6    charge:   12.1800    magn:   -0.0098    constr:    0.0000
     atom:    7    charge:   12.1798    magn:    0.0095    constr:    0.0000
     atom:    8    charge:   12.1800    magn:   -0.0098    constr:    0.0000
     atom:    9    charge:   12.1799    magn:    0.0098    constr:    0.0000
     atom:   10    charge:   12.1800    magn:   -0.0098    constr:    0.0000
     atom:   11    charge:   12.1798    magn:    0.0095    constr:    0.0000
     atom:   12    charge:   12.1800    magn:   -0.0098    constr:    0.0000
     atom:   13    charge:   12.1798    magn:    0.0095    constr:    0.0000
     atom:   14    charge:   12.1800    magn:   -0.0098    constr:    0.0000
     atom:   15    charge:   12.1798    magn:    0.0100    constr:    0.0000
     atom:   16    charge:   12.1800    magn:   -0.0098    constr:    0.0000

     total cpu time spent up to now is     1183.4 secs

     End of self-consistent calculation

 ------ SPIN UP ------------


          k = 0.0565 0.0565 0.0565 ( 11876 PWs)   bands (ev):

   -51.0546 -50.8382 -50.8381 -50.8381 -50.8022 -50.8020 -50.8020 -50.7984
   -50.7983 -50.7983 -50.7904 -50.7904 -50.7904 -50.7809 -50.7698 -50.6195
   -22.8130 -22.8130 -22.8129 -22.8076 -22.8076 -22.8076 -22.4646 -22.4646
   -22.4523 -22.3540 -22.3488 -22.3488 -22.3488 -22.3074 -22.3074 -22.2839
   -22.2839 -22.2838 -22.2111 -22.2111 -22.1639 -22.1105 -22.1105 -22.1105
   -22.0905 -22.0905 -22.0905 -22.0630 -22.0630 -22.0630 -22.0506 -22.0506
   -22.0504 -22.0435 -22.0435 -22.0435 -22.0252 -22.0251 -22.0251 -21.7277
   -21.7276 -21.7276 -21.7245 -21.7218 -21.7218 -21.7218 -21.7118 -21.7118
    12.8312  16.1486  16.1486  16.1487  16.1688  16.1688  16.1688  16.2099
    16.2099  16.5796  16.5797  16.5797  16.9920  16.9920  16.9920  18.2051
    18.2228  18.2228  18.2228  18.2400  18.2400  18.2400  18.3207  18.3207
    18.5122  18.5122  18.5827  18.6137  18.6137  18.6138  19.1073  19.1073
    19.1074  19.8882  19.8882  19.9483  20.2635  20.2636  20.2636  20.3888
    20.3888  20.3888  20.5000  20.5000  20.5000  20.6183  20.6183  20.6183
    21.5709  21.5709  21.5710  21.6935  21.6935  21.6936  21.8872  21.8872
    21.8872  21.9594  21.9594  21.9594  22.1136  22.1136  22.1137  22.1183
    22.1183  22.1853  22.1853  22.1854  22.5093  22.5093

          k = 0.0565 0.0565 0.1696 ( 11881 PWs)   bands (ev):

   -51.0469 -50.8763 -50.8363 -50.8362 -50.8051 -50.8050 -50.8008 -50.7976
   -50.7976 -50.7901 -50.7901 -50.7892 -50.7822 -50.7710 -50.7624 -50.6249
   -22.7972 -22.7972 -22.7960 -22.7911 -22.7813 -22.7813 -22.4724 -22.4526
   -22.4341 -22.4241 -22.4042 -22.4042 -22.4020 -22.3994 -22.3424 -22.3423
   -22.2763 -22.2225 -22.2084 -22.1758 -22.1547 -22.1179 -22.1102 -22.1101
   -22.0920 -22.0758 -22.0684 -22.0684 -22.0628 -22.0478 -22.0477 -22.0445
   -22.0445 -22.0405 -22.0405 -21.9794 -21.9777 -21.9776 -21.9623 -21.7542
   -21.7443 -21.7443 -21.7425 -21.7377 -21.7273 -21.7272 -21.7223 -21.7166
    12.9743  16.0263  16.1873  16.1873  16.2486  16.2486  16.2670  16.2845
    16.2859  16.2982  16.6159  16.6159  17.0193  17.0193  17.2160  18.0633
    18.1343  18.1916  18.2030  18.2186  18.2335  18.2847  18.2847  18.3362
    18.3362  18.3718  18.5784  18.5784  18.7646  18.7697  19.0096  19.0097
    19.5743  19.8534  19.8798  19.9943  19.9944  20.0256  20.0810  20.2159
    20.2160  20.2552  20.6007  20.6007  20.7507  20.7508  20.7913  20.9181
    21.0891  21.0891  21.2647  21.4021  21.4022  21.4125  21.5568  21.8654
    21.8654  22.0143  22.0227  22.0228  22.1300  22.1300  22.1396  22.1598
    22.1714  22.1742  22.1742  22.2040  22.5135  22.5408

          k = 0.0565 0.0565 0.2826 ( 11883 PWs)   bands (ev):

   -51.0319 -50.9142 -50.8327 -50.8326 -50.8100 -50.8099 -50.7984 -50.7962
   -50.7962 -50.7902 -50.7902 -50.7869 -50.7846 -50.7734 -50.7288 -50.6357
   -22.7625 -22.7616 -22.7615 -22.7588 -22.7358 -22.7358 -22.5033 -22.4926
   -22.4820 -22.4819 -22.4770 -22.4364 -22.4288 -22.4244 -22.4244 -22.4072
   -22.2446 -22.2389 -22.2172 -22.2092 -22.1240 -22.1060 -22.1060 -22.1001
   -22.0860 -22.0760 -22.0759 -22.0455 -22.0454 -22.0441 -22.0441 -22.0290
   -22.0134 -21.9771 -21.9771 -21.9189 -21.9179 -21.9179 -21.9030 -21.8037
   -21.7723 -21.7722 -21.7721 -21.7693 -21.7443 -21.7443 -21.7436 -21.7345
    13.2546  15.4000  16.2769  16.2770  16.3829  16.3829  16.4325  16.4637
    16.4945  16.5106  16.6486  16.6486  17.0164  17.0164  17.2485  17.6872
    17.8801  17.9580  18.1183  18.1688  18.1821  18.1990  18.4232  18.4232
    18.5083  18.5083  18.6147  18.6147  18.9664  18.9665  19.0745  19.0946
    19.6315  19.6315  19.8285  19.8306  19.8306  19.8528  19.8671  19.9505
    20.1394  20.3580  20.4384  20.4384  20.6927  20.6927  20.9240  20.9241
    20.9476  20.9731  20.9732  20.9768  20.9993  21.1393  21.2794  21.8114
    21.8809  21.8810  22.0163  22.0164  22.1888  22.2096  22.2398  22.2563
    22.2563  22.4855  22.4930  22.5119  22.5211  22.5535

          k = 0.0565 0.0565 0.3957 ( 11888 PWs)   bands (ev):

   -51.0100 -50.9500 -50.8278 -50.8277 -50.8159 -50.8157 -50.7952 -50.7944
   -50.7944 -50.7911 -50.7911 -50.7878 -50.7837 -50.7765 -50.6988 -50.6518
   -22.7137 -22.7116 -22.7086 -22.7086 -22.6732 -22.6732 -22.5809 -22.5764
   -22.5639 -22.5639 -22.5123 -22.5123 -22.4779 -22.4605 -22.3942 -22.3713
   -22.2975 -22.2750 -22.2087 -22.1831 -22.1328 -22.1164 -22.0998 -22.0998
   -22.0842 -22.0841 -22.0441 -22.0440 -22.0436 -22.0435 -22.0363 -21.9475
   -21.9383 -21.9147 -21.9147 -21.8702 -21.8635 -21.8609 -21.8608 -21.8492
   -21.8156 -21.8156 -21.8105 -21.8105 -21.7747 -21.7725 -21.7724 -21.7635
    13.6603  14.7652  16.4012  16.4012  16.5589  16.5589  16.6248  16.6248
    16.6515  16.6834  16.8121  16.8230  16.9231  16.9231  17.1301  17.2852
    17.5692  17.5897  18.0916  18.1192  18.1302  18.1418  18.6326  18.6326
    18.7491  18.7491  18.8252  18.8253  19.0667  19.0667  19.3074  19.3074
    19.4473  19.4473  19.4650  19.4850  19.8138  19.8138  19.8172  19.8576
    19.8684  19.8738  20.0338  20.0339  20.2927  20.4320  20.4407  20.7150
    20.7409  21.2253  21.2254  21.2644  21.2645  21.5193  21.5392  21.6916
    21.6947  21.6948  21.8309  21.8309  22.2559  22.2701  22.3535  22.4134
    22.4207  22.4249  22.5312  22.5527  22.5645  22.5736

          k = 0.0565 0.0565-0.5087 ( 11892 PWs)   bands (ev):

   -50.9825 -50.9823 -50.8221 -50.8220 -50.8219 -50.8217 -50.7928 -50.7927
   -50.7925 -50.7924 -50.7917 -50.7913 -50.7803 -50.7799 -50.6730 -50.6728
   -22.6516 -22.6513 -22.6511 -22.6508 -22.6413 -22.6413 -22.6413 -22.6413
   -22.5972 -22.5971 -22.5971 -22.5971 -22.4735 -22.4734 -22.3500 -22.3498
   -22.3271 -22.3270 -22.1705 -22.1703 -22.1505 -22.1503 -22.0925 -22.0925
   -22.0923 -22.0923 -22.0436 -22.0436 -22.0434 -22.0433 -21.9495 -21.9493
   -21.8756 -21.8754 -21.8718 -21.8716 -21.8584 -21.8584 -21.8584 -21.8584
   -21.8152 -21.8149 -21.8117 -21.8117 -21.8116 -21.8116 -21.8022 -21.8020
    14.1726  14.1730  16.5310  16.5310  16.5311  16.5311  16.7527  16.7527
    16.7528  16.7529  16.9216  16.9219  16.9373  16.9377  17.1894  17.1897
    17.1925  17.1928  18.0998  18.1000  18.1135  18.1137  18.8991  18.8991
    18.8992  18.8992  19.0210  19.0210  19.0211  19.0212  19.3016  19.3017
    19.3018  19.3019  19.5035  19.5035  19.5037  19.5038  19.8271  19.8272
    19.8592  19.8594  19.9236  19.9237  19.9350  19.9350  20.4853  20.4855
    21.1537  21.1539  21.4725  21.4725  21.4725  21.4725  21.5755  21.5755
    21.5755  21.5756  21.9761  21.9762  22.1378  22.1380  22.3336  22.3339
    22.3431  22.3434  22.4952  22.4955  22.5424  22.5427

          k = 0.0565 0.1696 0.1696 ( 11900 PWs)   bands (ev):

   -51.0394 -50.8734 -50.8733 -50.8344 -50.8147 -50.8038 -50.8036 -50.7968
   -50.7890 -50.7889 -50.7836 -50.7831 -50.7722 -50.7629 -50.7628 -50.6301
   -22.7923 -22.7810 -22.7810 -22.7665 -22.7665 -22.7453 -22.4862 -22.4682
   -22.4519 -22.4519 -22.4456 -22.4396 -22.4298 -22.4052 -22.3813 -22.2958
   -22.2685 -22.2683 -22.2014 -22.1744 -22.1743 -22.1222 -22.1037 -22.1036
   -22.0860 -22.0834 -22.0834 -22.0799 -22.0600 -22.0600 -22.0537 -22.0373
   -22.0331 -21.9984 -21.9818 -21.9817 -21.9411 -21.9177 -21.9177 -21.7940
   -21.7722 -21.7563 -21.7563 -21.7421 -21.7421 -21.7313 -21.7210 -21.7124
    13.1150  16.0826  16.0826  16.1737  16.3065  16.3065  16.3606  16.3617
    16.3642  16.3642  16.3819  16.6647  17.0640  17.2482  17.2482  17.9331
    18.0761  18.1405  18.1406  18.2612  18.2613  18.3010  18.3074  18.3074
    18.3117  18.4618  18.4657  18.5166  18.7620  18.7879  18.8936  19.3822
    19.3823  19.7734  19.8270  19.8271  19.8575  19.8895  20.0621  20.1550
    20.4895  20.4896  20.5524  20.5524  20.6020  20.6972  20.8328  20.9127
    20.9128  20.9728  20.9728  21.1301  21.1301  21.2663  21.5597  21.5598
    21.8720  21.9974  22.0523  22.0523  22.0935  22.1293  22.1326  22.1327
    22.1491  22.3584  22.4707  22.4790  22.4790  22.5193

          k = 0.0565 0.1696 0.2826 ( 11865 PWs)   bands (ev):

   -51.0247 -50.9101 -50.8675 -50.8309 -50.8261 -50.8084 -50.8011 -50.7954
   -50.7892 -50.7868 -50.7862 -50.7766 -50.7743 -50.7637 -50.7303 -50.6405
   -22.7674 -22.7489 -22.7473 -22.7377 -22.7238 -22.6900 -22.5245 -22.5240
   -22.5003 -22.4989 -22.4987 -22.4851 -22.4453 -22.4230 -22.3694 -22.3533
   -22.2722 -22.2364 -22.1919 -22.1861 -22.1665 -22.1647 -22.1264 -22.1112
   -22.1045 -22.0933 -22.0825 -22.0585 -22.0580 -22.0385 -22.0194 -22.0080
   -21.9852 -21.9752 -21.9465 -21.9224 -21.8943 -21.8628 -21.8619 -21.8525
   -21.8097 -21.7796 -21.7785 -21.7713 -21.7555 -21.7516 -21.7264 -21.7192
    13.3903  15.4794  16.1679  16.1968  16.3961  16.4970  16.5038  16.5195
    16.5353  16.5487  16.5850  16.7205  17.0914  17.2354  17.2917  17.7245
    17.7938  17.9125  18.2085  18.2208  18.2431  18.2587  18.3337  18.3890
    18.4150  18.4624  18.5029  18.6697  18.8053  18.9592  19.0190  19.2510
    19.4991  19.6141  19.6377  19.6981  19.7211  19.7801  19.8309  20.0465
    20.0876  20.3194  20.3237  20.5127  20.5882  20.6696  20.6864  20.6920
    20.8154  20.9292  20.9593  21.0284  21.0648  21.2648  21.2679  21.6982
    21.8431  21.9143  21.9522  22.0197  22.0646  22.1109  22.1657  22.1896
    22.3994  22.4616  22.4693  22.5007  22.5502  22.5606

          k = 0.0565 0.1696 0.3957 ( 11890 PWs)   bands (ev):

   -51.0034 -50.9450 -50.8593 -50.8379 -50.8260 -50.8142 -50.7977 -50.7936
   -50.7901 -50.7897 -50.7838 -50.7772 -50.7715 -50.7653 -50.7013 -50.6560
   -22.7245 -22.7023 -22.6979 -22.6962 -22.6657 -22.6190 -22.5985 -22.5855
   -22.5737 -22.5675 -22.5203 -22.5097 -22.5046 -22.4454 -22.3892 -22.3273
   -22.2941 -22.2341 -22.2247 -22.1718 -22.1548 -22.1485 -22.1228 -22.1228
   -22.1116 -22.1043 -22.0968 -22.0595 -22.0580 -22.0076 -21.9906 -21.9726
   -21.9352 -21.9253 -21.9145 -21.8950 -21.8685 -21.8564 -21.8490 -21.8145
   -21.8142 -21.8131 -21.8126 -21.8096 -21.7820 -21.7782 -21.7437 -21.7394
    13.7880  14.8650  16.2355  16.2378  16.5185  16.6713  16.7087  16.7141
    16.7209  16.7744  16.8537  16.8887  17.0224  17.1158  17.1780  17.3501
    17.5657  17.6115  18.1392  18.1752  18.2057  18.2068  18.5192  18.5726
    18.5900  18.6421  18.6615  18.8218  18.9378  19.1044  19.3017  19.3608
    19.3673  19.4070  19.4853  19.4879  19.6354  19.6455  19.6770  19.7367
    19.7602  19.8012  19.9200  20.0875  20.1814  20.1950  20.5133  20.9443
    20.9896  21.1916  21.1939  21.2709  21.2765  21.3014  21.5183  21.5905
    21.6323  21.7322  21.8325  21.8928  22.0617  22.1924  22.2277  22.3057
    22.3544  22.3800  22.3911  22.4810  22.5470  22.5512

          k = 0.0565 0.1696-0.5087 ( 11914 PWs)   bands (ev):

   -50.9766 -50.9764 -50.8493 -50.8491 -50.8204 -50.8201 -50.7939 -50.7936
   -50.7918 -50.7916 -50.7807 -50.7804 -50.7679 -50.7677 -50.6765 -50.6763
   -22.6670 -22.6669 -22.6445 -22.6443 -22.6431 -22.6429 -22.6363 -22.6362
   -22.5961 -22.5960 -22.5360 -22.5360 -22.5121 -22.5120 -22.3458 -22.3456
   -22.2790 -22.2788 -22.1913 -22.1911 -22.1434 -22.1432 -22.1401 -22.1398
   -22.1149 -22.1147 -22.0589 -22.0587 -22.0083 -22.0082 -21.9983 -21.9980
   -21.9112 -21.9111 -21.8697 -21.8695 -21.8602 -21.8600 -21.8489 -21.8488
   -21.8212 -21.8210 -21.8095 -21.8095 -21.7728 -21.7728 -21.7711 -21.7710
    14.2886  14.2889  16.2590  16.2591  16.6421  16.6422  16.8619  16.8620
    16.9242  16.9244  16.9572  16.9574  17.0365  17.0367  17.2291  17.2293
    17.2371  17.2374  18.1405  18.1407  18.1762  18.1763  18.7665  18.7667
    18.7961  18.7963  18.8276  18.8277  18.9345  18.9348  19.3050  19.3050
    19.3888  19.3889  19.4825  19.4826  19.6191  19.6192  19.6228  19.6229
    19.7226  19.7227  19.7579  19.7580  19.7723  19.7725  20.7366  20.7367
    21.2779  21.2781  21.3458  21.3458  21.5138  21.5139  21.5785  21.5785
    21.6159  21.6160  21.6319  21.6319  22.0472  22.0473  22.2860  22.2863
    22.3066  22.3069  22.4523  22.4526  22.5453  22.5455

          k = 0.0565 0.2826 0.2826 ( 11901 PWs)   bands (ev):

   -51.0107 -50.9022 -50.9021 -50.8436 -50.8274 -50.8058 -50.8056 -50.7939
   -50.7892 -50.7872 -50.7871 -50.7761 -50.7641 -50.7335 -50.7334 -50.6501
   -22.7536 -22.7195 -22.7195 -22.7011 -22.7011 -22.6267 -22.5545 -22.5504
   -22.5504 -22.5314 -22.5298 -22.5262 -22.4848 -22.4021 -22.3241 -22.2737
   -22.2714 -22.2713 -22.2252 -22.2251 -22.1824 -22.1448 -22.1336 -22.1253
   -22.1253 -22.1004 -22.1003 -22.0815 -22.0815 -22.0726 -21.9951 -21.9607
   -21.9299 -21.9298 -21.9297 -21.9210 -21.9071 -21.8630 -21.8558 -21.8139
   -21.8139 -21.7924 -21.7923 -21.7780 -21.7780 -21.7706 -21.7199 -21.7132
    13.6551  15.6192  15.6192  16.1282  16.6238  16.6238  16.6293  16.6832
    16.7132  16.7132  16.7222  16.8238  17.1848  17.2872  17.2872  17.7134
    17.8114  17.8826  17.8826  18.2790  18.3304  18.3305  18.3840  18.3858
    18.3858  18.3946  18.4820  18.6485  18.9023  18.9036  18.9970  19.3631
    19.3632  19.5038  19.5039  19.5284  19.5638  19.5812  19.6360  19.7813
    20.1015  20.1015  20.1923  20.1923  20.3774  20.3993  20.3994  20.5422
    21.0293  21.0293  21.1173  21.1742  21.2283  21.2284  21.5121  21.6457
    21.6458  21.8379  21.9828  21.9828  22.0324  22.0516  22.0516  22.0741
    22.1536  22.4002  22.4042  22.4075  22.5471  22.5605

          k = 0.0565 0.2826 0.3957 ( 11909 PWs)   bands (ev):

   -50.9905 -50.9351 -50.8909 -50.8608 -50.8227 -50.8112 -50.8019 -50.7932
   -50.7920 -50.7883 -50.7845 -50.7786 -50.7534 -50.7382 -50.7064 -50.6644
   -22.7216 -22.6798 -22.6776 -22.6692 -22.6522 -22.6158 -22.5915 -22.5782
   -22.5766 -22.5617 -22.5488 -22.5469 -22.5373 -22.3700 -22.3656 -22.2800
   -22.2740 -22.2491 -22.2081 -22.1834 -22.1664 -22.1662 -22.1613 -22.1600
   -22.1525 -22.1391 -22.1110 -22.0825 -22.0808 -22.0332 -22.0019 -21.9737
   -21.9407 -21.9091 -21.9065 -21.8853 -21.8793 -21.8692 -21.8332 -21.8147
   -21.8116 -21.8114 -21.7987 -21.7903 -21.7729 -21.7726 -21.7251 -21.7207
    14.0356  15.0515  15.7845  16.0484  16.7398  16.8024  16.8627  16.8814
    16.8826  16.9364  16.9623  17.0045  17.1864  17.1896  17.1921  17.5496
    17.5754  17.6134  18.1932  18.2314  18.2659  18.2985  18.3054  18.4261
    18.4733  18.5228  18.5946  18.6200  19.0771  19.0798  19.0860  19.1810
    19.2135  19.3559  19.3768  19.4502  19.4559  19.4724  19.5982  19.6359
    19.7034  19.7239  19.8023  19.8057  19.9542  19.9712  20.7640  20.7895
    21.2145  21.2246  21.3472  21.3569  21.3657  21.3770  21.3835  21.4861
    21.6211  21.6961  21.8117  21.8693  21.9093  22.0443  22.0809  22.1209
    22.2109  22.2294  22.3067  22.3164  22.4390  22.5516

          k = 0.0565 0.2826-0.5087 ( 11898 PWs)   bands (ev):

   -50.9651 -50.9649 -50.8769 -50.8767 -50.8172 -50.8170 -50.7977 -50.7974
   -50.7901 -50.7899 -50.7817 -50.7814 -50.7449 -50.7447 -50.6834 -50.6832
   -22.6745 -22.6745 -22.6316 -22.6314 -22.6309 -22.6307 -22.6279 -22.6278
   -22.5955 -22.5954 -22.5598 -22.5598 -22.4601 -22.4601 -22.3289 -22.3286
   -22.2195 -22.2195 -22.2100 -22.2099 -22.1866 -22.1864 -22.1494 -22.1493
   -22.1412 -22.1411 -22.0906 -22.0906 -22.0832 -22.0831 -21.9687 -21.9687
   -21.9556 -21.9553 -21.8553 -21.8551 -21.8460 -21.8458 -21.8369 -21.8369
   -21.8353 -21.8351 -21.8087 -21.8086 -21.7431 -21.7430 -21.7409 -21.7408
    14.5106  14.5110  15.9353  15.9355  16.8450  16.8451  17.0040  17.0042
    17.0401  17.0402  17.0599  17.0600  17.2432  17.2435  17.2915  17.2917
    17.3201  17.3204  18.2212  18.2214  18.2601  18.2602  18.5507  18.5509
    18.5819  18.5821  18.6092  18.6095  18.8219  18.8219  19.3813  19.3814
    19.3844  19.3844  19.3883  19.3884  19.4173  19.4174  19.4779  19.4780
    19.5673  19.5673  19.6257  19.6258  19.6652  19.6653  21.0571  21.0572
    21.1764  21.1764  21.2547  21.2548  21.4701  21.4702  21.6065  21.6065
    21.6319  21.6320  21.6806  21.6806  21.8261  21.8262  22.1946  22.1948
    22.2149  22.2152  22.3741  22.3744  22.4231  22.4231

          k = 0.0565 0.3957 0.3957 ( 11919 PWs)   bands (ev):

   -50.9719 -50.9211 -50.9210 -50.8829 -50.8181 -50.8072 -50.8071 -50.7976
   -50.7900 -50.7859 -50.7858 -50.7807 -50.7377 -50.7142 -50.7141 -50.6770
   -22.7009 -22.6504 -22.6504 -22.6348 -22.6348 -22.6173 -22.6173 -22.6018
   -22.5941 -22.5940 -22.5798 -22.5637 -22.4652 -22.3407 -22.2769 -22.2767
   -22.2583 -22.2582 -22.2436 -22.2166 -22.1976 -22.1801 -22.1800 -22.1751
   -22.1567 -22.1113 -22.1113 -22.0984 -22.0950 -22.0948 -22.0895 -21.9673
   -21.9431 -21.8957 -21.8956 -21.8715 -21.8571 -21.8461 -21.8237 -21.8203
   -21.8189 -21.8189 -21.8101 -21.8101 -21.7421 -21.7421 -21.7181 -21.7147
    14.3874  15.2982  15.2982  15.8262  16.9254  16.9937  17.0336  17.0336
    17.0372  17.1534  17.1535  17.1605  17.1606  17.2235  17.3166  17.5439
    17.5545  17.8609  17.8610  18.2811  18.3079  18.3134  18.3677  18.3678
    18.3835  18.3835  18.4549  18.6665  18.7188  19.0064  19.0970  19.0971
    19.1194  19.2706  19.2930  19.3489  19.4270  19.4270  19.4488  19.4488
    19.5261  19.5327  19.5328  19.6454  19.7391  20.3226  20.3227  21.0872
    21.1646  21.2597  21.3402  21.3403  21.5090  21.5090  21.5402  21.5535
    21.7238  21.7239  21.7496  21.8840  21.8910  21.9284  21.9285  21.9561
    21.9561  22.1943  22.1969  22.2048  22.3264  22.4534

          k = 0.0565 0.3957-0.5087 ( 11908 PWs)   bands (ev):

   -50.9485 -50.9483 -50.9034 -50.9032 -50.8129 -50.8126 -50.8026 -50.8023
   -50.7879 -50.7877 -50.7833 -50.7831 -50.7246 -50.7244 -50.6937 -50.6935
   -22.6649 -22.6649 -22.6205 -22.6203 -22.6199 -22.6198 -22.6168 -22.6166
   -22.6043 -22.6043 -22.5977 -22.5976 -22.3729 -22.3729 -22.3030 -22.3027
   -22.2304 -22.2302 -22.2181 -22.2181 -22.1845 -22.1844 -22.1842 -22.1842
   -22.1553 -22.1553 -22.1380 -22.1379 -22.1084 -22.1083 -22.0296 -22.0296
   -21.9171 -21.9168 -21.8564 -21.8561 -21.8381 -21.8379 -21.8341 -21.8340
   -21.8292 -21.8291 -21.8126 -21.8125 -21.7237 -21.7237 -21.7221 -21.7221
    14.8191  14.8194  15.5686  15.5689  17.0565  17.0567  17.0905  17.0906
    17.0951  17.0953  17.2906  17.2907  17.3360  17.3362  17.4130  17.4132
    17.5316  17.5319  18.2449  18.2452  18.2969  18.2969  18.3026  18.3026
    18.3534  18.3536  18.4187  18.4189  18.8806  18.8807  19.1604  19.1605
    19.1706  19.1706  19.2338  19.2339  19.2459  19.2459  19.2931  19.2931
    19.5784  19.5785  19.5820  19.5821  19.9033  19.9034  20.7244  20.7244
    21.2544  21.2544  21.3986  21.3987  21.5747  21.5748  21.6655  21.6656
    21.7460  21.7461  21.7509  21.7510  21.7522  21.7523  22.0643  22.0645
    22.0764  22.0766  22.0997  22.0997  22.2846  22.2849

          k = 0.0565-0.5087-0.5087 ( 11908 PWs)   bands (ev):

   -50.9277 -50.9276 -50.9274 -50.9274 -50.8079 -50.8077 -50.8076 -50.8075
   -50.7856 -50.7855 -50.7853 -50.7852 -50.7076 -50.7075 -50.7073 -50.7072
   -22.6406 -22.6406 -22.6405 -22.6405 -22.6163 -22.6162 -22.6161 -22.6161
   -22.6047 -22.6047 -22.6046 -22.6045 -22.2792 -22.2792 -22.2791 -22.2791
   -22.2698 -22.2696 -22.2695 -22.2694 -22.2094 -22.2094 -22.2093 -22.2093
   -22.1277 -22.1277 -22.1276 -22.1276 -22.0927 -22.0927 -22.0925 -22.0925
   -21.8838 -21.8837 -21.8835 -21.8835 -21.8282 -21.8281 -21.8281 -21.8280
   -21.8227 -21.8226 -21.8226 -21.8225 -21.7166 -21.7166 -21.7165 -21.7165
    15.1841  15.1843  15.1845  15.1845  17.0946  17.0947  17.0948  17.0949
    17.2828  17.2828  17.2829  17.2830  17.4345  17.4345  17.4346  17.4346
    17.8755  17.8757  17.8758  17.8759  18.2812  18.2813  18.2813  18.2814
    18.3337  18.3338  18.3338  18.3339  18.9992  18.9992  18.9993  18.9993
    19.1109  19.1110  19.1110  19.1110  19.2029  19.2029  19.2029  19.2030
    19.5518  19.5518  19.5519  19.5519  20.2936  20.2936  20.2937  20.2937
    21.3672  21.3672  21.3673  21.3673  21.7382  21.7383  21.7383  21.7384
    21.7894  21.7894  21.7895  21.7895  21.9078  21.9079  21.9080  21.9080
    21.9124  21.9124  21.9125  21.9126  22.2530  22.2532

          k = 0.1696 0.1696 0.1696 ( 11843 PWs)   bands (ev):

   -51.0321 -50.8704 -50.8703 -50.8703 -50.8131 -50.8129 -50.8129 -50.7859
   -50.7823 -50.7822 -50.7822 -50.7724 -50.7632 -50.7631 -50.7631 -50.6352
   -22.7757 -22.7757 -22.7756 -22.7330 -22.7330 -22.7330 -22.5066 -22.4831
   -22.4831 -22.4831 -22.4736 -22.4736 -22.3883 -22.3883 -22.3686 -22.3102
   -22.3102 -22.3101 -22.1895 -22.1895 -22.1894 -22.1096 -22.1096 -22.1046
   -22.1046 -22.1046 -22.0573 -22.0573 -22.0572 -22.0428 -22.0428 -22.0427
   -21.9878 -21.9878 -21.9878 -21.9876 -21.8872 -21.8871 -21.8871 -21.8341
   -21.7787 -21.7787 -21.7787 -21.7367 -21.7367 -21.7367 -21.7232 -21.7232
    13.2536  16.1476  16.1477  16.1477  16.2965  16.2965  16.2965  16.4514
    16.4514  16.4734  16.4734  16.4734  17.3042  17.3042  17.3042  17.8226
    18.1183  18.1183  18.1183  18.1965  18.1965  18.2883  18.2883  18.2883
    18.4246  18.4246  18.4246  18.6633  18.6794  18.6794  19.2057  19.2057
    19.2058  19.7351  19.7352  19.7352  19.7542  19.7542  20.2553  20.2553
    20.2554  20.2998  20.4842  20.4842  20.4843  20.6921  20.6921  20.6921
    20.9445  20.9446  20.9446  21.0706  21.0706  21.0706  21.8144  21.8144
    21.8146  21.9210  21.9210  21.9210  22.0456  22.0456  22.1359  22.1359
    22.1360  22.4755  22.4755  22.4756  22.5205  22.5205

          k = 0.1696 0.1696 0.2826 ( 11870 PWs)   bands (ev):

   -51.0177 -50.9061 -50.8647 -50.8646 -50.8242 -50.8241 -50.8098 -50.7899
   -50.7807 -50.7761 -50.7760 -50.7731 -50.7640 -50.7639 -50.7318 -50.6452
   -22.7516 -22.7516 -22.7427 -22.7094 -22.6816 -22.6816 -22.5477 -22.5359
   -22.5359 -22.5115 -22.4980 -22.4774 -22.4493 -22.3783 -22.3782 -22.3423
   -22.3263 -22.2545 -22.2292 -22.1929 -22.1929 -22.1395 -22.1275 -22.1275
   -22.1227 -22.1163 -22.0608 -22.0279 -22.0279 -22.0222 -22.0013 -22.0013
   -21.9936 -21.9935 -21.9368 -21.9254 -21.8950 -21.8470 -21.8470 -21.8383
   -21.8095 -21.8095 -21.7930 -21.7677 -21.7451 -21.7408 -21.7408 -21.7242
    13.5247  15.5644  16.2494  16.2495  16.3220  16.3220  16.5330  16.5889
    16.6190  16.6306  16.6307  16.6873  17.3287  17.3287  17.3668  17.7225
    17.7293  18.0469  18.1434  18.1727  18.1727  18.2472  18.3562  18.3860
    18.3860  18.4822  18.6040  18.6041  18.7744  18.9505  19.0481  19.0481
    19.4171  19.5116  19.5117  19.6170  19.6506  19.7189  19.9330  19.9330
    19.9714  19.9715  20.2585  20.4419  20.4419  20.4716  20.4919  20.4986
    20.8329  20.9841  20.9841  21.1824  21.1825  21.3894  21.5229  21.7646
    21.7647  21.8832  22.0097  22.0557  22.0557  22.0979  22.1368  22.1630
    22.1648  22.1649  22.4548  22.4636  22.4842  22.5204

          k = 0.1696 0.1696 0.3957 ( 11896 PWs)   bands (ev):

   -50.9970 -50.9400 -50.8566 -50.8565 -50.8357 -50.8356 -50.8054 -50.7949
   -50.7787 -50.7746 -50.7713 -50.7712 -50.7654 -50.7654 -50.7037 -50.6601
   -22.7113 -22.7113 -22.6947 -22.6761 -22.6156 -22.6156 -22.5976 -22.5976
   -22.5920 -22.5598 -22.5252 -22.5163 -22.4579 -22.4579 -22.4138 -22.3148
   -22.2912 -22.2796 -22.1855 -22.1850 -22.1850 -22.1747 -22.1498 -22.1498
   -22.1412 -22.1199 -22.0829 -22.0159 -22.0158 -21.9996 -21.9995 -21.9697
   -21.9454 -21.9453 -21.9424 -21.8895 -21.8685 -21.8481 -21.8481 -21.8161
   -21.8131 -21.8088 -21.8087 -21.7959 -21.7772 -21.7542 -21.7542 -21.7373
    13.9154  14.9681  16.3393  16.3393  16.3600  16.3600  16.7914  16.8252
    16.8252  16.8400  16.8643  16.9769  17.2266  17.2267  17.2724  17.3700
    17.5640  17.6786  18.1336  18.1989  18.2854  18.3072  18.4096  18.4097
    18.5464  18.5464  18.8084  18.8084  18.9323  18.9323  19.0946  19.2662
    19.3615  19.3616  19.4755  19.4755  19.5393  19.5500  19.5741  19.5957
    19.5957  19.6719  19.9064  19.9065  19.9531  19.9735  20.7136  20.8169
    21.0837  21.2342  21.3057  21.3057  21.3167  21.3167  21.6020  21.6021
    21.6449  21.6533  21.7712  21.8825  21.8825  22.1230  22.2222  22.2625
    22.3596  22.3836  22.4851  22.4851  22.4950  22.5149

          k = 0.1696 0.1696-0.5087 ( 11914 PWs)   bands (ev):

   -50.9709 -50.9706 -50.8468 -50.8468 -50.8466 -50.8465 -50.8004 -50.8002
   -50.7766 -50.7764 -50.7679 -50.7678 -50.7677 -50.7676 -50.6798 -50.6796
   -22.6585 -22.6584 -22.6584 -22.6584 -22.6361 -22.6358 -22.6332 -22.6330
   -22.5393 -22.5393 -22.5393 -22.5393 -22.5261 -22.5260 -22.3686 -22.3684
   -22.2377 -22.2375 -22.2288 -22.2287 -22.1698 -22.1698 -22.1696 -22.1696
   -22.1048 -22.1046 -22.0537 -22.0536 -22.0067 -22.0067 -22.0065 -22.0065
   -21.8938 -21.8938 -21.8937 -21.8937 -21.8720 -21.8718 -21.8486 -21.8484
   -21.8188 -21.8186 -21.7771 -21.7771 -21.7771 -21.7771 -21.7619 -21.7618
    14.4057  14.4060  16.3762  16.3762  16.3764  16.3764  17.0365  17.0365
    17.0366  17.0366  17.0540  17.0543  17.0755  17.0758  17.2606  17.2609
    17.2952  17.2954  18.1563  18.1565  18.2501  18.2503  18.7489  18.7489
    18.7490  18.7490  18.7562  18.7562  18.7564  18.7565  19.3239  19.3239
    19.3239  19.3240  19.5050  19.5050  19.5050  19.5051  19.5052  19.5052
    19.5374  19.5374  19.6095  19.6096  19.6147  19.6149  20.9618  20.9619
    21.2071  21.2071  21.3755  21.3757  21.4464  21.4464  21.4464  21.4464
    21.6277  21.6277  21.6278  21.6278  22.1955  22.1956  22.2445  22.2447
    22.2994  22.2997  22.4146  22.4149  22.5058  22.5060

          k = 0.1696 0.2826 0.2826 ( 11896 PWs)   bands (ev):

   -51.0041 -50.8984 -50.8983 -50.8591 -50.8411 -50.8204 -50.8203 -50.7956
   -50.7751 -50.7750 -50.7723 -50.7646 -50.7640 -50.7347 -50.7346 -50.6544
   -22.7374 -22.7206 -22.7206 -22.6657 -22.6657 -22.6225 -22.5707 -22.5613
   -22.5573 -22.5572 -22.5131 -22.4946 -22.4443 -22.4236 -22.3631 -22.2998
   -22.2996 -22.2772 -22.2573 -22.2572 -22.2155 -22.1686 -22.1686 -22.1621
   -22.0939 -22.0579 -22.0578 -22.0434 -22.0433 -22.0034 -22.0005 -21.9885
   -21.9602 -21.9549 -21.9322 -21.9322 -21.8993 -21.8478 -21.8246 -21.8124
   -21.8124 -21.8056 -21.8055 -21.7689 -21.7689 -21.7586 -21.7347 -21.7249
    13.7866  15.7152  15.7152  16.2582  16.3849  16.5632  16.5632  16.7231
    16.7814  16.7940  16.8400  16.8400  17.4018  17.4018  17.4470  17.6786
    17.8462  17.8462  17.9792  18.1123  18.2189  18.3350  18.3350  18.4524
    18.4963  18.4963  18.5306  18.6370  18.8062  18.8609  18.9175  19.2114
    19.2114  19.3922  19.4306  19.4306  19.5314  19.5321  19.6404  19.7040
    19.8217  19.8218  20.0466  20.0466  20.1222  20.1254  20.1255  20.7268
    21.1084  21.1084  21.1615  21.3339  21.4236  21.4237  21.6133  21.6424
    21.8826  21.8826  21.8881  21.8882  21.8919  22.0339  22.0821  22.0822
    22.0993  22.4089  22.4114  22.4177  22.4262  22.5008

          k = 0.1696 0.2826 0.3957 ( 11911 PWs)   bands (ev):

   -50.9844 -50.9304 -50.8873 -50.8579 -50.8514 -50.8313 -50.8151 -50.8022
   -50.7739 -50.7722 -50.7707 -50.7657 -50.7537 -50.7392 -50.7086 -50.6681
   -22.7065 -22.6857 -22.6756 -22.6442 -22.6107 -22.6101 -22.5989 -22.5946
   -22.5630 -22.5546 -22.5502 -22.5370 -22.4824 -22.4136 -22.3825 -22.3283
   -22.3169 -22.2453 -22.2253 -22.2227 -22.2203 -22.2140 -22.1948 -22.1946
   -22.1145 -22.0879 -22.0614 -22.0386 -22.0303 -22.0122 -21.9991 -21.9773
   -21.9430 -21.9254 -21.9103 -21.8926 -21.8766 -21.8659 -21.8384 -21.8218
   -21.8102 -21.8035 -21.7882 -21.7752 -21.7751 -21.7713 -21.7387 -21.7302
    14.1624  15.1609  15.8949  16.1789  16.5193  16.5978  16.8998  16.9006
    16.9756  17.0131  17.0328  17.1174  17.3082  17.3122  17.4199  17.5479
    17.6004  17.7032  18.1465  18.2021  18.2399  18.2749  18.3856  18.3927
    18.4713  18.5836  18.6173  18.7379  18.8329  18.9636  18.9919  19.1015
    19.1580  19.2581  19.2893  19.3486  19.4134  19.4150  19.4335  19.4621
    19.5706  19.6026  19.6076  19.6097  19.7381  19.7538  20.3970  20.9912
    21.1831  21.3067  21.4110  21.4156  21.4160  21.4771  21.4949  21.5845
    21.7452  21.7470  21.7505  21.9136  21.9142  22.0287  22.1469  22.1933
    22.2664  22.3134  22.3305  22.4274  22.4974  22.4982

          k = 0.1696 0.2826-0.5087 ( 11888 PWs)   bands (ev):

   -50.9596 -50.9594 -50.8737 -50.8734 -50.8420 -50.8418 -50.8090 -50.8087
   -50.7729 -50.7727 -50.7678 -50.7676 -50.7456 -50.7454 -50.6864 -50.6862
   -22.6627 -22.6627 -22.6429 -22.6428 -22.6198 -22.6196 -22.6190 -22.6187
   -22.5553 -22.5552 -22.5469 -22.5469 -22.4683 -22.4682 -22.3699 -22.3696
   -22.2760 -22.2759 -22.2232 -22.2230 -22.2143 -22.2142 -22.1714 -22.1713
   -22.1245 -22.1245 -22.0778 -22.0776 -22.0205 -22.0204 -21.9582 -21.9580
   -21.9433 -21.9433 -21.8710 -21.8709 -21.8634 -21.8632 -21.8396 -21.8395
   -21.8281 -21.8279 -21.7866 -21.7866 -21.7523 -21.7523 -21.7458 -21.7457
    14.6303  14.6306  16.0590  16.0592  16.5947  16.5949  17.1103  17.1105
    17.1567  17.1569  17.2434  17.2435  17.2749  17.2752  17.3006  17.3009
    17.4031  17.4033  18.2228  18.2230  18.3276  18.3277  18.5160  18.5163
    18.5555  18.5557  18.6224  18.6226  18.7699  18.7699  19.1904  19.1905
    19.2897  19.2898  19.3024  19.3025  19.3357  19.3357  19.3556  19.3557
    19.4084  19.4084  19.4549  19.4549  19.4975  19.4977  20.7567  20.7568
    21.2773  21.2773  21.4289  21.4289  21.5387  21.5389  21.6121  21.6121
    21.6815  21.6817  21.6923  21.6924  22.1242  22.1243  22.1791  22.1793
    22.2348  22.2351  22.3458  22.3460  22.4724  22.4726

          k = 0.1696 0.3957 0.3957 ( 11896 PWs)   bands (ev):

   -50.9662 -50.9167 -50.9166 -50.8795 -50.8441 -50.8253 -50.8252 -50.8101
   -50.7708 -50.7703 -50.7702 -50.7665 -50.7386 -50.7160 -50.7159 -50.6802
   -22.6853 -22.6499 -22.6499 -22.6081 -22.6081 -22.6067 -22.6038 -22.6038
   -22.5959 -22.5720 -22.5661 -22.5175 -22.4722 -22.3892 -22.3286 -22.3013
   -22.3013 -22.2979 -22.2978 -22.2503 -22.2470 -22.2469 -22.2365 -22.1694
   -22.1203 -22.0727 -22.0550 -22.0549 -22.0466 -22.0466 -22.0245 -21.9439
   -21.9418 -21.8924 -21.8923 -21.8878 -21.8778 -21.8470 -21.8333 -21.8333
   -21.8133 -21.8061 -21.8060 -21.8009 -21.7496 -21.7496 -21.7325 -21.7272
    14.5130  15.4162  15.4163  15.9578  16.7245  16.9235  16.9236  17.0284
    17.1095  17.2671  17.2788  17.2789  17.2998  17.2998  17.5761  17.5844
    17.6309  17.8617  17.8617  18.1454  18.2788  18.3686  18.3858  18.3859
    18.4316  18.4316  18.5889  18.6592  18.6824  18.7372  19.0447  19.0450
    19.0451  19.1161  19.2526  19.2544  19.2544  19.2948  19.2948  19.3111
    19.3120  19.3667  19.3668  19.4861  19.5301  19.9912  19.9912  20.7297
    21.2996  21.4565  21.5534  21.5534  21.5932  21.6219  21.6219  21.6490
    21.7997  21.9072  21.9196  21.9197  21.9669  21.9670  21.9967  21.9968
    22.1669  22.2232  22.2300  22.2373  22.3276  22.4425

          k = 0.1696 0.3957-0.5087 ( 11918 PWs)   bands (ev):

   -50.9434 -50.9432 -50.8995 -50.8992 -50.8353 -50.8350 -50.8181 -50.8179
   -50.7703 -50.7701 -50.7680 -50.7678 -50.7261 -50.7258 -50.6963 -50.6961
   -22.6511 -22.6511 -22.6248 -22.6247 -22.6090 -22.6088 -22.5988 -22.5986
   -22.5919 -22.5919 -22.5598 -22.5597 -22.3864 -22.3864 -22.3501 -22.3499
   -22.2961 -22.2961 -22.2731 -22.2729 -22.2588 -22.2587 -22.2095 -22.2095
   -22.1116 -22.1115 -22.0611 -22.0610 -22.0355 -22.0354 -21.9970 -21.9970
   -21.9150 -21.9148 -21.8520 -21.8519 -21.8489 -21.8486 -21.8451 -21.8449
   -21.8359 -21.8358 -21.8020 -21.8020 -21.7362 -21.7362 -21.7335 -21.7334
    14.9420  14.9423  15.6953  15.6955  16.8753  16.8755  17.1667  17.1669
    17.2128  17.2130  17.2864  17.2866  17.4921  17.4922  17.5414  17.5416
    17.5612  17.5614  18.2455  18.2458  18.2978  18.2980  18.3170  18.3170
    18.3276  18.3276  18.4923  18.4924  18.8385  18.8386  18.9326  18.9326
    19.0706  19.0707  19.1273  19.1273  19.1482  19.1483  19.2066  19.2066
    19.3931  19.3931  19.4146  19.4147  19.6244  19.6245  20.3220  20.3220
    21.5051  21.5051  21.6161  21.6161  21.7222  21.7223  21.7756  21.7758
    21.7958  21.7959  21.8007  21.8009  21.9107  21.9108  22.0870  22.0872
    22.1098  22.1101  22.2671  22.2673  22.3166  22.3167

          k = 0.1696-0.5087-0.5087 ( 11948 PWs)   bands (ev):

   -50.9232 -50.9230 -50.9229 -50.9228 -50.8272 -50.8270 -50.8269 -50.8268
   -50.7688 -50.7687 -50.7685 -50.7685 -50.7096 -50.7095 -50.7094 -50.7093
   -22.6260 -22.6260 -22.6260 -22.6260 -22.6111 -22.6110 -22.6109 -22.6109
   -22.5777 -22.5777 -22.5776 -22.5775 -22.3165 -22.3163 -22.3162 -22.3162
   -22.2985 -22.2985 -22.2984 -22.2983 -22.2896 -22.2896 -22.2896 -22.2896
   -22.0535 -22.0535 -22.0534 -22.0534 -22.0486 -22.0486 -22.0486 -22.0486
   -21.8784 -21.8782 -21.8781 -21.8780 -21.8400 -21.8400 -21.8399 -21.8399
   -21.8226 -21.8226 -21.8225 -21.8225 -21.7301 -21.7301 -21.7301 -21.7300
    15.3099  15.3101  15.3103  15.3103  17.1398  17.1399  17.1400  17.1401
    17.2092  17.2094  17.2095  17.2096  17.6272  17.6272  17.6273  17.6274
    17.8976  17.8977  17.8979  17.8980  18.2323  18.2323  18.2324  18.2325
    18.3969  18.3970  18.3970  18.3971  18.9012  18.9013  18.9013  18.9013
    18.9581  18.9581  18.9582  18.9582  19.1234  19.1234  19.1235  19.1235
    19.3749  19.3750  19.3750  19.3750  19.9361  19.9361  19.9361  19.9361
    21.6784  21.6784  21.6785  21.6785  21.8045  21.8046  21.8046  21.8047
    21.9545  21.9547  21.9548  21.9548  21.9601  21.9602  21.9603  21.9603
    21.9989  21.9989  21.9990  21.9990  22.2441  22.2444

          k = 0.2826 0.2826 0.2826 ( 11881 PWs)   bands (ev):

   -50.9911 -50.8911 -50.8909 -50.8909 -50.8365 -50.8363 -50.8363 -50.8040
   -50.7687 -50.7640 -50.7638 -50.7638 -50.7373 -50.7372 -50.7372 -50.6629
   -22.7055 -22.7055 -22.7054 -22.6153 -22.6153 -22.6153 -22.5813 -22.5742
   -22.5741 -22.5741 -22.4876 -22.4876 -22.4491 -22.4491 -22.3503 -22.3503
   -22.3502 -22.2836 -22.2836 -22.2836 -22.2240 -22.2108 -22.2108 -22.2108
   -22.0231 -22.0099 -22.0099 -22.0098 -22.0098 -22.0098 -22.0061 -22.0061
   -22.0060 -21.9378 -21.9378 -21.9378 -21.8722 -21.8387 -21.8387 -21.8387
   -21.7929 -21.7928 -21.7928 -21.7645 -21.7645 -21.7645 -21.7480 -21.7480
    14.0425  15.8882  15.8883  15.8883  16.5100  16.5100  16.5100  16.8979
    16.8979  17.0022  17.0022  17.0022  17.5729  17.5729  17.5730  17.6867
    17.8211  17.8211  17.8211  18.2020  18.2020  18.2582  18.3995  18.3995
    18.3995  18.6486  18.6486  18.6486  18.7104  18.7104  19.0313  19.0313
    19.0314  19.2766  19.2767  19.2767  19.4339  19.4339  19.4340  19.4706
    19.4706  19.7305  19.7306  19.7306  19.7907  19.7907  19.7908  20.9903
    21.1669  21.2884  21.2884  21.2885  21.5864  21.5864  21.5865  21.7831
    21.7831  21.7831  21.9935  21.9935  22.0699  22.0699  22.0699  22.2270
    22.2270  22.2272  22.4166  22.4166  22.4167  22.4244

          k = 0.2826 0.2826 0.3957 ( 11903 PWs)   bands (ev):

   -50.9724 -50.9213 -50.8804 -50.8803 -50.8524 -50.8523 -50.8298 -50.8130
   -50.7662 -50.7640 -50.7545 -50.7545 -50.7413 -50.7413 -50.7130 -50.6755
   -22.6772 -22.6771 -22.6590 -22.6065 -22.6038 -22.6038 -22.5893 -22.5713
   -22.5535 -22.5534 -22.5287 -22.5254 -22.4507 -22.4146 -22.4146 -22.3943
   -22.3470 -22.2902 -22.2902 -22.2703 -22.2688 -22.2482 -22.2482 -22.1696
   -22.0993 -22.0595 -22.0220 -22.0194 -21.9829 -21.9828 -21.9559 -21.9558
   -21.9475 -21.9475 -21.9327 -21.8780 -21.8713 -21.8712 -21.8512 -21.8345
   -21.8083 -21.7817 -21.7802 -21.7801 -21.7682 -21.7654 -21.7654 -21.7453
    14.4079  15.3663  16.0990  16.0990  16.4308  16.4308  16.8666  17.0678
    17.1259  17.1882  17.1883  17.2754  17.5340  17.5395  17.5395  17.5400
    17.6799  17.7752  18.0518  18.0518  18.2224  18.3343  18.4813  18.4862
    18.5188  18.5188  18.5272  18.7493  18.7493  18.8577  18.8577  18.9095
    19.0889  19.0889  19.1547  19.1548  19.1695  19.2216  19.2897  19.3029
    19.3286  19.3871  19.3989  19.3990  19.4713  19.4714  19.9784  20.7031
    21.2884  21.4663  21.5223  21.5223  21.6557  21.6557  21.7122  21.7122
    21.8432  21.9156  21.9360  21.9586  21.9586  21.9800  22.1312  22.1393
    22.3287  22.3340  22.4225  22.4225  22.4245  22.4298

          k = 0.2826 0.2826-0.5087 ( 11876 PWs)   bands (ev):

   -50.9489 -50.9487 -50.8674 -50.8673 -50.8672 -50.8671 -50.8219 -50.8217
   -50.7648 -50.7646 -50.7471 -50.7471 -50.7469 -50.7468 -50.6924 -50.6922
   -22.6409 -22.6408 -22.6408 -22.6408 -22.5996 -22.5993 -22.5976 -22.5975
   -22.5541 -22.5541 -22.4846 -22.4846 -22.4846 -22.4845 -22.4033 -22.4031
   -22.3334 -22.3333 -22.2766 -22.2766 -22.2764 -22.2764 -22.1839 -22.1839
   -22.1137 -22.1136 -22.0248 -22.0247 -21.9622 -21.9622 -21.9621 -21.9620
   -21.9105 -21.9104 -21.9104 -21.9103 -21.8650 -21.8648 -21.8384 -21.8383
   -21.8256 -21.8254 -21.7706 -21.7705 -21.7705 -21.7705 -21.7519 -21.7519
    14.8596  14.8599  16.2936  16.2936  16.2938  16.2939  17.2847  17.2849
    17.3009  17.3012  17.3604  17.3607  17.3777  17.3778  17.3779  17.3779
    17.5420  17.5422  18.2706  18.2707  18.3953  18.3953  18.4379  18.4379
    18.4381  18.4382  18.6801  18.6801  18.6802  18.6803  18.8926  18.8927
    19.1092  19.1093  19.1857  19.1857  19.1857  19.1858  19.1972  19.1973
    19.1973  19.1973  19.2405  19.2406  19.2862  19.2864  20.2927  20.2927
    21.6079  21.6079  21.6606  21.6608  21.6778  21.6778  21.6778  21.6779
    21.7597  21.7597  21.7598  21.7598  22.1705  22.1707  22.2302  22.2304
    22.2933  22.2936  22.2999  22.3000  22.4295  22.4297

          k = 0.2826 0.3957 0.3957 ( 11891 PWs)   bands (ev):

   -50.9552 -50.9082 -50.9081 -50.8728 -50.8705 -50.8445 -50.8444 -50.8241
   -50.7615 -50.7559 -50.7558 -50.7447 -50.7405 -50.7198 -50.7197 -50.6867
   -22.6549 -22.6351 -22.6351 -22.6022 -22.5929 -22.5929 -22.5795 -22.5596
   -22.5596 -22.5392 -22.5356 -22.4859 -22.4581 -22.4459 -22.4105 -22.3525
   -22.3525 -22.3374 -22.3373 -22.3227 -22.3095 -22.3095 -22.2957 -22.1751
   -22.1124 -22.0055 -22.0054 -21.9928 -21.9878 -21.9878 -21.9546 -21.9426
   -21.9152 -21.9102 -21.9048 -21.8889 -21.8889 -21.8541 -21.8540 -21.8435
   -21.8041 -21.8041 -21.7995 -21.7878 -21.7639 -21.7639 -21.7608 -21.7518
    14.7551  15.6396  15.6397  16.2122  16.3584  16.7842  16.7842  17.2212
    17.3302  17.3519  17.4675  17.4676  17.5058  17.5059  17.6019  17.7723
    17.7895  17.8567  17.8568  17.9709  18.3079  18.4366  18.4369  18.4397
    18.4398  18.5173  18.5173  18.6162  18.6425  18.7156  18.8131  18.9561
    18.9562  18.9718  18.9962  18.9997  18.9998  19.0265  19.0265  19.1251
    19.1251  19.1775  19.2084  19.2112  19.2712  19.5855  19.5856  20.2456
    21.6235  21.6614  21.6614  21.6901  21.7381  21.8323  21.8961  21.9167
    21.9167  21.9472  21.9472  21.9626  22.0430  22.0430  22.1119  22.2606
    22.2992  22.2992  22.3001  22.3277  22.4070  22.4187

          k = 0.2826 0.3957-0.5087 ( 11900 PWs)   bands (ev):

   -50.9335 -50.9333 -50.8918 -50.8916 -50.8584 -50.8582 -50.8350 -50.8347
   -50.7583 -50.7580 -50.7496 -50.7493 -50.7290 -50.7287 -50.7015 -50.7013
   -22.6243 -22.6242 -22.6131 -22.6130 -22.5841 -22.5839 -22.5691 -22.5691
   -22.5688 -22.5686 -22.5084 -22.5083 -22.4120 -22.4119 -22.4065 -22.4063
   -22.3690 -22.3689 -22.3329 -22.3327 -22.3299 -22.3298 -22.2558 -22.2557
   -22.0579 -22.0578 -21.9899 -21.9898 -21.9670 -21.9669 -21.9554 -21.9553
   -21.9108 -21.9106 -21.8809 -21.8808 -21.8530 -21.8528 -21.8445 -21.8444
   -21.8386 -21.8384 -21.7967 -21.7967 -21.7607 -21.7607 -21.7549 -21.7549
    15.1776  15.1779  15.9378  15.9381  16.6094  16.6096  17.2021  17.2024
    17.3740  17.3742  17.4389  17.4390  17.6182  17.6185  17.6699  17.6700
    17.7238  17.7240  18.2406  18.2408  18.2637  18.2639  18.3645  18.3646
    18.3675  18.3676  18.5757  18.5758  18.6807  18.6808  18.7630  18.7631
    18.8942  18.8944  18.9033  18.9035  19.0158  19.0158  19.0495  19.0495
    19.1134  19.1135  19.1791  19.1791  19.2505  19.2505  19.8555  19.8555
    21.8019  21.8021  21.8229  21.8229  21.8489  21.8491  21.8765  21.8767
    21.9153  21.9153  21.9810  21.9810  22.1502  22.1504  22.1560  22.1561
    22.2332  22.2335  22.2378  22.2379  22.3302  22.3305

          k = 0.2826-0.5087-0.5087 ( 11884 PWs)   bands (ev):

   -50.9143 -50.9141 -50.9140 -50.9139 -50.8475 -50.8473 -50.8472 -50.8471
   -50.7533 -50.7532 -50.7530 -50.7529 -50.7138 -50.7137 -50.7135 -50.7135
   -22.5973 -22.5973 -22.5973 -22.5973 -22.5890 -22.5890 -22.5889 -22.5888
   -22.5377 -22.5377 -22.5376 -22.5376 -22.3788 -22.3787 -22.3786 -22.3785
   -22.3668 -22.3667 -22.3667 -22.3667 -22.3339 -22.3339 -22.3338 -22.3338
   -22.0047 -22.0046 -22.0046 -22.0045 -21.9738 -21.9738 -21.9737 -21.9737
   -21.8686 -21.8685 -21.8683 -21.8683 -21.8587 -21.8586 -21.8586 -21.8585
   -21.8269 -21.8269 -21.8268 -21.8267 -21.7561 -21.7561 -21.7561 -21.7561
    15.5514  15.5515  15.5517  15.5518  16.9463  16.9464  16.9466  16.9467
    17.4284  17.4285  17.4286  17.4287  17.8700  17.8701  17.8701  17.8702
    17.9390  17.9392  17.9393  17.9394  18.1801  18.1802  18.1803  18.1804
    18.4756  18.4756  18.4757  18.4757  18.6928  18.6929  18.6929  18.6929
    18.8826  18.8826  18.8827  18.8827  18.8937  18.8937  18.8938  18.8938
    19.1167  19.1167  19.1168  19.1168  19.4898  19.4898  19.4899  19.4899
    21.8887  21.8888  21.8889  21.8889  22.0169  22.0170  22.0171  22.0172
    22.0315  22.0315  22.0315  22.0316  22.0834  22.0835  22.0835  22.0836
    22.2246  22.2248  22.2249  22.2250  22.3707  22.3707

          k = 0.3957 0.3957 0.3957 ( 11890 PWs)   bands (ev):

   -50.9392 -50.8960 -50.8959 -50.8959 -50.8634 -50.8632 -50.8632 -50.8382
   -50.7539 -50.7436 -50.7435 -50.7435 -50.7256 -50.7255 -50.7255 -50.6964
   -22.6106 -22.6106 -22.6106 -22.5812 -22.5812 -22.5812 -22.5562 -22.5060
   -22.5060 -22.5060 -22.4999 -22.4999 -22.4864 -22.4864 -22.3899 -22.3899
   -22.3898 -22.3890 -22.3890 -22.3889 -22.3621 -22.3620 -22.3620 -22.2418
   -22.0577 -21.9581 -21.9581 -21.9580 -21.9392 -21.9392 -21.9392 -21.9197
   -21.9197 -21.8907 -21.8907 -21.8906 -21.8816 -21.8816 -21.8815 -21.8478
   -21.8022 -21.8022 -21.8021 -21.7880 -21.7880 -21.7814 -21.7813 -21.7813
    15.0955  15.9406  15.9407  15.9407  16.5694  16.5694  16.5694  17.3983
    17.4732  17.4732  17.6307  17.6307  17.6308  17.7931  17.7931  17.7932
    17.8614  17.8614  17.8614  17.9514  18.3655  18.3655  18.5064  18.5064
    18.5320  18.5320  18.5321  18.6125  18.6125  18.6126  18.6673  18.6673
    18.6673  18.8397  18.8397  18.8398  18.8640  18.8641  18.8641  18.9077
    18.9078  18.9078  19.0771  19.0771  19.2023  19.2023  19.2024  19.7878
    21.8077  21.8077  21.8077  21.9928  22.0205  22.0205  22.0205  22.0303
    22.0303  22.0529  22.0529  22.0530  22.0980  22.0980  22.0981  22.2894
    22.2894  22.3232  22.3232  22.3232  22.3465  22.3466

          k = 0.3957 0.3957-0.5087 ( 11862 PWs)   bands (ev):

   -50.9193 -50.9190 -50.8808 -50.8808 -50.8806 -50.8805 -50.8516 -50.8514
   -50.7481 -50.7478 -50.7335 -50.7335 -50.7333 -50.7332 -50.7095 -50.7092
   -22.5874 -22.5874 -22.5873 -22.5873 -22.5540 -22.5538 -22.5460 -22.5460
   -22.5304 -22.5303 -22.4497 -22.4494 -22.4473 -22.4473 -22.4472 -22.4472
   -22.4274 -22.4273 -22.3938 -22.3938 -22.3937 -22.3936 -22.3151 -22.3150
   -22.0060 -22.0059 -21.9315 -21.9314 -21.9164 -21.9164 -21.9164 -21.9163
   -21.9057 -21.9057 -21.9056 -21.9056 -21.8605 -21.8604 -21.8556 -21.8554
   -21.8345 -21.8343 -21.7955 -21.7954 -21.7954 -21.7954 -21.7813 -21.7813
    15.5042  15.5045  16.2717  16.2717  16.2720  16.2720  16.9922  16.9924
    17.6233  17.6236  17.7237  17.7239  17.7535  17.7536  17.7537  17.7537
    17.9401  17.9403  18.2138  18.2138  18.2140  18.2141  18.4081  18.4081
    18.4439  18.4440  18.5586  18.5587  18.5668  18.5670  18.6691  18.6691
    18.6692  18.6693  18.8274  18.8275  18.8275  18.8276  18.8863  18.8864
    18.8864  18.8864  18.9466  18.9468  18.9616  18.9618  19.4117  19.4117
    21.9259  21.9260  21.9588  21.9588  21.9590  21.9590  22.1063  22.1063
    22.1064  22.1064  22.1663  22.1665  22.1873  22.1876  22.2614  22.2615
    22.3107  22.3110  22.3131  22.3131  22.3133  22.3133

          k = 0.3957-0.5087-0.5087 ( 11872 PWs)   bands (ev):

   -50.9015 -50.9014 -50.9012 -50.9011 -50.8673 -50.8671 -50.8670 -50.8669
   -50.7399 -50.7398 -50.7396 -50.7395 -50.7202 -50.7201 -50.7199 -50.7198
   -22.5556 -22.5556 -22.5555 -22.5555 -22.5518 -22.5518 -22.5516 -22.5516
   -22.4885 -22.4884 -22.4884 -22.4883 -22.4430 -22.4429 -22.4428 -22.4428
   -22.4383 -22.4383 -22.4383 -22.4383 -22.3810 -22.3810 -22.3809 -22.3809
   -21.9583 -21.9582 -21.9582 -21.9581 -21.9052 -21.9052 -21.9052 -21.9052
   -21.8844 -21.8844 -21.8843 -21.8842 -21.8570 -21.8569 -21.8568 -21.8567
   -21.8348 -21.8347 -21.8346 -21.8346 -21.7949 -21.7949 -21.7949 -21.7949
    15.8857  15.8858  15.8860  15.8861  16.6504  16.6505  16.6507  16.6508
    17.7290  17.7292  17.7293  17.7294  17.9948  17.9949  17.9950  17.9951
    18.1216  18.1217  18.1218  18.1219  18.1276  18.1276  18.1277  18.1278
    18.5701  18.5701  18.5702  18.5702  18.6060  18.6061  18.6062  18.6062
    18.6082  18.6082  18.6083  18.6084  18.7842  18.7842  18.7842  18.7843
    18.8636  18.8636  18.8637  18.8637  19.0486  19.0486  19.0486  19.0486
    22.0048  22.0050  22.0051  22.0051  22.0837  22.0838  22.0839  22.0840
    22.1917  22.1918  22.1920  22.1920  22.2847  22.2848  22.2848  22.2849
    22.2921  22.2922  22.2924  22.2924  22.3351  22.3352

          k =-0.5087-0.5087-0.5087 ( 11752 PWs)   bands (ev):

   -50.8857 -50.8855 -50.8854 -50.8854 -50.8853 -50.8852 -50.8852 -50.8851
   -50.7289 -50.7288 -50.7288 -50.7287 -50.7286 -50.7286 -50.7285 -50.7285
   -22.5021 -22.5020 -22.5020 -22.5020 -22.5020 -22.5020 -22.5020 -22.5019
   -22.5019 -22.5018 -22.5018 -22.5018 -22.5018 -22.5018 -22.5017 -22.5017
   -22.4340 -22.4340 -22.4340 -22.4339 -22.4339 -22.4339 -22.4339 -22.4337
   -21.9178 -21.9177 -21.9177 -21.9177 -21.9177 -21.9177 -21.9176 -21.9175
   -21.8449 -21.8449 -21.8449 -21.8449 -21.8449 -21.8448 -21.8448 -21.8448
   -21.8448 -21.8447 -21.8447 -21.8447 -21.8447 -21.8446 -21.8446 -21.8446
    16.2729  16.2730  16.2731  16.2732  16.2732  16.2733  16.2734  16.2734
    18.0579  18.0579  18.0580  18.0580  18.0581  18.0581  18.0581  18.0581
    18.0582  18.0582  18.0583  18.0583  18.0583  18.0583  18.0583  18.0584
    18.6671  18.6671  18.6671  18.6671  18.6671  18.6672  18.6672  18.6673
    18.6759  18.6759  18.6759  18.6759  18.6760  18.6760  18.6760  18.6760
    18.6760  18.6761  18.6761  18.6761  18.6761  18.6762  18.6762  18.6762
    22.1440  22.1440  22.1441  22.1441  22.1442  22.1442  22.1442  22.1442
    22.1442  22.1443  22.1443  22.1444  22.1444  22.1444  22.1444  22.1444
    22.5597  22.5597  22.5597  22.5597  22.5598  22.5598

 ------ SPIN DOWN ----------


          k = 0.0565 0.0565 0.0565 ( 11876 PWs)   bands (ev):

   -51.0548 -50.8383 -50.8383 -50.8382 -50.8023 -50.8023 -50.8023 -50.7985
   -50.7985 -50.7983 -50.7905 -50.7905 -50.7901 -50.7812 -50.7698 -50.6196
   -22.8131 -22.8130 -22.8130 -22.8077 -22.8077 -22.8076 -22.4647 -22.4647
   -22.4524 -22.3541 -22.3489 -22.3489 -22.3488 -22.3075 -22.3075 -22.2840
   -22.2840 -22.2840 -22.2112 -22.2112 -22.1640 -22.1107 -22.1106 -22.1106
   -22.0906 -22.0906 -22.0906 -22.0632 -22.0632 -22.0632 -22.0505 -22.0505
   -22.0505 -22.0437 -22.0436 -22.0436 -22.0253 -22.0253 -22.0251 -21.7278
   -21.7278 -21.7277 -21.7246 -21.7219 -21.7219 -21.7219 -21.7119 -21.7119
    12.8313  16.1486  16.1486  16.1486  16.1688  16.1688  16.1688  16.2098
    16.2098  16.5797  16.5797  16.5797  16.9920  16.9921  16.9921  18.2051
    18.2227  18.2228  18.2228  18.2399  18.2399  18.2400  18.3207  18.3207
    18.5122  18.5122  18.5827  18.6137  18.6137  18.6137  19.1073  19.1073
    19.1073  19.8882  19.8882  19.9482  20.2635  20.2635  20.2636  20.3887
    20.3888  20.3888  20.4999  20.4999  20.5000  20.6182  20.6183  20.6183
    21.5708  21.5708  21.5708  21.6935  21.6935  21.6935  21.8871  21.8871
    21.8871  21.9594  21.9595  21.9595  22.1135  22.1135  22.1135  22.1182
    22.1182  22.1853  22.1853  22.1853  22.5092  22.5093

          k = 0.0565 0.0565 0.1696 ( 11881 PWs)   bands (ev):

   -51.0470 -50.8764 -50.8364 -50.8363 -50.8053 -50.8052 -50.8010 -50.7977
   -50.7976 -50.7902 -50.7900 -50.7891 -50.7825 -50.7710 -50.7625 -50.6250
   -22.7973 -22.7973 -22.7961 -22.7912 -22.7814 -22.7814 -22.4725 -22.4527
   -22.4342 -22.4242 -22.4043 -22.4043 -22.4021 -22.3995 -22.3424 -22.3424
   -22.2764 -22.2225 -22.2085 -22.1759 -22.1548 -22.1180 -22.1103 -22.1103
   -22.0921 -22.0760 -22.0686 -22.0685 -22.0628 -22.0478 -22.0478 -22.0446
   -22.0446 -22.0406 -22.0406 -21.9795 -21.9778 -21.9777 -21.9624 -21.7543
   -21.7445 -21.7444 -21.7426 -21.7378 -21.7274 -21.7273 -21.7224 -21.7167
    12.9744  16.0264  16.1873  16.1873  16.2486  16.2486  16.2670  16.2845
    16.2859  16.2982  16.6160  16.6160  17.0194  17.0194  17.2160  18.0633
    18.1342  18.1916  18.2029  18.2186  18.2334  18.2846  18.2847  18.3361
    18.3362  18.3718  18.5784  18.5784  18.7645  18.7697  19.0096  19.0096
    19.5742  19.8534  19.8797  19.9942  19.9943  20.0256  20.0809  20.2159
    20.2159  20.2551  20.6006  20.6006  20.7507  20.7507  20.7913  20.9180
    21.0891  21.0891  21.2647  21.4022  21.4022  21.4125  21.5568  21.8653
    21.8653  22.0143  22.0227  22.0227  22.1299  22.1300  22.1395  22.1597
    22.1713  22.1741  22.1742  22.2039  22.5134  22.5406

          k = 0.0565 0.0565 0.2826 ( 11883 PWs)   bands (ev):

   -51.0320 -50.9143 -50.8329 -50.8328 -50.8101 -50.8101 -50.7986 -50.7963
   -50.7962 -50.7904 -50.7902 -50.7868 -50.7848 -50.7734 -50.7289 -50.6358
   -22.7626 -22.7617 -22.7616 -22.7589 -22.7359 -22.7358 -22.5034 -22.4927
   -22.4821 -22.4820 -22.4771 -22.4365 -22.4289 -22.4245 -22.4244 -22.4073
   -22.2447 -22.2390 -22.2173 -22.2092 -22.1241 -22.1061 -22.1061 -22.1003
   -22.0860 -22.0761 -22.0761 -22.0455 -22.0455 -22.0442 -22.0442 -22.0291
   -22.0135 -21.9772 -21.9772 -21.9190 -21.9180 -21.9179 -21.9031 -21.8038
   -21.7724 -21.7723 -21.7722 -21.7694 -21.7444 -21.7443 -21.7437 -21.7346
    13.2547  15.4001  16.2770  16.2770  16.3829  16.3829  16.4325  16.4637
    16.4945  16.5106  16.6487  16.6487  17.0164  17.0164  17.2485  17.6872
    17.8801  17.9580  18.1183  18.1688  18.1820  18.1990  18.4231  18.4232
    18.5083  18.5083  18.6147  18.6147  18.9664  18.9664  19.0745  19.0946
    19.6314  19.6315  19.8285  19.8305  19.8306  19.8527  19.8670  19.9505
    20.1394  20.3579  20.4384  20.4384  20.6927  20.6927  20.9240  20.9240
    20.9476  20.9731  20.9731  20.9767  20.9994  21.1393  21.2794  21.8113
    21.8808  21.8809  22.0162  22.0163  22.1887  22.2095  22.2397  22.2562
    22.2562  22.4853  22.4930  22.5118  22.5210  22.5534

[...]
    21.7958  21.7958  21.8007  21.8008  21.9106  21.9107  22.0870  22.0871
    22.1098  22.1099  22.2671  22.2672  22.3165  22.3166

          k = 0.1696-0.5087-0.5087 ( 11948 PWs)   bands (ev):

   -50.9233 -50.9231 -50.9230 -50.9229 -50.8273 -50.8272 -50.8271 -50.8270
   -50.7689 -50.7688 -50.7687 -50.7686 -50.7097 -50.7096 -50.7095 -50.7094
   -22.6262 -22.6261 -22.6260 -22.6260 -22.6112 -22.6111 -22.6111 -22.6110
   -22.5778 -22.5778 -22.5777 -22.5777 -22.3165 -22.3164 -22.3164 -22.3163
   -22.2986 -22.2986 -22.2985 -22.2985 -22.2898 -22.2898 -22.2896 -22.2896
   -22.0536 -22.0536 -22.0535 -22.0535 -22.0488 -22.0488 -22.0486 -22.0486
   -21.8784 -21.8783 -21.8782 -21.8781 -21.8401 -21.8401 -21.8401 -21.8400
   -21.8227 -21.8227 -21.8226 -21.8226 -21.7302 -21.7302 -21.7301 -21.7301
    15.3100  15.3101  15.3103  15.3104  17.1399  17.1399  17.1400  17.1401
    17.2093  17.2094  17.2095  17.2095  17.6272  17.6272  17.6273  17.6273
    17.8976  17.8977  17.8979  17.8979  18.2323  18.2323  18.2324  18.2324
    18.3969  18.3969  18.3970  18.3970  18.9012  18.9012  18.9012  18.9013
    18.9580  18.9581  18.9581  18.9582  19.1234  19.1234  19.1234  19.1235
    19.3749  19.3749  19.3750  19.3750  19.9360  19.9360  19.9361  19.9361
    21.6783  21.6784  21.6784  21.6785  21.8044  21.8045  21.8045  21.8046
    21.9545  21.9546  21.9546  21.9547  21.9601  21.9602  21.9602  21.9602
    21.9988  21.9988  21.9989  21.9989  22.2441  22.2444

          k = 0.2826 0.2826 0.2826 ( 11881 PWs)   bands (ev):

   -50.9913 -50.8911 -50.8911 -50.8909 -50.8366 -50.8366 -50.8364 -50.8041
   -50.7688 -50.7641 -50.7640 -50.7638 -50.7374 -50.7374 -50.7372 -50.6630
   -22.7056 -22.7055 -22.7055 -22.6154 -22.6154 -22.6153 -22.5814 -22.5743
   -22.5743 -22.5741 -22.4877 -22.4877 -22.4492 -22.4492 -22.3505 -22.3504
   -22.3504 -22.2837 -22.2837 -22.2837 -22.2241 -22.2110 -22.2110 -22.2108
   -22.0232 -22.0100 -22.0100 -22.0099 -22.0099 -22.0098 -22.0062 -22.0061
   -22.0061 -21.9380 -21.9379 -21.9379 -21.8723 -21.8388 -21.8388 -21.8388
   -21.7930 -21.7930 -21.7928 -21.7647 -21.7646 -21.7646 -21.7481 -21.7481
    14.0425  15.8883  15.8883  15.8883  16.5101  16.5101  16.5101  16.8979
    16.8979  17.0021  17.0022  17.0022  17.5729  17.5730  17.5730  17.6867
    17.8210  17.8211  17.8211  18.2019  18.2019  18.2582  18.3994  18.3995
    18.3995  18.6485  18.6485  18.6486  18.7104  18.7104  19.0313  19.0313
    19.0313  19.2766  19.2766  19.2767  19.4339  19.4339  19.4339  19.4705
    19.4705  19.7306  19.7306  19.7306  19.7906  19.7907  19.7907  20.9902
    21.1668  21.2883  21.2884  21.2884  21.5863  21.5864  21.5864  21.7830
    21.7830  21.7830  21.9934  21.9934  22.0698  22.0698  22.0698  22.2270
    22.2270  22.2270  22.4165  22.4166  22.4166  22.4243

          k = 0.2826 0.2826 0.3957 ( 11903 PWs)   bands (ev):

   -50.9725 -50.9214 -50.8806 -50.8804 -50.8525 -50.8524 -50.8299 -50.8131
   -50.7663 -50.7641 -50.7547 -50.7545 -50.7415 -50.7413 -50.7131 -50.6757
   -22.6773 -22.6772 -22.6591 -22.6066 -22.6039 -22.6038 -22.5894 -22.5714
   -22.5535 -22.5535 -22.5288 -22.5255 -22.4508 -22.4147 -22.4147 -22.3944
   -22.3471 -22.2904 -22.2903 -22.2704 -22.2689 -22.2484 -22.2483 -22.1698
   -22.0994 -22.0596 -22.0221 -22.0195 -21.9830 -21.9829 -21.9560 -21.9560
   -21.9476 -21.9475 -21.9328 -21.8781 -21.8714 -21.8713 -21.8513 -21.8346
   -21.8084 -21.7818 -21.7803 -21.7802 -21.7683 -21.7655 -21.7655 -21.7454
    14.4079  15.3664  16.0990  16.0990  16.4308  16.4308  16.8666  17.0678
    17.1259  17.1882  17.1882  17.2754  17.5340  17.5395  17.5395  17.5399
    17.6799  17.7752  18.0518  18.0518  18.2224  18.3343  18.4813  18.4862
    18.5187  18.5188  18.5271  18.7493  18.7493  18.8577  18.8577  18.9094
    19.0889  19.0889  19.1547  19.1547  19.1694  19.2215  19.2897  19.3029
    19.3285  19.3870  19.3989  19.3989  19.4713  19.4713  19.9783  20.7031
    21.2883  21.4662  21.5222  21.5223  21.6556  21.6557  21.7122  21.7122
    21.8431  21.9155  21.9359  21.9586  21.9586  21.9799  22.1311  22.1392
    22.3285  22.3339  22.4224  22.4224  22.4245  22.4297

          k = 0.2826 0.2826-0.5087 ( 11876 PWs)   bands (ev):

   -50.9490 -50.9488 -50.8675 -50.8674 -50.8673 -50.8672 -50.8220 -50.8218
   -50.7649 -50.7647 -50.7472 -50.7471 -50.7471 -50.7469 -50.6925 -50.6923
   -22.6410 -22.6409 -22.6409 -22.6408 -22.5996 -22.5994 -22.5977 -22.5976
   -22.5542 -22.5542 -22.4847 -22.4847 -22.4847 -22.4846 -22.4034 -22.4032
   -22.3335 -22.3334 -22.2767 -22.2766 -22.2766 -22.2765 -22.1840 -22.1840
   -22.1138 -22.1137 -22.0249 -22.0248 -21.9623 -21.9623 -21.9622 -21.9622
   -21.9105 -21.9105 -21.9105 -21.9105 -21.8651 -21.8649 -21.8385 -21.8384
   -21.8257 -21.8255 -21.7707 -21.7707 -21.7706 -21.7706 -21.7520 -21.7520
    14.8597  14.8600  16.2937  16.2937  16.2939  16.2939  17.2847  17.2849
    17.3009  17.3012  17.3604  17.3606  17.3777  17.3778  17.3779  17.3779
    17.5420  17.5422  18.2705  18.2707  18.3953  18.3953  18.4379  18.4379
    18.4381  18.4381  18.6801  18.6801  18.6802  18.6802  18.8926  18.8926
    19.1092  19.1093  19.1856  19.1857  19.1857  19.1857  19.1972  19.1972
    19.1973  19.1973  19.2404  19.2405  19.2862  19.2863  20.2927  20.2927
    21.6078  21.6078  21.6606  21.6607  21.6778  21.6778  21.6778  21.6778
    21.7596  21.7596  21.7597  21.7597  22.1705  22.1706  22.2301  22.2303
    22.2933  22.2934  22.2998  22.2999  22.4294  22.4296

          k = 0.2826 0.3957 0.3957 ( 11891 PWs)   bands (ev):

   -50.9553 -50.9083 -50.9082 -50.8729 -50.8706 -50.8447 -50.8445 -50.8242
   -50.7616 -50.7560 -50.7559 -50.7447 -50.7406 -50.7199 -50.7198 -50.6868
   -22.6550 -22.6352 -22.6352 -22.6023 -22.5931 -22.5929 -22.5796 -22.5597
   -22.5597 -22.5393 -22.5357 -22.4860 -22.4582 -22.4460 -22.4106 -22.3526
   -22.3526 -22.3375 -22.3374 -22.3228 -22.3097 -22.3096 -22.2958 -22.1752
   -22.1125 -22.0056 -22.0055 -21.9929 -21.9879 -21.9878 -21.9547 -21.9426
   -21.9153 -21.9103 -21.9049 -21.8890 -21.8890 -21.8542 -21.8541 -21.8436
   -21.8042 -21.8042 -21.7996 -21.7879 -21.7640 -21.7639 -21.7609 -21.7519
    14.7552  15.6397  15.6397  16.2122  16.3584  16.7843  16.7843  17.2211
    17.3302  17.3519  17.4675  17.4676  17.5058  17.5058  17.6019  17.7723
    17.7895  17.8567  17.8568  17.9709  18.3079  18.4366  18.4369  18.4397
    18.4397  18.5173  18.5173  18.6161  18.6425  18.7156  18.8130  18.9561
    18.9561  18.9717  18.9962  18.9997  18.9997  19.0265  19.0265  19.1250
    19.1251  19.1775  19.2084  19.2111  19.2711  19.5855  19.5855  20.2455
    21.6234  21.6613  21.6613  21.6901  21.7380  21.8322  21.8960  21.9166
    21.9167  21.9471  21.9471  21.9625  22.0429  22.0430  22.1119  22.2605
    22.2991  22.2991  22.3000  22.3277  22.4069  22.4187

          k = 0.2826 0.3957-0.5087 ( 11900 PWs)   bands (ev):

   -50.9336 -50.9334 -50.8919 -50.8917 -50.8585 -50.8583 -50.8351 -50.8349
   -50.7583 -50.7581 -50.7496 -50.7495 -50.7290 -50.7289 -50.7016 -50.7014
   -22.6244 -22.6243 -22.6132 -22.6131 -22.5842 -22.5840 -22.5692 -22.5692
   -22.5689 -22.5687 -22.5085 -22.5084 -22.4121 -22.4120 -22.4066 -22.4064
   -22.3691 -22.3691 -22.3330 -22.3328 -22.3300 -22.3299 -22.2559 -22.2558
   -22.0580 -22.0579 -21.9900 -21.9900 -21.9670 -21.9670 -21.9555 -21.9554
   -21.9109 -21.9107 -21.8810 -21.8810 -21.8531 -21.8530 -21.8446 -21.8445
   -21.8387 -21.8385 -21.7968 -21.7968 -21.7608 -21.7608 -21.7550 -21.7550
    15.1777  15.1780  15.9379  15.9381  16.6094  16.6096  17.2022  17.2024
    17.3740  17.3742  17.4389  17.4390  17.6182  17.6184  17.6699  17.6700
    17.7238  17.7239  18.2406  18.2408  18.2637  18.2639  18.3645  18.3646
    18.3675  18.3676  18.5757  18.5758  18.6807  18.6808  18.7629  18.7630
    18.8942  18.8944  18.9033  18.9034  19.0158  19.0158  19.0494  19.0494
    19.1134  19.1135  19.1790  19.1791  19.2504  19.2505  19.8555  19.8555
    21.8019  21.8020  21.8228  21.8228  21.8488  21.8489  21.8764  21.8766
    21.9152  21.9152  21.9810  21.9810  22.1501  22.1503  22.1559  22.1560
    22.2332  22.2333  22.2377  22.2378  22.3302  22.3303

          k = 0.2826-0.5087-0.5087 ( 11884 PWs)   bands (ev):

   -50.9143 -50.9142 -50.9141 -50.9140 -50.8476 -50.8475 -50.8473 -50.8472
   -50.7534 -50.7532 -50.7531 -50.7530 -50.7139 -50.7138 -50.7137 -50.7136
   -22.5975 -22.5974 -22.5973 -22.5973 -22.5891 -22.5890 -22.5890 -22.5889
   -22.5378 -22.5378 -22.5377 -22.5377 -22.3789 -22.3788 -22.3787 -22.3786
   -22.3669 -22.3669 -22.3668 -22.3668 -22.3340 -22.3340 -22.3339 -22.3339
   -22.0047 -22.0047 -22.0047 -22.0046 -21.9739 -21.9739 -21.9738 -21.9738
   -21.8686 -21.8685 -21.8685 -21.8684 -21.8588 -21.8587 -21.8587 -21.8586
   -21.8270 -21.8269 -21.8269 -21.8268 -21.7563 -21.7563 -21.7561 -21.7561
    15.5515  15.5515  15.5517  15.5518  16.9464  16.9465  16.9466  16.9467
    17.4284  17.4285  17.4286  17.4286  17.8700  17.8701  17.8701  17.8702
    17.9391  17.9392  17.9393  17.9394  18.1801  18.1802  18.1803  18.1804
    18.4756  18.4756  18.4757  18.4757  18.6928  18.6928  18.6929  18.6929
    18.8825  18.8826  18.8826  18.8827  18.8937  18.8937  18.8938  18.8938
    19.1166  19.1167  19.1167  19.1167  19.4898  19.4898  19.4898  19.4898
    21.8886  21.8887  21.8888  21.8889  22.0168  22.0169  22.0170  22.0171
    22.0314  22.0314  22.0315  22.0315  22.0834  22.0834  22.0834  22.0835
    22.2246  22.2247  22.2248  22.2249  22.3706  22.3707

          k = 0.3957 0.3957 0.3957 ( 11890 PWs)   bands (ev):

   -50.9393 -50.8961 -50.8961 -50.8959 -50.8634 -50.8634 -50.8633 -50.8383
   -50.7540 -50.7437 -50.7437 -50.7435 -50.7257 -50.7257 -50.7254 -50.6965
   -22.6108 -22.6107 -22.6107 -22.5813 -22.5813 -22.5812 -22.5563 -22.5061
   -22.5061 -22.5061 -22.5000 -22.5000 -22.4865 -22.4865 -22.3900 -22.3899
   -22.3899 -22.3892 -22.3891 -22.3891 -22.3622 -22.3622 -22.3620 -22.2419
   -22.0578 -21.9582 -21.9582 -21.9582 -21.9393 -21.9393 -21.9392 -21.9198
   -21.9198 -21.8908 -21.8907 -21.8907 -21.8817 -21.8816 -21.8816 -21.8479
   -21.8023 -21.8022 -21.8022 -21.7881 -21.7881 -21.7815 -21.7815 -21.7813
    15.0955  15.9407  15.9407  15.9407  16.5695  16.5695  16.5695  17.3984
    17.4731  17.4731  17.6307  17.6307  17.6307  17.7931  17.7931  17.7931
    17.8614  17.8614  17.8614  17.9513  18.3655  18.3655  18.5064  18.5064
    18.5320  18.5320  18.5320  18.6125  18.6126  18.6126  18.6673  18.6673
    18.6673  18.8396  18.8397  18.8397  18.8640  18.8640  18.8641  18.9076
    18.9076  18.9078  19.0771  19.0771  19.2023  19.2023  19.2023  19.7878
    21.8076  21.8076  21.8076  21.9928  22.0204  22.0204  22.0205  22.0302
    22.0302  22.0528  22.0529  22.0529  22.0979  22.0980  22.0980  22.2894
    22.2894  22.3231  22.3231  22.3231  22.3465  22.3465

          k = 0.3957 0.3957-0.5087 ( 11862 PWs)   bands (ev):

   -50.9194 -50.9192 -50.8810 -50.8808 -50.8808 -50.8807 -50.8517 -50.8515
   -50.7481 -50.7480 -50.7336 -50.7335 -50.7335 -50.7333 -50.7095 -50.7094
   -22.5875 -22.5874 -22.5874 -22.5874 -22.5541 -22.5539 -22.5461 -22.5461
   -22.5305 -22.5304 -22.4498 -22.4496 -22.4474 -22.4473 -22.4473 -22.4473
   -22.4275 -22.4275 -22.3939 -22.3938 -22.3938 -22.3937 -22.3152 -22.3151
   -22.0060 -22.0060 -21.9316 -21.9315 -21.9165 -21.9165 -21.9165 -21.9164
   -21.9058 -21.9058 -21.9057 -21.9057 -21.8606 -21.8605 -21.8557 -21.8555
   -21.8346 -21.8344 -21.7956 -21.7955 -21.7955 -21.7954 -21.7814 -21.7814
    15.5043  15.5045  16.2718  16.2718  16.2720  16.2720  16.9922  16.9925
    17.6233  17.6235  17.7237  17.7239  17.7535  17.7536  17.7537  17.7537
    17.9401  17.9402  18.2138  18.2138  18.2140  18.2140  18.4080  18.4081
    18.4439  18.4440  18.5586  18.5587  18.5668  18.5670  18.6691  18.6691
    18.6692  18.6692  18.8274  18.8274  18.8275  18.8275  18.8863  18.8863
    18.8863  18.8863  18.9466  18.9467  18.9616  18.9617  19.4117  19.4117
    21.9258  21.9259  21.9587  21.9587  21.9589  21.9589  22.1062  22.1063
    22.1063  22.1063  22.1662  22.1664  22.1873  22.1874  22.2613  22.2614
    22.3107  22.3108  22.3130  22.3130  22.3132  22.3132

          k = 0.3957-0.5087-0.5087 ( 11872 PWs)   bands (ev):

   -50.9016 -50.9015 -50.9014 -50.9013 -50.8673 -50.8672 -50.8671 -50.8670
   -50.7400 -50.7399 -50.7397 -50.7396 -50.7203 -50.7201 -50.7200 -50.7199
   -22.5557 -22.5557 -22.5556 -22.5556 -22.5519 -22.5518 -22.5518 -22.5517
   -22.4886 -22.4885 -22.4885 -22.4884 -22.4431 -22.4430 -22.4429 -22.4429
   -22.4385 -22.4384 -22.4383 -22.4383 -22.3811 -22.3811 -22.3810 -22.3810
   -21.9583 -21.9583 -21.9583 -21.9582 -21.9054 -21.9053 -21.9052 -21.9052
   -21.8845 -21.8844 -21.8844 -21.8844 -21.8570 -21.8570 -21.8569 -21.8568
   -21.8349 -21.8348 -21.8348 -21.8347 -21.7951 -21.7951 -21.7949 -21.7949
    15.8857  15.8858  15.8860  15.8861  16.6505  16.6506  16.6508  16.6508
    17.7291  17.7291  17.7292  17.7293  17.9948  17.9949  17.9950  17.9951
    18.1216  18.1216  18.1217  18.1218  18.1276  18.1276  18.1277  18.1278
    18.5701  18.5701  18.5702  18.5702  18.6060  18.6060  18.6061  18.6062
    18.6081  18.6082  18.6083  18.6083  18.7841  18.7841  18.7842  18.7842
    18.8636  18.8636  18.8636  18.8637  19.0485  19.0485  19.0486  19.0486
    22.0048  22.0049  22.0050  22.0050  22.0836  22.0837  22.0838  22.0839
    22.1916  22.1917  22.1918  22.1920  22.2847  22.2847  22.2847  22.2848
    22.2920  22.2921  22.2922  22.2923  22.3351  22.3351

          k =-0.5087-0.5087-0.5087 ( 11752 PWs)   bands (ev):

   -50.8857 -50.8856 -50.8856 -50.8855 -50.8854 -50.8854 -50.8853 -50.8852
   -50.7290 -50.7289 -50.7289 -50.7288 -50.7288 -50.7287 -50.7286 -50.7284
   -22.5022 -22.5022 -22.5022 -22.5021 -22.5021 -22.5020 -22.5020 -22.5020
   -22.5020 -22.5020 -22.5020 -22.5019 -22.5019 -22.5018 -22.5018 -22.5018
   -22.4341 -22.4341 -22.4340 -22.4340 -22.4340 -22.4340 -22.4340 -22.4339
   -21.9179 -21.9178 -21.9178 -21.9178 -21.9178 -21.9177 -21.9177 -21.9177
   -21.8450 -21.8450 -21.8450 -21.8450 -21.8450 -21.8449 -21.8449 -21.8449
   -21.8449 -21.8448 -21.8448 -21.8448 -21.8448 -21.8447 -21.8447 -21.8446
    16.2730  16.2731  16.2731  16.2732  16.2733  16.2734  16.2734  16.2735
    18.0580  18.0580  18.0580  18.0580  18.0580  18.0580  18.0581  18.0581
    18.0582  18.0582  18.0582  18.0582  18.0582  18.0583  18.0583  18.0583
    18.6671  18.6671  18.6671  18.6671  18.6671  18.6671  18.6671  18.6672
    18.6759  18.6759  18.6759  18.6759  18.6759  18.6760  18.6760  18.6760
    18.6760  18.6760  18.6760  18.6760  18.6761  18.6761  18.6761  18.6761
    22.1440  22.1440  22.1440  22.1440  22.1440  22.1440  22.1441  22.1441
    22.1442  22.1442  22.1442  22.1442  22.1443  22.1443  22.1444  22.1444
    22.5596  22.5596  22.5596  22.5597  22.5597  22.5597

     the Fermi energy is    20.8606 ev

!    total energy              =   -3971.50114243 Ry
     Harris-Foulkes estimate   =   -3971.50114184 Ry
     estimated scf accuracy    <       0.00000063 Ry

     total all-electron energy =    -33628.024022 Ry

     The total energy is the sum of the following terms:

     one-electron contribution =    -825.50823617 Ry
     hartree contribution      =     560.95992427 Ry
     xc contribution           =    -357.45690357 Ry
     ewald contribution        =   -2161.48780594 Ry
     one-center paw contrib.   =   -1188.01688210 Ry
     smearing contrib. (-TS)   =       0.00876108 Ry

     total magnetization       =    -0.00 Bohr mag/cell
     absolute magnetization    =     0.17 Bohr mag/cell

     convergence has been achieved in  37 iterations

     Forces acting on atoms (cartesian axes, Ry/au):

     atom    1 type  1   force =     0.00000000    0.00000000    0.00000000
     atom    2 type  2   force =    -0.00003867   -0.00003867   -0.00003867
     atom    3 type  1   force =     0.00000000    0.00000000    0.00000000
     atom    4 type  2   force =    -0.00003867   -0.00003867    0.00003867
     atom    5 type  1   force =     0.00000000    0.00000000    0.00000000
     atom    6 type  2   force =    -0.00003867    0.00003867   -0.00003867
     atom    7 type  1   force =     0.00000000    0.00000000    0.00000000
     atom    8 type  2   force =    -0.00003867    0.00003867    0.00003867
     atom    9 type  1   force =     0.00000000    0.00000000    0.00000000
     atom   10 type  2   force =     0.00003867   -0.00003867   -0.00003867
     atom   11 type  1   force =     0.00000000    0.00000000    0.00000000
     atom   12 type  2   force =     0.00003867   -0.00003867    0.00003867
     atom   13 type  1   force =     0.00000000    0.00000000    0.00000000
     atom   14 type  2   force =     0.00003867    0.00003867   -0.00003867
     atom   15 type  1   force =     0.00000000    0.00000000    0.00000000
     atom   16 type  2   force =     0.00003867    0.00003867    0.00003867

     Total force =     0.000189     Total SCF correction =     0.001551
     SCF correction compared to forces is large: reduce conv_thr to get better values


     Computing stress (Cartesian axis) and pressure

          total   stress  (Ry/bohr**3)                   (kbar)     P=  159.61
   0.00108503   0.00000000   0.00000000        159.61      0.00      0.00
   0.00000000   0.00108503   0.00000000          0.00    159.61      0.00
   0.00000000   0.00000000   0.00108503          0.00      0.00    159.61


     Writing output data file gGLxlUGOzxubvgCG.save/
 
     init_run     :      7.17s CPU      7.48s WALL (       1 calls)
     electrons    :   1151.54s CPU   1174.51s WALL (       1 calls)
     forces       :      2.21s CPU      2.34s WALL (       1 calls)
     stress       :      9.53s CPU      9.60s WALL (       1 calls)

     Called by init_run:
     wfcinit      :      6.57s CPU      6.80s WALL (       1 calls)
     potinit      :      0.33s CPU      0.35s WALL (       1 calls)
     hinit0       :      0.10s CPU      0.11s WALL (       1 calls)

     Called by electrons:
     c_bands      :   1058.00s CPU   1076.76s WALL (      38 calls)
     sum_band     :     80.67s CPU     83.89s WALL (      38 calls)
     v_of_rho     :      0.92s CPU      1.01s WALL (      38 calls)
     newd         :      2.01s CPU      2.44s WALL (      38 calls)
     PAW_pot      :      9.79s CPU     10.21s WALL (      38 calls)
     mix_rho      :      0.31s CPU      0.33s WALL (      38 calls)

     Called by c_bands:
     init_us_2    :      5.01s CPU      5.10s WALL (    5530 calls)
     cegterg      :   1026.85s CPU   1045.32s WALL (    2660 calls)

     Called by sum_band:
     sum_band:bec :      0.78s CPU      0.80s WALL (    2660 calls)
     addusdens    :      3.79s CPU      4.30s WALL (      38 calls)

     Called by *egterg:
     h_psi        :    377.10s CPU    388.64s WALL (   13064 calls)
     s_psi        :     26.38s CPU     26.50s WALL (   13064 calls)
     g_psi        :      1.44s CPU      1.45s WALL (   10334 calls)
     cdiaghg      :    507.11s CPU    508.44s WALL (   12924 calls)

     Called by h_psi:
     h_psi:pot    :    374.78s CPU    386.29s WALL (   13064 calls)
     h_psi:calbec :     32.14s CPU     35.33s WALL (   13064 calls)
     vloc_psi     :    314.84s CPU    323.03s WALL (   13064 calls)
     add_vuspsi   :     27.72s CPU     27.85s WALL (   13064 calls)

     General routines
     calbec       :     46.79s CPU     51.21s WALL (   16074 calls)
     fft          :      0.73s CPU      0.82s WALL (     992 calls)
     ffts         :      0.07s CPU      0.08s WALL (     152 calls)
     fftw         :    350.65s CPU    359.66s WALL ( 2289886 calls)
     interpolate  :      0.09s CPU      0.11s WALL (      76 calls)
 
     Parallel routines
     fft_scatt_xy :     27.78s CPU     28.51s WALL ( 2291030 calls)
     fft_scatt_yz :    204.97s CPU    210.44s WALL ( 2291030 calls)
 
     PWSCF        : 19m34.07s CPU    20m 3.46s WALL

 
   This run was terminated on:  20:29: 9  15Jun2020            

=------------------------------------------------------------------------------=
   JOB DONE.
=------------------------------------------------------------------------------=
