--------------------------------------------------------------------------
WARNING: No preset parameters were found for the device that Open MPI
detected:

  Local host:            bear-pg0206u20b
  Device name:           mlx5_0
  Device vendor ID:      0x02c9
  Device vendor part ID: 4123

Default device parameters will be used, which may result in lower
performance.  You can edit any of the files specified by the
btl_openib_device_param_files MCA parameter to set values for your
device.

NOTE: You can turn off this warning by setting the MCA parameter
      btl_openib_warn_no_device_params_found to 0.
--------------------------------------------------------------------------
--------------------------------------------------------------------------
WARNING: There was an error initializing an OpenFabrics device.

  Local host:   bear-pg0206u20b
  Local device: mlx5_0
--------------------------------------------------------------------------

     Program PWSCF v.6.3 starts on 16Jun2020 at  4:33:24 

     This program is part of the open-source Quantum ESPRESSO suite
     for quantum simulation of materials; please cite
         "P. Giannozzi et al., J. Phys.:Condens. Matter 21 395502 (2009);
         "P. Giannozzi et al., J. Phys.:Condens. Matter 29 465901 (2017);
          URL http://www.quantum-espresso.org", 
     in publications or presentations arising from this work. More details at
     http://www.quantum-espresso.org/quote

     Parallel version (MPI & OpenMP), running on      20 processor cores
     Number of MPI processes:                20
     Threads/MPI process:                     1

     MPI processes distributed on     1 nodes
     R & G space division:  proc/nbgrp/npool/nimage =      20
     Reading input from wd/eos/eos_014.in
Warning: card &IONS ignored
Warning: card ION_DYNAMICS = 'BFGS', ignored
Warning: card / ignored
Warning: card &CELL ignored
Warning: card CELL_DYNAMICS = 'BFGS', ignored
Warning: card CELL_FACTOR = 2.0, ignored
Warning: card PRESS = 0.0, ignored
Warning: card / ignored

     Current dimensions of program PWSCF are:
     Max number of different atomic species (ntypx) = 10
     Max number of k-points (npk) =  40000
     Max angular momentum in pseudopotentials (lmaxx) =  3
     Message from routine read_upf::
     Pseudo file /rds/homes/b/bxp912/pp/Cr.pbe-spn-kjpaw_psl.1.0.0.UPF has been successfully fixed on the fly.
To avoid this message in the future you can permanently fix 
 your pseudo files following instructions given in: 
https://gitlab.com/QEF/q-e/blob/master/upftools/how_to_fix_upf.md
               file Cr.pbe-spn-kjpaw_psl.1.0.0.UPF: wavefunction(s)  3S 3P 3D renormalized
     Message from routine read_upf::
     Pseudo file /rds/homes/b/bxp912/pp/Cr.pbe-spn-kjpaw_psl.1.0.0.UPF has been successfully fixed on the fly.
To avoid this message in the future you can permanently fix 
 your pseudo files following instructions given in: 
https://gitlab.com/QEF/q-e/blob/master/upftools/how_to_fix_upf.md
               file Cr.pbe-spn-kjpaw_psl.1.0.0.UPF: wavefunction(s)  3S 3P 3D renormalized

     Subspace diagonalization in iterative solution of the eigenvalue problem:
     a serial algorithm will be used

     Found symmetry operation: I + (  0.0000  0.0000  0.5000)
     This is a supercell, fractional translations are disabled
 
     Parallelization info
     --------------------
     sticks:   dense  smooth     PW     G-vecs:    dense   smooth      PW
     Min         203     135     37                 9807     5287     773
     Max         206     136     38                 9809     5290     778
     Sum        4085    2709    749               196157   105759   15515
 


     bravais-lattice index     =            0
     lattice parameter (alat)  =      10.7442  a.u.
     unit-cell volume          =    1305.1613 (a.u.)^3
     number of atoms/cell      =           16
     number of atomic types    =            2
     number of electrons       =       224.00
     number of Kohn-Sham states=          134
     kinetic-energy cutoff     =      71.0000  Ry
     charge density cutoff     =     430.0000  Ry
     convergence threshold     =      1.0E-06
     mixing beta               =       0.1000
     number of iterations used =           10  plain     mixing
     Exchange-correlation      = SLA PW PBX PBC ( 1  4  3  4 0 0)

     celldm(1)=  10.744168  celldm(2)=   0.000000  celldm(3)=   0.000000
     celldm(4)=   0.000000  celldm(5)=   0.000000  celldm(6)=   0.000000

     crystal axes: (cart. coord. in units of alat)
               a(1) = (   1.017143   0.000000   0.000000 )  
               a(2) = (   0.000000   1.017143   0.000000 )  
               a(3) = (   0.000000   0.000000   1.017143 )  

     reciprocal axes: (cart. coord. in units 2 pi/alat)
               b(1) = (  0.983146  0.000000  0.000000 )  
               b(2) = (  0.000000  0.983146  0.000000 )  
               b(3) = (  0.000000  0.000000  0.983146 )  


     PseudoPot. # 1 for Cr read from file:
     /rds/homes/b/bxp912/pp/Cr.pbe-spn-kjpaw_psl.1.0.0.UPF
     MD5 check sum: cb1c17117da000fe5e03c4f1a6841d9c
     Pseudo is Projector augmented-wave + core cor, Zval = 14.0
     Generated using "atomic" code by A. Dal Corso v.5.1
     Shape of augmentation charge: PSQ
     Using radial grid of 1183 points,  6 beta functions with: 
                l(1) =   0
                l(2) =   0
                l(3) =   1
                l(4) =   1
                l(5) =   2
                l(6) =   2
     Q(r) pseudized with 0 coefficients 


     PseudoPot. # 2 for Cr read from file:
     /rds/homes/b/bxp912/pp/Cr.pbe-spn-kjpaw_psl.1.0.0.UPF
     MD5 check sum: cb1c17117da000fe5e03c4f1a6841d9c
     Pseudo is Projector augmented-wave + core cor, Zval = 14.0
     Generated using "atomic" code by A. Dal Corso v.5.1
     Shape of augmentation charge: PSQ
     Using radial grid of 1183 points,  6 beta functions with: 
                l(1) =   0
                l(2) =   0
                l(3) =   1
                l(4) =   1
                l(5) =   2
                l(6) =   2
     Q(r) pseudized with 0 coefficients 


     atomic species   valence    mass     pseudopotential
        Cr1           14.00    55.84500     Cr( 1.00)
        Cr2           14.00    55.84500     Cr( 1.00)

     Starting magnetic structure 
     atomic species   magnetization
        Cr1          0.300
        Cr2         -0.300

     48 Sym. Ops., with inversion, found



   Cartesian axes

     site n.     atom                  positions (alat units)
         1           Cr1 tau(   1) = (   0.0000000   0.0000000   0.0000000  )
         2           Cr2 tau(   2) = (   0.2542858   0.2542858   0.2542855  )
         3           Cr1 tau(   3) = (   0.0000000   0.0000000   0.5085709  )
         4           Cr2 tau(   4) = (   0.2542858   0.2542858   0.7628574  )
         5           Cr1 tau(   5) = (   0.0000000   0.5085716   0.0000000  )
         6           Cr2 tau(   6) = (   0.2542858   0.7628574   0.2542855  )
         7           Cr1 tau(   7) = (   0.0000000   0.5085716   0.5085709  )
         8           Cr2 tau(   8) = (   0.2542858   0.7628574   0.7628574  )
         9           Cr1 tau(   9) = (   0.5085716   0.0000000   0.0000000  )
        10           Cr2 tau(  10) = (   0.7628574   0.2542858   0.2542855  )
        11           Cr1 tau(  11) = (   0.5085716   0.0000000   0.5085709  )
        12           Cr2 tau(  12) = (   0.7628574   0.2542858   0.7628574  )
        13           Cr1 tau(  13) = (   0.5085716   0.5085716   0.0000000  )
        14           Cr2 tau(  14) = (   0.7628574   0.7628574   0.2542855  )
        15           Cr1 tau(  15) = (   0.5085716   0.5085716   0.5085709  )
        16           Cr2 tau(  16) = (   0.7628574   0.7628574   0.7628574  )

     number of k points=    35  Marzari-Vanderbilt smearing, width (Ry)=  0.0400
                       cart. coord. in units 2pi/alat
        k(    1) = (   0.0546192   0.0546192   0.0546192), wk =   0.0109739
        k(    2) = (   0.0546192   0.0546192   0.1638577), wk =   0.0329218
        k(    3) = (   0.0546192   0.0546192   0.2730961), wk =   0.0329218
        k(    4) = (   0.0546192   0.0546192   0.3823346), wk =   0.0329218
        k(    5) = (   0.0546192   0.0546192  -0.4915730), wk =   0.0164609
        k(    6) = (   0.0546192   0.1638577   0.1638577), wk =   0.0329218
        k(    7) = (   0.0546192   0.1638577   0.2730961), wk =   0.0658436
        k(    8) = (   0.0546192   0.1638577   0.3823346), wk =   0.0658436
        k(    9) = (   0.0546192   0.1638577  -0.4915730), wk =   0.0329218
        k(   10) = (   0.0546192   0.2730961   0.2730961), wk =   0.0329218
        k(   11) = (   0.0546192   0.2730961   0.3823346), wk =   0.0658436
        k(   12) = (   0.0546192   0.2730961  -0.4915730), wk =   0.0329218
        k(   13) = (   0.0546192   0.3823346   0.3823346), wk =   0.0329218
        k(   14) = (   0.0546192   0.3823346  -0.4915730), wk =   0.0329218
        k(   15) = (   0.0546192  -0.4915730  -0.4915730), wk =   0.0082305
        k(   16) = (   0.1638577   0.1638577   0.1638577), wk =   0.0109739
        k(   17) = (   0.1638577   0.1638577   0.2730961), wk =   0.0329218
        k(   18) = (   0.1638577   0.1638577   0.3823346), wk =   0.0329218
        k(   19) = (   0.1638577   0.1638577  -0.4915730), wk =   0.0164609
        k(   20) = (   0.1638577   0.2730961   0.2730961), wk =   0.0329218
        k(   21) = (   0.1638577   0.2730961   0.3823346), wk =   0.0658436
        k(   22) = (   0.1638577   0.2730961  -0.4915730), wk =   0.0329218
        k(   23) = (   0.1638577   0.3823346   0.3823346), wk =   0.0329218
        k(   24) = (   0.1638577   0.3823346  -0.4915730), wk =   0.0329218
        k(   25) = (   0.1638577  -0.4915730  -0.4915730), wk =   0.0082305
        k(   26) = (   0.2730961   0.2730961   0.2730961), wk =   0.0109739
        k(   27) = (   0.2730961   0.2730961   0.3823346), wk =   0.0329218
        k(   28) = (   0.2730961   0.2730961  -0.4915730), wk =   0.0164609
        k(   29) = (   0.2730961   0.3823346   0.3823346), wk =   0.0329218
        k(   30) = (   0.2730961   0.3823346  -0.4915730), wk =   0.0329218
        k(   31) = (   0.2730961  -0.4915730  -0.4915730), wk =   0.0082305
        k(   32) = (   0.3823346   0.3823346   0.3823346), wk =   0.0109739
        k(   33) = (   0.3823346   0.3823346  -0.4915730), wk =   0.0164609
        k(   34) = (   0.3823346  -0.4915730  -0.4915730), wk =   0.0082305
        k(   35) = (  -0.4915730  -0.4915730  -0.4915730), wk =   0.0013717

     Dense  grid:   196157 G-vectors     FFT dimensions: (  75,  75,  75)

     Smooth grid:   105759 G-vectors     FFT dimensions: (  60,  60,  60)

     Estimated max dynamical RAM per process >     150.19 MB

     Estimated total dynamical RAM >       2.93 GB
     Generating pointlists ...
     new r_m :   0.1817 (alat units)  1.9520 (a.u.) for type    1
     new r_m :   0.1817 (alat units)  1.9520 (a.u.) for type    2

     Check: negative/imaginary core charge=   -0.000009    0.000000

     Initial potential from superposition of free atoms

     starting charge  223.98764, renormalised to  224.00000
     Starting wfcs are  160 randomized atomic wfcs
     Checking if some PAW data can be deallocated... 

     total cpu time spent up to now is        9.5 secs

     Self-consistent Calculation

     iteration #  1     ecut=    71.00 Ry     beta= 0.10
     Davidson diagonalization with overlap
     ethr =  1.00E-02,  avg # of iterations =  3.3

     Threshold (ethr) on eigenvalues was too large:
     Diagonalizing with lowered threshold

     Davidson diagonalization with overlap
     ethr =  6.99E-04,  avg # of iterations =  3.6

     total cpu time spent up to now is       57.9 secs

     total energy              =   -3970.67971963 Ry
     Harris-Foulkes estimate   =   -3970.58672862 Ry
     estimated scf accuracy    <       1.64615128 Ry

     total magnetization       =    -0.00 Bohr mag/cell
     absolute magnetization    =    40.54 Bohr mag/cell

     iteration #  2     ecut=    71.00 Ry     beta= 0.10
     Davidson diagonalization with overlap
     ethr =  7.35E-04,  avg # of iterations =  1.1

     total cpu time spent up to now is       74.0 secs

     total energy              =   -3971.10270102 Ry
     Harris-Foulkes estimate   =   -3970.68942518 Ry
     estimated scf accuracy    <       1.24344520 Ry

     total magnetization       =     0.00 Bohr mag/cell
     absolute magnetization    =    40.63 Bohr mag/cell

     iteration #  3     ecut=    71.00 Ry     beta= 0.10
     Davidson diagonalization with overlap
     ethr =  5.55E-04,  avg # of iterations =  2.9

     total cpu time spent up to now is       99.0 secs

     total energy              =   -3971.31194471 Ry
     Harris-Foulkes estimate   =   -3971.27867836 Ry
     estimated scf accuracy    <       0.28799526 Ry

     total magnetization       =    -0.00 Bohr mag/cell
     absolute magnetization    =    39.73 Bohr mag/cell

     iteration #  4     ecut=    71.00 Ry     beta= 0.10
     Davidson diagonalization with overlap
     ethr =  1.29E-04,  avg # of iterations =  2.3

     total cpu time spent up to now is      118.2 secs

     total energy              =   -3971.32775841 Ry
     Harris-Foulkes estimate   =   -3971.32093335 Ry
     estimated scf accuracy    <       0.41282809 Ry

     total magnetization       =    -0.00 Bohr mag/cell
     absolute magnetization    =    40.09 Bohr mag/cell

     iteration #  5     ecut=    71.00 Ry     beta= 0.10
     Davidson diagonalization with overlap
     ethr =  1.29E-04,  avg # of iterations =  5.1

     total cpu time spent up to now is      150.7 secs

     total energy              =   -3971.44193677 Ry
     Harris-Foulkes estimate   =   -3971.43720198 Ry
     estimated scf accuracy    <       0.03360984 Ry

     total magnetization       =     0.00 Bohr mag/cell
     absolute magnetization    =    33.78 Bohr mag/cell

     iteration #  6     ecut=    71.00 Ry     beta= 0.10
     Davidson diagonalization with overlap
     ethr =  1.50E-05,  avg # of iterations =  3.8

     total cpu time spent up to now is      174.9 secs

     total energy              =   -3971.44064217 Ry
     Harris-Foulkes estimate   =   -3971.44351792 Ry
     estimated scf accuracy    <       0.03003962 Ry

     total magnetization       =     0.00 Bohr mag/cell
     absolute magnetization    =    33.54 Bohr mag/cell

     iteration #  7     ecut=    71.00 Ry     beta= 0.10
     Davidson diagonalization with overlap
     ethr =  1.34E-05,  avg # of iterations =  1.0

     total cpu time spent up to now is      190.6 secs

     total energy              =   -3971.46174076 Ry
     Harris-Foulkes estimate   =   -3971.44089116 Ry
     estimated scf accuracy    <       0.03349297 Ry

     total magnetization       =     0.00 Bohr mag/cell
     absolute magnetization    =    33.68 Bohr mag/cell

     iteration #  8     ecut=    71.00 Ry     beta= 0.10
     Davidson diagonalization with overlap
     ethr =  1.34E-05,  avg # of iterations =  6.4

     total cpu time spent up to now is      232.7 secs

     total energy              =   -3971.50060406 Ry
     Harris-Foulkes estimate   =   -3971.49594061 Ry
     estimated scf accuracy    <       0.02441782 Ry

     total magnetization       =    -0.00 Bohr mag/cell
     absolute magnetization    =    29.14 Bohr mag/cell

     iteration #  9     ecut=    71.00 Ry     beta= 0.10
     Davidson diagonalization with overlap
     ethr =  1.09E-05,  avg # of iterations =  3.1

     total cpu time spent up to now is      255.5 secs

     total energy              =   -3971.50912739 Ry
     Harris-Foulkes estimate   =   -3971.50331118 Ry
     estimated scf accuracy    <       0.00670298 Ry

     total magnetization       =     0.00 Bohr mag/cell
     absolute magnetization    =    28.40 Bohr mag/cell

     iteration # 10     ecut=    71.00 Ry     beta= 0.10
     Davidson diagonalization with overlap
     ethr =  2.99E-06,  avg # of iterations =  5.4

     total cpu time spent up to now is      292.2 secs

     total energy              =   -3971.51562260 Ry
     Harris-Foulkes estimate   =   -3971.51420159 Ry
     estimated scf accuracy    <       0.00683891 Ry

     total magnetization       =     0.00 Bohr mag/cell
     absolute magnetization    =    26.59 Bohr mag/cell

     iteration # 11     ecut=    71.00 Ry     beta= 0.10
     Davidson diagonalization with overlap
     ethr =  2.99E-06,  avg # of iterations =  1.0

     total cpu time spent up to now is      307.9 secs

     total energy              =   -3971.51532670 Ry
     Harris-Foulkes estimate   =   -3971.51570877 Ry
     estimated scf accuracy    <       0.00588234 Ry

     total magnetization       =     0.00 Bohr mag/cell
     absolute magnetization    =    26.40 Bohr mag/cell

     iteration # 12     ecut=    71.00 Ry     beta= 0.10
     Davidson diagonalization with overlap
     ethr =  2.63E-06,  avg # of iterations =  5.2

     total cpu time spent up to now is      347.6 secs

     total energy              =   -3971.52904276 Ry
     Harris-Foulkes estimate   =   -3971.52857747 Ry
     estimated scf accuracy    <       0.00292422 Ry

     total magnetization       =    -0.00 Bohr mag/cell
     absolute magnetization    =    23.32 Bohr mag/cell

     iteration # 13     ecut=    71.00 Ry     beta= 0.10
     Davidson diagonalization with overlap
     ethr =  1.31E-06,  avg # of iterations =  1.1

     total cpu time spent up to now is      363.5 secs

     total energy              =   -3971.52860077 Ry
     Harris-Foulkes estimate   =   -3971.52911024 Ry
     estimated scf accuracy    <       0.00206001 Ry

     total magnetization       =     0.00 Bohr mag/cell
     absolute magnetization    =    23.19 Bohr mag/cell

     iteration # 14     ecut=    71.00 Ry     beta= 0.10
     Davidson diagonalization with overlap
     ethr =  9.20E-07,  avg # of iterations =  1.0

     total cpu time spent up to now is      379.3 secs

     total energy              =   -3971.52839475 Ry
     Harris-Foulkes estimate   =   -3971.52866983 Ry
     estimated scf accuracy    <       0.00155464 Ry

     total magnetization       =     0.00 Bohr mag/cell
     absolute magnetization    =    23.32 Bohr mag/cell

     iteration # 15     ecut=    71.00 Ry     beta= 0.10
     Davidson diagonalization with overlap
     ethr =  6.94E-07,  avg # of iterations =  5.4

     total cpu time spent up to now is      418.0 secs

     total energy              =   -3971.53264676 Ry
     Harris-Foulkes estimate   =   -3971.53223999 Ry
     estimated scf accuracy    <       0.00050683 Ry

     total magnetization       =     0.00 Bohr mag/cell
     absolute magnetization    =    21.68 Bohr mag/cell

     iteration # 16     ecut=    71.00 Ry     beta= 0.10
     Davidson diagonalization with overlap
     ethr =  2.26E-07,  avg # of iterations =  4.3

     total cpu time spent up to now is      448.2 secs

     total energy              =   -3971.53309416 Ry
     Harris-Foulkes estimate   =   -3971.53298525 Ry
     estimated scf accuracy    <       0.00039956 Ry

     total magnetization       =     0.00 Bohr mag/cell
     absolute magnetization    =    21.18 Bohr mag/cell

     iteration # 17     ecut=    71.00 Ry     beta= 0.10
     Davidson diagonalization with overlap
     ethr =  1.78E-07,  avg # of iterations =  1.2

     total cpu time spent up to now is      464.3 secs

     total energy              =   -3971.53240644 Ry
     Harris-Foulkes estimate   =   -3971.53310288 Ry
     estimated scf accuracy    <       0.00035282 Ry

     total magnetization       =     0.00 Bohr mag/cell
     absolute magnetization    =    21.12 Bohr mag/cell

     iteration # 18     ecut=    71.00 Ry     beta= 0.10
     Davidson diagonalization with overlap
     ethr =  1.58E-07,  avg # of iterations =  4.1

     total cpu time spent up to now is      492.7 secs

     total energy              =   -3971.52983656 Ry
     Harris-Foulkes estimate   =   -3971.53258080 Ry
     estimated scf accuracy    <       0.00049284 Ry

     total magnetization       =     0.00 Bohr mag/cell
     absolute magnetization    =    21.48 Bohr mag/cell

     iteration # 19     ecut=    71.00 Ry     beta= 0.10
     Davidson diagonalization with overlap
     ethr =  1.58E-07,  avg # of iterations =  6.0

     total cpu time spent up to now is      541.1 secs

     total energy              =   -3971.53365951 Ry
     Harris-Foulkes estimate   =   -3971.53444895 Ry
     estimated scf accuracy    <       0.00011175 Ry

     total magnetization       =     0.00 Bohr mag/cell
     absolute magnetization    =    19.59 Bohr mag/cell

     iteration # 20     ecut=    71.00 Ry     beta= 0.10
     Davidson diagonalization with overlap
     ethr =  4.99E-08,  avg # of iterations =  5.9

     total cpu time spent up to now is      585.8 secs

     total energy              =   -3971.53471074 Ry
     Harris-Foulkes estimate   =   -3971.53472198 Ry
     estimated scf accuracy    <       0.00005603 Ry

     total magnetization       =     0.00 Bohr mag/cell
     absolute magnetization    =    18.67 Bohr mag/cell

     iteration # 21     ecut=    71.00 Ry     beta= 0.10
     Davidson diagonalization with overlap
     ethr =  2.50E-08,  avg # of iterations =  4.0

     total cpu time spent up to now is      613.3 secs

     total energy              =   -3971.53314950 Ry
     Harris-Foulkes estimate   =   -3971.53473699 Ry
     estimated scf accuracy    <       0.00005442 Ry

     total magnetization       =     0.00 Bohr mag/cell
     absolute magnetization    =    18.52 Bohr mag/cell

     iteration # 22     ecut=    71.00 Ry     beta= 0.10
     Davidson diagonalization with overlap
     ethr =  2.43E-08,  avg # of iterations =  5.9

     total cpu time spent up to now is      661.4 secs

     total energy              =   -3971.53452083 Ry
     Harris-Foulkes estimate   =   -3971.53447947 Ry
     estimated scf accuracy    <       0.00007328 Ry

     total magnetization       =     0.00 Bohr mag/cell
     absolute magnetization    =    19.55 Bohr mag/cell

     iteration # 23     ecut=    71.00 Ry     beta= 0.10
     Davidson diagonalization with overlap
     ethr =  2.43E-08,  avg # of iterations =  4.1

     total cpu time spent up to now is      689.7 secs

     total energy              =   -3971.53451094 Ry
     Harris-Foulkes estimate   =   -3971.53455107 Ry
     estimated scf accuracy    <       0.00005569 Ry

     total magnetization       =     0.00 Bohr mag/cell
     absolute magnetization    =    19.40 Bohr mag/cell

     iteration # 24     ecut=    71.00 Ry     beta= 0.10
     Davidson diagonalization with overlap
     ethr =  2.43E-08,  avg # of iterations =  5.0

     total cpu time spent up to now is      724.7 secs

     total energy              =   -3971.53453410 Ry
     Harris-Foulkes estimate   =   -3971.53467180 Ry
     estimated scf accuracy    <       0.00002676 Ry

     total magnetization       =     0.00 Bohr mag/cell
     absolute magnetization    =    19.04 Bohr mag/cell

     iteration # 25     ecut=    71.00 Ry     beta= 0.10
     Davidson diagonalization with overlap
     ethr =  1.19E-08,  avg # of iterations =  5.4

     total cpu time spent up to now is      766.1 secs

     total energy              =   -3971.53394777 Ry
     Harris-Foulkes estimate   =   -3971.53474555 Ry
     estimated scf accuracy    <       0.00000330 Ry

     total magnetization       =     0.00 Bohr mag/cell
     absolute magnetization    =    18.63 Bohr mag/cell

     iteration # 26     ecut=    71.00 Ry     beta= 0.10
     Davidson diagonalization with overlap
     ethr =  1.47E-09,  avg # of iterations =  6.3

     total cpu time spent up to now is      815.6 secs

     total energy              =   -3971.53471547 Ry
     Harris-Foulkes estimate   =   -3971.53470933 Ry
     estimated scf accuracy    <       0.00000776 Ry

     total magnetization       =    -0.00 Bohr mag/cell
     absolute magnetization    =    17.85 Bohr mag/cell

     iteration # 27     ecut=    71.00 Ry     beta= 0.10
     Davidson diagonalization with overlap
     ethr =  1.47E-09,  avg # of iterations =  5.4

     total cpu time spent up to now is      853.6 secs

     total energy              =   -3971.53469535 Ry
     Harris-Foulkes estimate   =   -3971.53472835 Ry
     estimated scf accuracy    <       0.00000545 Ry

     total magnetization       =    -0.00 Bohr mag/cell
     absolute magnetization    =    17.95 Bohr mag/cell

     iteration # 28     ecut=    71.00 Ry     beta= 0.10
     Davidson diagonalization with overlap
     ethr =  1.47E-09,  avg # of iterations =  5.8

     total cpu time spent up to now is      900.3 secs

     total energy              =   -3971.53470748 Ry
     Harris-Foulkes estimate   =   -3971.53475468 Ry
     estimated scf accuracy    <       0.00000157 Ry

     total magnetization       =     0.00 Bohr mag/cell
     absolute magnetization    =    18.17 Bohr mag/cell

     iteration # 29     ecut=    71.00 Ry     beta= 0.10
     Davidson diagonalization with overlap
     ethr =  7.03E-10,  avg # of iterations =  6.0
 
     Magnetic moment per site:
     atom:    1    charge:   12.2605    magn:    1.0711    constr:    0.0000
     atom:    2    charge:   12.2604    magn:   -1.0711    constr:    0.0000
     atom:    3    charge:   12.2602    magn:    1.0711    constr:    0.0000
     atom:    4    charge:   12.2604    magn:   -1.0711    constr:    0.0000
     atom:    5    charge:   12.2602    magn:    1.0711    constr:    0.0000
     atom:    6    charge:   12.2604    magn:   -1.0711    constr:    0.0000
     atom:    7    charge:   12.2603    magn:    1.0712    constr:    0.0000
     atom:    8    charge:   12.2604    magn:   -1.0711    constr:    0.0000
     atom:    9    charge:   12.2602    magn:    1.0711    constr:    0.0000
     atom:   10    charge:   12.2604    magn:   -1.0711    constr:    0.0000
     atom:   11    charge:   12.2603    magn:    1.0712    constr:    0.0000
     atom:   12    charge:   12.2604    magn:   -1.0711    constr:    0.0000
     atom:   13    charge:   12.2603    magn:    1.0712    constr:    0.0000
     atom:   14    charge:   12.2604    magn:   -1.0711    constr:    0.0000
     atom:   15    charge:   12.2600    magn:    1.0712    constr:    0.0000
     atom:   16    charge:   12.2604    magn:   -1.0711    constr:    0.0000

     total cpu time spent up to now is      950.2 secs

     End of self-consistent calculation

 ------ SPIN UP ------------


          k = 0.0546 0.0546 0.0546 ( 13202 PWs)   bands (ev):

   -53.6955 -53.6651 -53.6651 -53.6651 -53.6515 -53.6515 -53.6515 -53.6385
   -52.5181 -52.5181 -52.5181 -52.5122 -52.5042 -52.5042 -52.5042 -52.4908
   -25.1840 -25.1839 -25.1839 -25.1817 -25.1817 -25.1816 -25.0790 -25.0790
   -25.0790 -25.0550 -25.0519 -25.0519 -25.0008 -25.0008 -24.9971 -24.9305
   -24.9305 -24.9305 -24.9283 -24.9282 -24.9282 -24.9143 -24.9143 -24.9143
   -23.9501 -23.9501 -23.9500 -23.9241 -23.9241 -23.9209 -23.8091 -23.8091
   -23.8090 -23.8065 -23.8064 -23.8064 -23.7962 -23.7961 -23.7961 -23.7942
   -23.7942 -23.7941 -23.7823 -23.7823 -23.7822 -23.7452 -23.7406 -23.7406
    10.8451  14.2714  14.2714  14.2714  14.3887  14.3887  14.3887  14.4063
    14.4063  14.4064  14.5191  14.5191  14.9066  14.9066  14.9066  15.9634
    16.0080  16.0080  16.2430  16.2430  16.2430  16.2574  16.2574  16.2574
    16.4706  16.4707  16.4707  16.7243  16.7243  16.7244  17.2711  17.2711
    17.2711  17.6531  17.6531  17.6972  17.6973  17.6973  17.7010  17.8333
    17.8333  17.8334  18.4217  18.4217  18.4217  18.7928  18.7928  18.7928
    19.0440  19.0440  19.0440  19.1153  19.1153  19.1153  19.3582  19.3582
    19.3582  19.6329  19.6329  19.6329  19.6380  19.6380  19.7387  19.7387
    19.8417  19.8417  19.8417  19.8428  19.8428  19.8428

          k = 0.0546 0.0546 0.1639 ( 13211 PWs)   bands (ev):

   -53.6937 -53.6669 -53.6643 -53.6643 -53.6523 -53.6523 -53.6507 -53.6393
   -52.5177 -52.5172 -52.5172 -52.5125 -52.5050 -52.5050 -52.5034 -52.4916
   -25.1777 -25.1777 -25.1766 -25.1747 -25.1678 -25.1678 -25.0852 -25.0852
   -25.0745 -25.0632 -25.0607 -25.0438 -25.0063 -24.9965 -24.9919 -24.9472
   -24.9471 -24.9346 -24.9328 -24.9279 -24.9279 -24.9228 -24.9152 -24.9152
   -23.9397 -23.9396 -23.9377 -23.9190 -23.9162 -23.9101 -23.8167 -23.8167
   -23.8159 -23.8129 -23.8059 -23.8059 -23.7982 -23.7981 -23.7926 -23.7923
   -23.7923 -23.7908 -23.7905 -23.7829 -23.7828 -23.7577 -23.7439 -23.7433
    10.9756  13.8479  14.3131  14.3131  14.3665  14.4392  14.4392  14.4531
    14.4531  14.5191  14.5852  14.5902  14.9339  14.9339  15.1657  15.8607
    16.0019  16.0046  16.1604  16.2203  16.2332  16.2953  16.2953  16.3394
    16.3394  16.4541  16.4542  16.5464  16.8300  16.8403  17.0872  17.0872
    17.4884  17.5690  17.5691  17.6233  17.6427  17.6589  17.7613  17.9224
    18.0552  18.0552  18.1230  18.1230  18.4456  18.5707  18.5708  18.8653
    18.8653  18.9090  18.9274  18.9436  18.9436  19.0347  19.0400  19.4165
    19.4165  19.5659  19.5660  19.6110  19.6356  19.6518  19.6540  19.7305
    19.7733  19.7750  19.7750  19.8734  20.0547  20.0716

          k = 0.0546 0.0546 0.2731 ( 13214 PWs)   bands (ev):

   -53.6903 -53.6704 -53.6627 -53.6627 -53.6538 -53.6538 -53.6492 -53.6408
   -52.5170 -52.5157 -52.5157 -52.5131 -52.5066 -52.5066 -52.5019 -52.4931
   -25.1656 -25.1656 -25.1627 -25.1612 -25.1417 -25.1416 -25.0969 -25.0969
   -25.0787 -25.0767 -25.0661 -25.0283 -25.0156 -24.9885 -24.9844 -24.9784
   -24.9783 -24.9420 -24.9413 -24.9387 -24.9263 -24.9263 -24.9169 -24.9169
   -23.9210 -23.9209 -23.9147 -23.9064 -23.9017 -23.8930 -23.8304 -23.8303
   -23.8288 -23.8252 -23.8056 -23.8055 -23.8055 -23.8001 -23.8001 -23.7903
   -23.7903 -23.7861 -23.7844 -23.7839 -23.7838 -23.7810 -23.7498 -23.7490
    11.2322  13.2396  14.3870  14.3870  14.5107  14.5107  14.5425  14.5425
    14.5481  14.7159  14.7221  14.7372  14.9495  14.9495  15.2626  15.6637
    15.8004  15.9916  16.0110  16.1793  16.1899  16.2424  16.4102  16.4103
    16.4807  16.4808  16.4880  16.4880  16.9852  16.9853  17.0367  17.0542
    17.3518  17.3518  17.5738  17.5978  17.6132  17.6252  17.6673  17.6674
    17.8500  17.9744  17.9744  18.2075  18.3794  18.3794  18.3933  18.4757
    18.4757  18.5371  18.5826  18.9913  18.9914  19.1472  19.1683  19.4775
    19.4775  19.4818  19.6233  19.6316  19.6438  19.6438  19.6586  19.6713
    19.8095  19.8095  19.8396  19.9367  20.2453  20.3026

          k = 0.0546 0.0546 0.3823 ( 13188 PWs)   bands (ev):

   -53.6857 -53.6751 -53.6606 -53.6606 -53.6559 -53.6559 -53.6473 -53.6428
   -52.5161 -52.5140 -52.5135 -52.5135 -52.5087 -52.5087 -52.4998 -52.4952
   -25.1495 -25.1494 -25.1435 -25.1427 -25.1128 -25.1128 -25.1055 -25.1054
   -25.0988 -25.0979 -25.0546 -25.0277 -25.0189 -25.0188 -25.0074 -24.9778
   -24.9746 -24.9596 -24.9526 -24.9521 -24.9241 -24.9241 -24.9191 -24.9191
   -23.8974 -23.8974 -23.8881 -23.8835 -23.8829 -23.8717 -23.8495 -23.8494
   -23.8465 -23.8421 -23.8256 -23.8124 -23.8046 -23.8046 -23.8019 -23.8018
   -23.7885 -23.7884 -23.7852 -23.7851 -23.7773 -23.7758 -23.7581 -23.7570
    11.6055  12.6356  14.4727  14.4727  14.5550  14.5550  14.6645  14.6645
    14.7987  14.8938  14.9052  14.9053  14.9085  15.0451  15.2140  15.3941
    15.4595  15.8090  16.0355  16.0574  16.1282  16.1367  16.5803  16.5803
    16.6304  16.6305  16.6985  16.6985  16.9749  16.9750  17.1861  17.1861
    17.3091  17.3091  17.3299  17.3478  17.4180  17.4180  17.5789  17.5822
    17.5849  17.6062  17.8399  17.8399  17.9673  18.1129  18.1195  18.2611
    18.5737  18.8210  18.8210  19.1400  19.1400  19.2365  19.3484  19.3485
    19.4019  19.4645  19.4645  19.4844  19.6274  19.6323  19.6458  19.6765
    19.9318  20.0279  20.1021  20.1675  20.1682  20.1682

          k = 0.0546 0.0546-0.4916 ( 13184 PWs)   bands (ev):

   -53.6805 -53.6803 -53.6584 -53.6583 -53.6582 -53.6582 -53.6451 -53.6450
   -52.5152 -52.5149 -52.5113 -52.5113 -52.5110 -52.5110 -52.4977 -52.4973
   -25.1311 -25.1311 -25.1310 -25.1310 -25.1212 -25.1212 -25.1210 -25.1210
   -25.0631 -25.0631 -25.0628 -25.0627 -25.0415 -25.0412 -24.9837 -24.9833
   -24.9654 -24.9653 -24.9635 -24.9633 -24.9216 -24.9216 -24.9214 -24.9214
   -23.8728 -23.8727 -23.8725 -23.8724 -23.8674 -23.8672 -23.8623 -23.8620
   -23.8485 -23.8484 -23.8482 -23.8479 -23.8034 -23.8034 -23.8032 -23.8032
   -23.7868 -23.7868 -23.7866 -23.7865 -23.7678 -23.7674 -23.7665 -23.7662
    12.0804  12.0806  14.5394  14.5394  14.5396  14.5396  14.7976  14.7976
    14.7977  14.7977  15.0727  15.0729  15.0921  15.0923  15.1585  15.1587
    15.4170  15.4173  16.0770  16.0770  16.0856  16.0857  16.7905  16.7905
    16.7906  16.7906  16.9013  16.9014  16.9015  16.9016  17.0251  17.0251
    17.0252  17.0252  17.4074  17.4074  17.4075  17.4075  17.5716  17.5717
    17.5919  17.5919  17.6953  17.6955  17.7062  17.7064  18.1087  18.1088
    18.9276  18.9278  19.1262  19.1262  19.1263  19.1263  19.2938  19.2938
    19.2939  19.2940  19.6258  19.6259  19.6662  19.6665  19.7361  19.7362
    19.8477  19.8479  20.0431  20.0433  20.1408  20.1410

          k = 0.0546 0.1639 0.1639 ( 13195 PWs)   bands (ev):

   -53.6920 -53.6661 -53.6661 -53.6634 -53.6532 -53.6515 -53.6515 -53.6401
   -52.5169 -52.5169 -52.5164 -52.5127 -52.5058 -52.5042 -52.5042 -52.4924
   -25.1725 -25.1709 -25.1709 -25.1613 -25.1613 -25.1535 -25.0905 -25.0808
   -25.0808 -25.0702 -25.0599 -25.0445 -25.0113 -24.9955 -24.9860 -24.9543
   -24.9494 -24.9494 -24.9357 -24.9323 -24.9322 -24.9239 -24.9238 -24.9163
   -23.9305 -23.9293 -23.9292 -23.9165 -23.9098 -23.8975 -23.8250 -23.8228
   -23.8227 -23.8135 -23.8135 -23.8039 -23.8029 -23.7945 -23.7945 -23.7891
   -23.7890 -23.7888 -23.7887 -23.7874 -23.7834 -23.7702 -23.7466 -23.7452
    11.1044  13.9122  13.9122  14.2973  14.4096  14.4096  14.4973  14.5377
    14.5645  14.5645  14.6498  14.6610  14.9732  15.1987  15.1987  15.7928
    15.9908  16.0109  16.1625  16.1625  16.2691  16.2691  16.3090  16.3090
    16.3198  16.4225  16.4477  16.6557  16.6577  16.8940  16.9204  17.2763
    17.2763  17.5148  17.5148  17.5577  17.5584  17.6215  17.8573  17.8588
    18.1575  18.1575  18.2056  18.2168  18.2168  18.2740  18.4328  18.4328
    18.6957  18.7072  18.7072  18.9169  18.9642  18.9642  19.3129  19.3129
    19.5308  19.5734  19.5735  19.6157  19.6370  19.6472  19.6590  19.7480
    19.7503  19.8050  19.8050  19.9795  19.9796  19.9914

          k = 0.0546 0.1639 0.2731 ( 13201 PWs)   bands (ev):

   -53.6887 -53.6694 -53.6644 -53.6619 -53.6548 -53.6531 -53.6500 -53.6416
   -52.5164 -52.5155 -52.5148 -52.5132 -52.5072 -52.5058 -52.5027 -52.4939
   -25.1611 -25.1602 -25.1582 -25.1490 -25.1360 -25.1283 -25.1005 -25.0926
   -25.0836 -25.0724 -25.0717 -25.0319 -25.0211 -24.9889 -24.9805 -24.9790
   -24.9777 -24.9540 -24.9402 -24.9402 -24.9371 -24.9302 -24.9260 -24.9183
   -23.9140 -23.9140 -23.9097 -23.9074 -23.8970 -23.8793 -23.8378 -23.8350
   -23.8344 -23.8269 -23.8154 -23.8092 -23.8009 -23.8004 -23.7963 -23.7920
   -23.7878 -23.7875 -23.7861 -23.7842 -23.7840 -23.7830 -23.7523 -23.7501
    11.3572  13.3218  14.0208  14.2875  14.4859  14.5831  14.5925  14.6510
    14.6700  14.7724  14.7805  14.7971  15.0108  15.2107  15.3059  15.6478
    15.8243  15.9607  16.0191  16.2214  16.2279  16.2558  16.3656  16.3728
    16.4078  16.4200  16.4448  16.6198  16.7885  16.8583  17.0407  17.1307
    17.2954  17.3993  17.4194  17.4664  17.4945  17.5719  17.5927  17.7210
    17.8132  17.8738  17.9782  18.1699  18.2276  18.2283  18.2730  18.3405
    18.4295  18.5426  18.5587  19.0293  19.0340  19.1481  19.2427  19.3843
    19.5006  19.5065  19.5949  19.6494  19.6532  19.6689  19.6704  19.6713
    19.7978  19.8221  19.8622  19.8737  20.0808  20.1642

          k = 0.0546 0.1639 0.3823 ( 13180 PWs)   bands (ev):

   -53.6842 -53.6740 -53.6622 -53.6598 -53.6571 -53.6551 -53.6481 -53.6436
   -52.5156 -52.5139 -52.5135 -52.5127 -52.5091 -52.5079 -52.5007 -52.4960
   -25.1460 -25.1453 -25.1410 -25.1318 -25.1142 -25.1087 -25.1013 -25.1012
   -25.0944 -25.0905 -25.0610 -25.0337 -25.0184 -25.0145 -25.0108 -24.9795
   -24.9708 -24.9619 -24.9608 -24.9504 -24.9350 -24.9288 -24.9274 -24.9211
   -23.8946 -23.8932 -23.8919 -23.8829 -23.8801 -23.8581 -23.8544 -23.8525
   -23.8510 -23.8434 -23.8203 -23.8167 -23.8165 -23.8134 -23.7998 -23.7977
   -23.7864 -23.7848 -23.7837 -23.7823 -23.7791 -23.7750 -23.7600 -23.7572
    11.7243  12.7334  14.1377  14.2715  14.5737  14.6436  14.7682  14.8311
    14.8423  14.9437  14.9834  14.9886  15.0853  15.1413  15.2658  15.4145
    15.5021  15.8039  16.0482  16.1501  16.1609  16.1937  16.4289  16.5159
    16.5295  16.5543  16.6261  16.7399  16.8464  16.9737  17.1335  17.2132
    17.2276  17.2297  17.2794  17.3457  17.3541  17.4150  17.4460  17.4693
    17.4845  17.5578  17.7568  17.7601  17.8271  17.9506  18.1081  18.3053
    18.7194  18.8342  18.8774  19.1545  19.1691  19.2247  19.2842  19.2916
    19.3888  19.4424  19.4800  19.5261  19.6250  19.6616  19.6722  19.7308
    19.8334  19.8924  19.9720  19.9857  20.0669  20.1389

          k = 0.0546 0.1639-0.4916 ( 13188 PWs)   bands (ev):

   -53.6791 -53.6790 -53.6597 -53.6596 -53.6575 -53.6574 -53.6459 -53.6458
   -52.5149 -52.5146 -52.5115 -52.5112 -52.5105 -52.5101 -52.4985 -52.4982
   -25.1300 -25.1299 -25.1271 -25.1269 -25.1213 -25.1212 -25.1116 -25.1115
   -25.0607 -25.0604 -25.0552 -25.0549 -25.0477 -25.0474 -24.9866 -24.9863
   -24.9695 -24.9694 -24.9613 -24.9611 -24.9321 -24.9320 -24.9243 -24.9242
   -23.8740 -23.8737 -23.8727 -23.8726 -23.8715 -23.8712 -23.8618 -23.8615
   -23.8520 -23.8518 -23.8366 -23.8366 -23.8159 -23.8159 -23.7989 -23.7988
   -23.7857 -23.7854 -23.7823 -23.7822 -23.7696 -23.7693 -23.7661 -23.7659
    12.1903  12.1906  14.2259  14.2261  14.6382  14.6383  14.8942  14.8943
    14.9997  14.9998  15.1267  15.1269  15.1296  15.1297  15.2177  15.2179
    15.4494  15.4497  16.0987  16.0988  16.1428  16.1428  16.6552  16.6553
    16.7339  16.7341  16.7439  16.7439  16.7727  16.7729  17.0571  17.0573
    17.1439  17.1440  17.4010  17.4011  17.4185  17.4185  17.4200  17.4201
    17.4653  17.4655  17.5216  17.5217  17.5896  17.5898  18.2310  18.2311
    19.0207  19.0208  19.0539  19.0540  19.1743  19.1744  19.3126  19.3127
    19.3348  19.3349  19.5129  19.5130  19.6533  19.6535  19.6845  19.6846
    19.7735  19.7736  20.0089  20.0091  20.0944  20.0947

          k = 0.0546 0.2731 0.2731 ( 13186 PWs)   bands (ev):

   -53.6856 -53.6676 -53.6675 -53.6604 -53.6567 -53.6516 -53.6516 -53.6431
   -52.5152 -52.5152 -52.5135 -52.5132 -52.5084 -52.5043 -52.5043 -52.4955
   -25.1511 -25.1503 -25.1502 -25.1255 -25.1255 -25.1074 -25.1051 -25.0933
   -25.0844 -25.0843 -25.0689 -25.0315 -25.0306 -24.9920 -24.9855 -24.9768
   -24.9768 -24.9732 -24.9497 -24.9431 -24.9431 -24.9374 -24.9374 -24.9211
   -23.9021 -23.9016 -23.9005 -23.9004 -23.8877 -23.8610 -23.8487 -23.8427
   -23.8427 -23.8311 -23.8311 -23.8184 -23.8107 -23.7962 -23.7932 -23.7931
   -23.7895 -23.7894 -23.7845 -23.7823 -23.7823 -23.7803 -23.7570 -23.7535
    11.6020  13.4723  13.4723  14.1743  14.6713  14.6713  14.6981  14.8229
    14.8616  14.8617  14.8776  14.9423  15.0953  15.3276  15.3276  15.5872
    15.9207  15.9300  15.9300  16.0274  16.3040  16.3040  16.3574  16.3726
    16.3726  16.4664  16.5498  16.5769  16.6160  16.8143  17.0771  17.1920
    17.1921  17.3050  17.3051  17.3300  17.3422  17.3843  17.4449  17.5445
    17.6767  17.6767  17.9126  17.9757  17.9757  18.0084  18.0084  18.1236
    18.6978  18.6978  18.7516  19.1175  19.1359  19.1360  19.2587  19.4704
    19.4705  19.4972  19.5387  19.5387  19.6444  19.6682  19.6808  19.7361
    19.7361  19.7684  19.8540  19.9246  19.9636  19.9636

          k = 0.0546 0.2731 0.3823 ( 13180 PWs)   bands (ev):

   -53.6814 -53.6718 -53.6650 -53.6592 -53.6583 -53.6536 -53.6496 -53.6451
   -52.5148 -52.5139 -52.5136 -52.5112 -52.5100 -52.5064 -52.5022 -52.4975
   -25.1397 -25.1368 -25.1362 -25.1169 -25.1110 -25.1065 -25.1004 -25.0935
   -25.0784 -25.0749 -25.0728 -25.0448 -25.0199 -25.0149 -25.0072 -24.9810
   -24.9766 -24.9661 -24.9658 -24.9531 -24.9470 -24.9469 -24.9336 -24.9249
   -23.8904 -23.8884 -23.8858 -23.8813 -23.8756 -23.8614 -23.8561 -23.8543
   -23.8476 -23.8411 -23.8338 -23.8332 -23.8262 -23.8053 -23.7930 -23.7906
   -23.7866 -23.7842 -23.7825 -23.7808 -23.7795 -23.7754 -23.7636 -23.7596
    11.9561  12.9193  13.6642  14.0358  14.7603  14.7957  14.9187  14.9682
    14.9861  15.0218  15.1302  15.1410  15.1582  15.2677  15.3024  15.4327
    15.6411  15.7986  16.0586  16.1675  16.2155  16.2959  16.3076  16.3850
    16.4001  16.5165  16.5353  16.5834  16.8165  16.9162  16.9629  17.0680
    17.1277  17.1972  17.2058  17.2153  17.2577  17.2927  17.3598  17.3665
    17.4064  17.4862  17.5827  17.6165  17.6856  17.6897  18.1944  18.2464
    18.9064  18.9208  19.0127  19.1248  19.2001  19.2369  19.2834  19.3693
    19.3819  19.4548  19.5399  19.5458  19.5490  19.5833  19.6555  19.7088
    19.7653  19.8202  19.8301  19.8584  19.9078  19.9815

          k = 0.0546 0.2731-0.4916 ( 13188 PWs)   bands (ev):

   -53.6766 -53.6765 -53.6622 -53.6621 -53.6560 -53.6559 -53.6474 -53.6473
   -52.5145 -52.5142 -52.5119 -52.5116 -52.5089 -52.5086 -52.5000 -52.4997
   -25.1281 -25.1280 -25.1217 -25.1216 -25.1186 -25.1185 -25.0944 -25.0943
   -25.0592 -25.0590 -25.0566 -25.0563 -25.0413 -25.0410 -24.9914 -24.9911
   -24.9779 -24.9779 -24.9571 -24.9570 -24.9508 -24.9507 -24.9294 -24.9292
   -23.8751 -23.8749 -23.8740 -23.8739 -23.8694 -23.8691 -23.8622 -23.8619
   -23.8584 -23.8583 -23.8314 -23.8314 -23.8220 -23.8219 -23.7915 -23.7915
   -23.7835 -23.7832 -23.7817 -23.7816 -23.7719 -23.7716 -23.7674 -23.7672
    12.4030  12.4033  13.8621  13.8623  14.8168  14.8169  15.0744  15.0745
    15.1426  15.1427  15.1796  15.1798  15.1903  15.1904  15.3766  15.3768
    15.5031  15.5034  16.1261  16.1261  16.2481  16.2481  16.4553  16.4554
    16.5107  16.5110  16.5660  16.5662  16.7538  16.7538  16.9927  16.9928
    17.1058  17.1059  17.2286  17.2286  17.3371  17.3371  17.3743  17.3744
    17.3896  17.3897  17.4208  17.4209  17.4261  17.4261  18.2889  18.2890
    19.0172  19.0172  19.1596  19.1597  19.2820  19.2821  19.3478  19.3479
    19.3609  19.3609  19.3749  19.3749  19.5980  19.5981  19.6255  19.6258
    19.7515  19.7516  19.9460  19.9462  19.9886  19.9889

          k = 0.0546 0.3823 0.3823 ( 13191 PWs)   bands (ev):

   -53.6776 -53.6689 -53.6689 -53.6622 -53.6563 -53.6516 -53.6516 -53.6471
   -52.5139 -52.5137 -52.5135 -52.5111 -52.5091 -52.5043 -52.5043 -52.4996
   -25.1315 -25.1315 -25.1225 -25.1209 -25.1139 -25.0886 -25.0885 -25.0833
   -25.0833 -25.0702 -25.0589 -25.0503 -25.0298 -25.0118 -24.9985 -24.9984
   -24.9844 -24.9704 -24.9704 -24.9688 -24.9594 -24.9419 -24.9418 -24.9301
   -23.8827 -23.8786 -23.8785 -23.8765 -23.8698 -23.8684 -23.8593 -23.8593
   -23.8509 -23.8508 -23.8497 -23.8382 -23.8235 -23.7947 -23.7946 -23.7867
   -23.7832 -23.7823 -23.7822 -23.7808 -23.7772 -23.7771 -23.7685 -23.7641
    12.2889  13.1733  13.1733  13.7631  14.9515  14.9993  14.9993  15.1202
    15.1225  15.2448  15.2448  15.2653  15.2852  15.2853  15.3588  15.3910
    15.7448  15.8907  15.8908  16.0743  16.2612  16.2612  16.2851  16.4124
    16.4124  16.4171  16.4482  16.5671  16.5801  16.6715  16.9736  16.9869
    16.9869  17.0103  17.0103  17.1573  17.1999  17.2928  17.2929  17.3204
    17.3237  17.4057  17.4082  17.4449  17.4449  17.9311  17.9311  18.2874
    19.0509  19.0510  19.0579  19.2153  19.2935  19.2936  19.3332  19.3380
    19.4179  19.5194  19.5194  19.5324  19.5541  19.5542  19.6266  19.6473
    19.6648  19.6648  19.7510  19.8023  19.8880  19.8881

          k = 0.0546 0.3823-0.4916 ( 13192 PWs)   bands (ev):

   -53.6733 -53.6732 -53.6656 -53.6655 -53.6540 -53.6539 -53.6494 -53.6493
   -52.5139 -52.5136 -52.5125 -52.5122 -52.5069 -52.5065 -52.5021 -52.5018
   -25.1260 -25.1259 -25.1226 -25.1225 -25.1059 -25.1059 -25.0744 -25.0742
   -25.0736 -25.0736 -25.0536 -25.0533 -25.0239 -25.0237 -24.9949 -24.9946
   -24.9904 -24.9904 -24.9732 -24.9731 -24.9510 -24.9508 -24.9361 -24.9359
   -23.8743 -23.8742 -23.8699 -23.8699 -23.8671 -23.8668 -23.8653 -23.8652
   -23.8632 -23.8629 -23.8470 -23.8470 -23.8075 -23.8075 -23.7861 -23.7861
   -23.7836 -23.7835 -23.7804 -23.7802 -23.7748 -23.7745 -23.7707 -23.7706
    12.7033  12.7036  13.4659  13.4661  15.0282  15.0284  15.2224  15.2225
    15.2226  15.2226  15.2345  15.2346  15.3032  15.3033  15.5442  15.5444
    15.6155  15.6157  16.1400  16.1401  16.2122  16.2124  16.2724  16.2725
    16.3672  16.3673  16.4301  16.4303  16.7736  16.7737  16.8071  16.8071
    16.8570  16.8571  17.0528  17.0529  17.2900  17.2902  17.3006  17.3006
    17.3189  17.3191  17.3407  17.3408  17.6225  17.6225  18.1618  18.1618
    19.0434  19.0434  19.2318  19.2318  19.3874  19.3874  19.4302  19.4303
    19.4336  19.4337  19.4451  19.4453  19.4576  19.4577  19.5793  19.5795
    19.7997  19.7998  19.8203  19.8203  19.8304  19.8306

          k = 0.0546-0.4916-0.4916 ( 13224 PWs)   bands (ev):

   -53.6696 -53.6695 -53.6693 -53.6691 -53.6519 -53.6518 -53.6516 -53.6514
   -52.5133 -52.5131 -52.5129 -52.5128 -52.5046 -52.5044 -52.5042 -52.5041
   -25.1242 -25.1241 -25.1240 -25.1239 -25.0906 -25.0905 -25.0905 -25.0904
   -25.0578 -25.0578 -25.0578 -25.0576 -25.0062 -25.0062 -25.0062 -25.0060
   -24.9905 -24.9905 -24.9905 -24.9903 -24.9436 -24.9436 -24.9434 -24.9434
   -23.8710 -23.8710 -23.8709 -23.8709 -23.8652 -23.8650 -23.8648 -23.8647
   -23.8606 -23.8606 -23.8605 -23.8605 -23.7953 -23.7953 -23.7952 -23.7952
   -23.7781 -23.7779 -23.7777 -23.7776 -23.7757 -23.7757 -23.7757 -23.7757
    13.0680  13.0680  13.0682  13.0683  15.1907  15.1907  15.1908  15.1909
    15.2437  15.2437  15.2438  15.2439  15.4934  15.4934  15.4935  15.4936
    15.9036  15.9037  15.9038  15.9039  16.1662  16.1663  16.1663  16.1664
    16.3874  16.3875  16.3876  16.3876  16.7146  16.7147  16.7148  16.7149
    16.9090  16.9090  16.9090  16.9090  17.2631  17.2632  17.2633  17.2633
    17.2941  17.2941  17.2941  17.2942  17.9056  17.9056  17.9056  17.9056
    19.1362  19.1363  19.1363  19.1363  19.4560  19.4561  19.4561  19.4561
    19.5129  19.5129  19.5130  19.5131  19.5815  19.5815  19.5815  19.5816
    19.6365  19.6366  19.6367  19.6368  19.8479  19.8480

          k = 0.1639 0.1639 0.1639 ( 13223 PWs)   bands (ev):

   -53.6903 -53.6652 -53.6652 -53.6652 -53.6524 -53.6524 -53.6524 -53.6409
   -52.5162 -52.5162 -52.5162 -52.5129 -52.5050 -52.5050 -52.5050 -52.4932
   -25.1654 -25.1654 -25.1654 -25.1487 -25.1487 -25.1487 -25.0860 -25.0859
   -25.0859 -25.0738 -25.0531 -25.0531 -25.0070 -25.0070 -24.9782 -24.9549
   -24.9549 -24.9548 -24.9405 -24.9405 -24.9405 -24.9253 -24.9253 -24.9253
   -23.9216 -23.9216 -23.9215 -23.9089 -23.9089 -23.8864 -23.8313 -23.8313
   -23.8312 -23.8093 -23.8092 -23.8092 -23.8002 -23.8001 -23.8001 -23.7892
   -23.7892 -23.7891 -23.7847 -23.7847 -23.7847 -23.7809 -23.7486 -23.7486
    11.2315  13.9819  13.9819  13.9819  14.4012  14.4012  14.4012  14.6426
    14.6426  14.6426  14.7224  14.7224  15.2468  15.2468  15.2468  15.7443
    16.0165  16.0165  16.1467  16.1468  16.1468  16.2940  16.2940  16.2940
    16.4062  16.4062  16.4062  16.6329  16.7486  16.7486  17.0997  17.0997
    17.0997  17.4710  17.4710  17.4710  17.5397  17.5397  17.9564  17.9565
    17.9565  17.9612  18.1107  18.1108  18.1108  18.3790  18.3790  18.3790
    18.4545  18.4545  18.4545  19.0333  19.0333  19.0333  19.4990  19.4990
    19.4990  19.5352  19.5352  19.5352  19.6633  19.6633  19.6774  19.6774
    19.7698  19.7698  19.7698  19.9518  19.9518  19.9518

          k = 0.1639 0.1639 0.2731 ( 13184 PWs)   bands (ev):

   -53.6871 -53.6684 -53.6635 -53.6635 -53.6540 -53.6540 -53.6509 -53.6424
   -52.5157 -52.5147 -52.5147 -52.5133 -52.5064 -52.5064 -52.5035 -52.4947
   -25.1548 -25.1548 -25.1519 -25.1391 -25.1246 -25.1246 -25.0957 -25.0957
   -25.0832 -25.0772 -25.0686 -25.0373 -25.0203 -24.9988 -24.9790 -24.9790
   -24.9717 -24.9560 -24.9493 -24.9421 -24.9414 -24.9414 -24.9279 -24.9278
   -23.9076 -23.9075 -23.9044 -23.9024 -23.8949 -23.8701 -23.8427 -23.8418
   -23.8417 -23.8210 -23.8085 -23.8084 -23.8052 -23.8052 -23.8002 -23.8000
   -23.7931 -23.7879 -23.7878 -23.7820 -23.7820 -23.7795 -23.7549 -23.7525
    11.4810  13.4074  14.1009  14.1009  14.3965  14.3965  14.5977  14.7707
    14.7707  14.8436  14.8464  14.8568  15.2851  15.2851  15.3678  15.6420
    15.8295  15.9899  16.0358  16.1796  16.1797  16.2472  16.3341  16.3766
    16.3766  16.3998  16.5580  16.5580  16.7885  16.9193  16.9434  16.9434
    17.2415  17.3190  17.3190  17.3898  17.4538  17.5050  17.6555  17.6555
    17.6811  17.6811  17.9291  18.0384  18.0384  18.0834  18.0868  18.0887
    18.5786  18.6437  18.6437  19.1091  19.1091  19.2496  19.3497  19.4283
    19.4283  19.5398  19.5641  19.6741  19.6771  19.6798  19.6798  19.7533
    19.7722  19.7722  19.8334  19.8668  19.8786  20.0241

          k = 0.1639 0.1639 0.3823 ( 13182 PWs)   bands (ev):

   -53.6827 -53.6728 -53.6613 -53.6613 -53.6563 -53.6563 -53.6489 -53.6444
   -52.5152 -52.5139 -52.5128 -52.5128 -52.5084 -52.5084 -52.5014 -52.4968
   -25.1407 -25.1407 -25.1332 -25.1262 -25.1092 -25.1092 -25.0964 -25.0918
   -25.0918 -25.0890 -25.0651 -25.0352 -25.0152 -25.0144 -25.0143 -24.9874
   -24.9661 -24.9645 -24.9612 -24.9582 -24.9388 -24.9388 -24.9313 -24.9313
   -23.8904 -23.8901 -23.8900 -23.8809 -23.8766 -23.8579 -23.8554 -23.8553
   -23.8515 -23.8374 -23.8255 -23.8149 -23.8100 -23.8100 -23.8090 -23.8090
   -23.7850 -23.7849 -23.7839 -23.7813 -23.7813 -23.7728 -23.7636 -23.7584
    11.8428  12.8331  14.2312  14.2312  14.3815  14.3815  14.8636  14.9299
    14.9299  15.0216  15.0306  15.1359  15.2340  15.2340  15.3396  15.4416
    15.5242  15.8275  16.0732  16.1858  16.1879  16.2502  16.3493  16.3494
    16.5082  16.5082  16.7346  16.7346  16.8263  16.8264  17.0042  17.1478
    17.1915  17.1915  17.2028  17.2029  17.3348  17.3473  17.3863  17.4087
    17.4087  17.4583  17.6292  17.6292  17.6842  17.6853  18.2026  18.2157
    18.8346  18.9214  18.9214  19.2027  19.2027  19.2572  19.2990  19.2990
    19.3431  19.5284  19.5284  19.5431  19.5455  19.6069  19.6728  19.6960
    19.7980  19.8566  19.9361  20.0129  20.0129  20.0999

          k = 0.1639 0.1639-0.4916 ( 13160 PWs)   bands (ev):

   -53.6778 -53.6777 -53.6589 -53.6588 -53.6588 -53.6587 -53.6467 -53.6466
   -52.5147 -52.5143 -52.5107 -52.5107 -52.5104 -52.5104 -52.4993 -52.4989
   -25.1248 -25.1248 -25.1247 -25.1247 -25.1115 -25.1113 -25.1113 -25.1112
   -25.0538 -25.0537 -25.0535 -25.0534 -25.0507 -25.0504 -24.9901 -24.9897
   -24.9745 -24.9743 -24.9617 -24.9616 -24.9352 -24.9352 -24.9351 -24.9351
   -23.8747 -23.8746 -23.8720 -23.8719 -23.8717 -23.8716 -23.8567 -23.8564
   -23.8537 -23.8535 -23.8325 -23.8324 -23.8106 -23.8106 -23.8106 -23.8105
   -23.7825 -23.7824 -23.7824 -23.7823 -23.7737 -23.7734 -23.7655 -23.7653
    12.3009  12.3012  14.3308  14.3308  14.3309  14.3310  15.0973  15.0973
    15.0974  15.0974  15.1618  15.1620  15.2079  15.2081  15.2509  15.2511
    15.4856  15.4859  16.1264  16.1265  16.1813  16.1813  16.6212  16.6212
    16.6213  16.6213  16.7016  16.7016  16.7018  16.7018  17.0884  17.0884
    17.0885  17.0885  17.3146  17.3147  17.3479  17.3479  17.3517  17.3517
    17.3517  17.3518  17.4025  17.4026  17.4120  17.4121  18.2634  18.2635
    19.1008  19.1009  19.1449  19.1449  19.1450  19.1450  19.3160  19.3161
    19.3462  19.3462  19.3462  19.3462  19.6471  19.6473  19.7355  19.7355
    19.8889  19.8891  19.9781  19.9783  20.0654  20.0657

          k = 0.1639 0.2731 0.2731 ( 13178 PWs)   bands (ev):

   -53.6840 -53.6666 -53.6666 -53.6619 -53.6559 -53.6525 -53.6525 -53.6439
   -52.5145 -52.5145 -52.5135 -52.5132 -52.5076 -52.5049 -52.5049 -52.4963
   -25.1444 -25.1430 -25.1430 -25.1174 -25.1174 -25.1032 -25.1017 -25.0885
   -25.0865 -25.0864 -25.0655 -25.0385 -25.0267 -25.0001 -24.9886 -24.9771
   -24.9770 -24.9669 -24.9549 -24.9490 -24.9490 -24.9456 -24.9456 -24.9313
   -23.8960 -23.8952 -23.8951 -23.8950 -23.8860 -23.8560 -23.8508 -23.8496
   -23.8496 -23.8214 -23.8214 -23.8154 -23.8142 -23.8019 -23.7979 -23.7979
   -23.7959 -23.7958 -23.7895 -23.7794 -23.7783 -23.7783 -23.7598 -23.7570
    11.7234  13.5647  13.5647  14.2411  14.2890  14.6042  14.6042  14.9211
    14.9546  14.9642  14.9642  14.9945  15.3845  15.4187  15.4187  15.6071
    15.9052  15.9052  15.9905  16.0474  16.1383  16.3196  16.3196  16.4319
    16.4350  16.4538  16.4538  16.6050  16.7260  16.7738  16.9221  17.0670
    17.0670  17.2219  17.2469  17.2469  17.3031  17.3551  17.4365  17.4921
    17.5187  17.5187  17.7261  17.7444  17.7445  17.8148  17.8148  18.2046
    18.8062  18.8062  18.8367  19.2086  19.2692  19.2692  19.3310  19.5003
    19.5003  19.5384  19.5579  19.6107  19.6107  19.6558  19.6831  19.7013
    19.7221  19.7320  19.7320  19.9124  19.9541  19.9541

          k = 0.1639 0.2731 0.3823 ( 13187 PWs)   bands (ev):

   -53.6800 -53.6707 -53.6641 -53.6597 -53.6584 -53.6547 -53.6505 -53.6459
   -52.5143 -52.5137 -52.5129 -52.5113 -52.5092 -52.5069 -52.5029 -52.4983
   -25.1324 -25.1303 -25.1274 -25.1104 -25.1070 -25.0994 -25.0981 -25.0867
   -25.0774 -25.0744 -25.0734 -25.0414 -25.0211 -25.0156 -25.0075 -24.9924
   -24.9770 -24.9693 -24.9642 -24.9578 -24.9573 -24.9502 -24.9455 -24.9359
   -23.8853 -23.8836 -23.8820 -23.8775 -23.8716 -23.8606 -23.8605 -23.8574
   -23.8397 -23.8375 -23.8353 -23.8247 -23.8216 -23.8080 -23.8010 -23.8007
   -23.7893 -23.7883 -23.7872 -23.7799 -23.7794 -23.7733 -23.7678 -23.7624
    12.0737  13.0225  13.7657  14.1513  14.4004  14.5909  14.8871  15.0847
    15.1039  15.1170  15.1843  15.2340  15.3693  15.3944  15.4013  15.4683
    15.6407  15.8442  16.0898  16.1291  16.2238  16.2446  16.2801  16.3393
    16.4208  16.5435  16.5742  16.6584  16.7279  16.8435  16.8871  16.9934
    17.0484  17.0742  17.1070  17.1390  17.1626  17.2432  17.2563  17.2887
    17.3195  17.3707  17.4285  17.4362  17.4605  17.5203  17.9859  18.2524
    19.0140  19.0309  19.0760  19.2364  19.2827  19.2982  19.3259  19.4011
    19.4202  19.4239  19.5380  19.5560  19.5689  19.5743  19.6719  19.7377
    19.7996  19.8263  19.8862  19.8976  19.9789  19.9981

          k = 0.1639 0.2731-0.4916 ( 13176 PWs)   bands (ev):

   -53.6754 -53.6753 -53.6613 -53.6612 -53.6573 -53.6572 -53.6483 -53.6482
   -52.5141 -52.5138 -52.5112 -52.5109 -52.5093 -52.5089 -52.5008 -52.5004
   -25.1211 -25.1210 -25.1148 -25.1147 -25.1114 -25.1113 -25.0935 -25.0933
   -25.0579 -25.0577 -25.0512 -25.0509 -25.0414 -25.0411 -24.9959 -24.9956
   -24.9828 -24.9827 -24.9620 -24.9619 -24.9548 -24.9547 -24.9410 -24.9408
   -23.8732 -23.8731 -23.8717 -23.8715 -23.8684 -23.8681 -23.8568 -23.8567
   -23.8549 -23.8546 -23.8254 -23.8254 -23.8231 -23.8231 -23.8018 -23.8017
   -23.7834 -23.7834 -23.7827 -23.7826 -23.7779 -23.7776 -23.7679 -23.7678
    12.5146  12.5149  13.9725  13.9727  14.5268  14.5270  15.2005  15.2007
    15.2431  15.2432  15.2717  15.2719  15.2786  15.2787  15.4013  15.4015
    15.5508  15.5511  16.1609  16.1610  16.2584  16.2584  16.4323  16.4325
    16.4632  16.4634  16.5878  16.5879  16.7105  16.7105  16.9626  16.9627
    16.9929  16.9931  17.1730  17.1730  17.1855  17.1855  17.2364  17.2365
    17.2702  17.2703  17.2786  17.2786  17.3009  17.3009  18.1634  18.1634
    19.1598  19.1598  19.2225  19.2227  19.2995  19.2995  19.2998  19.2999
    19.3955  19.3956  19.3959  19.3959  19.6340  19.6343  19.7922  19.7923
    19.8288  19.8290  19.9229  19.9231  19.9876  19.9879

          k = 0.1639 0.3823 0.3823 ( 13194 PWs)   bands (ev):

   -53.6763 -53.6678 -53.6678 -53.6613 -53.6576 -53.6527 -53.6527 -53.6480
   -52.5136 -52.5131 -52.5130 -52.5104 -52.5094 -52.5049 -52.5049 -52.5003
   -25.1221 -25.1221 -25.1164 -25.1130 -25.1038 -25.0858 -25.0857 -25.0794
   -25.0794 -25.0682 -25.0539 -25.0515 -25.0251 -25.0190 -25.0000 -24.9999
   -24.9931 -24.9748 -24.9747 -24.9745 -24.9631 -24.9534 -24.9534 -24.9419
   -23.8763 -23.8738 -23.8737 -23.8724 -23.8655 -23.8654 -23.8609 -23.8609
   -23.8478 -23.8412 -23.8411 -23.8333 -23.8253 -23.7982 -23.7981 -23.7921
   -23.7911 -23.7910 -23.7888 -23.7827 -23.7767 -23.7767 -23.7729 -23.7683
    12.4047  13.2815  13.2815  13.8796  14.6048  14.8742  14.8742  15.2088
    15.2200  15.3684  15.3685  15.3867  15.3867  15.3969  15.4069  15.5336
    15.7981  15.8901  15.8901  16.1035  16.1510  16.2963  16.2963  16.4336
    16.4336  16.4422  16.4659  16.5293  16.5458  16.6524  16.9111  16.9157
    16.9157  16.9406  16.9406  17.0419  17.1213  17.1420  17.1700  17.1700
    17.2257  17.2593  17.2593  17.2603  17.2899  17.6941  17.6941  18.1444
    19.1929  19.1929  19.2157  19.2729  19.2960  19.4011  19.4171  19.4171
    19.4605  19.5325  19.5326  19.5507  19.6547  19.6782  19.6782  19.7061
    19.7062  19.7790  19.7813  19.9073  19.9227  19.9257

          k = 0.1639 0.3823-0.4916 ( 13176 PWs)   bands (ev):

   -53.6721 -53.6720 -53.6646 -53.6645 -53.6552 -53.6551 -53.6504 -53.6503
   -52.5135 -52.5131 -52.5119 -52.5116 -52.5073 -52.5069 -52.5027 -52.5024
   -25.1171 -25.1170 -25.1121 -25.1119 -25.1007 -25.1007 -25.0714 -25.0713
   -25.0698 -25.0697 -25.0493 -25.0491 -25.0257 -25.0255 -25.0007 -25.0004
   -24.9945 -24.9945 -24.9784 -24.9783 -24.9601 -24.9599 -24.9480 -24.9478
   -23.8697 -23.8696 -23.8668 -23.8667 -23.8640 -23.8637 -23.8613 -23.8613
   -23.8561 -23.8559 -23.8411 -23.8410 -23.8108 -23.8108 -23.7916 -23.7915
   -23.7892 -23.7891 -23.7826 -23.7824 -23.7810 -23.7807 -23.7733 -23.7732
    12.8162  12.8165  13.5793  13.5795  14.7810  14.7812  15.1795  15.1796
    15.3163  15.3164  15.3235  15.3237  15.5035  15.5036  15.6306  15.6308
    15.6405  15.6408  16.1698  16.1699  16.2109  16.2111  16.2468  16.2469
    16.3663  16.3664  16.4711  16.4712  16.6756  16.6757  16.7700  16.7701
    16.7886  16.7886  17.0142  17.0143  17.1238  17.1240  17.1639  17.1639
    17.1810  17.1811  17.2177  17.2177  17.4065  17.4065  17.9211  17.9211
    19.2395  19.2395  19.3412  19.3414  19.4577  19.4578  19.4614  19.4614
    19.4769  19.4770  19.4850  19.4851  19.6082  19.6084  19.6733  19.6734
    19.8215  19.8216  19.8600  19.8602  19.8657  19.8659

          k = 0.1639-0.4916-0.4916 ( 13200 PWs)   bands (ev):

   -53.6685 -53.6684 -53.6682 -53.6681 -53.6529 -53.6528 -53.6526 -53.6525
   -52.5127 -52.5126 -52.5124 -52.5123 -52.5051 -52.5049 -52.5048 -52.5046
   -25.1140 -25.1139 -25.1138 -25.1138 -25.0849 -25.0849 -25.0849 -25.0847
   -25.0541 -25.0540 -25.0540 -25.0538 -25.0094 -25.0094 -25.0093 -25.0092
   -24.9969 -24.9969 -24.9968 -24.9967 -24.9551 -24.9550 -24.9549 -24.9549
   -23.8660 -23.8660 -23.8660 -23.8660 -23.8604 -23.8602 -23.8600 -23.8599
   -23.8550 -23.8550 -23.8549 -23.8549 -23.7988 -23.7988 -23.7987 -23.7987
   -23.7836 -23.7834 -23.7832 -23.7831 -23.7805 -23.7805 -23.7804 -23.7804
    13.1817  13.1818  13.1820  13.1821  15.0288  15.0288  15.0289  15.0290
    15.3416  15.3416  15.3417  15.3418  15.6567  15.6568  15.6569  15.6569
    15.9222  15.9222  15.9224  15.9225  16.1579  16.1580  16.1580  16.1581
    16.4103  16.4103  16.4104  16.4104  16.6246  16.6247  16.6247  16.6248
    16.8723  16.8723  16.8723  16.8723  17.1156  17.1156  17.1157  17.1158
    17.1653  17.1654  17.1654  17.1654  17.6460  17.6460  17.6460  17.6460
    19.3567  19.3568  19.3569  19.3569  19.5079  19.5080  19.5080  19.5080
    19.5563  19.5563  19.5564  19.5564  19.6735  19.6736  19.6738  19.6738
    19.7422  19.7423  19.7423  19.7423  19.8428  19.8428

          k = 0.2731 0.2731 0.2731 ( 13193 PWs)   bands (ev):

   -53.6812 -53.6648 -53.6648 -53.6648 -53.6544 -53.6544 -53.6543 -53.6454
   -52.5136 -52.5133 -52.5133 -52.5132 -52.5062 -52.5061 -52.5061 -52.4977
   -25.1316 -25.1316 -25.1316 -25.0999 -25.0999 -25.0998 -25.0910 -25.0910
   -25.0910 -25.0855 -25.0531 -25.0531 -25.0179 -25.0179 -24.9829 -24.9829
   -24.9828 -24.9647 -24.9647 -24.9647 -24.9643 -24.9502 -24.9502 -24.9502
   -23.8859 -23.8859 -23.8857 -23.8820 -23.8820 -23.8550 -23.8550 -23.8549
   -23.8472 -23.8249 -23.8131 -23.8131 -23.8131 -23.8066 -23.8065 -23.8065
   -23.7987 -23.7987 -23.7986 -23.7778 -23.7778 -23.7777 -23.7641 -23.7641
    11.9607  13.7355  13.7355  13.7355  14.5100  14.5100  14.5100  15.0969
    15.0969  15.1079  15.1079  15.1079  15.5519  15.5519  15.5519  15.6171
    15.8952  15.8952  15.8952  16.0883  16.0883  16.1950  16.3774  16.3774
    16.3774  16.5782  16.5782  16.5782  16.7061  16.7061  16.9122  16.9122
    16.9123  17.1247  17.1247  17.1247  17.2259  17.2259  17.2259  17.2999
    17.2999  17.4305  17.4305  17.4305  17.5534  17.5534  17.5534  18.2392
    18.9843  18.9843  18.9843  19.3257  19.3871  19.3871  19.3871  19.4498
    19.4498  19.4499  19.6316  19.6316  19.7062  19.7062  19.7063  19.7155
    19.7155  19.8314  19.8314  19.8314  19.9381  19.9382

          k = 0.2731 0.2731 0.3823 ( 13178 PWs)   bands (ev):

   -53.6774 -53.6686 -53.6623 -53.6623 -53.6568 -53.6568 -53.6523 -53.6475
   -52.5135 -52.5132 -52.5116 -52.5116 -52.5078 -52.5078 -52.5042 -52.4997
   -25.1195 -25.1194 -25.1140 -25.0982 -25.0982 -25.0956 -25.0872 -25.0757
   -25.0734 -25.0734 -25.0722 -25.0375 -25.0309 -25.0085 -25.0085 -25.0058
   -24.9775 -24.9760 -24.9753 -24.9661 -24.9661 -24.9654 -24.9559 -24.9559
   -23.8759 -23.8749 -23.8749 -23.8714 -23.8650 -23.8610 -23.8594 -23.8594
   -23.8386 -23.8358 -23.8285 -23.8133 -23.8132 -23.8132 -23.8131 -23.8104
   -23.7964 -23.7941 -23.7941 -23.7806 -23.7805 -23.7753 -23.7738 -23.7684
    12.3024  13.2191  13.9557  13.9557  14.3737  14.3737  14.8184  15.2457
    15.2714  15.2714  15.2788  15.3622  15.4959  15.5584  15.5584  15.5695
    15.6553  15.8984  16.0540  16.0540  16.1485  16.2044  16.3030  16.4117
    16.4692  16.4692  16.6294  16.6751  16.6751  16.7661  16.7661  16.8373
    16.9091  16.9091  17.0082  17.0083  17.0301  17.0806  17.1061  17.1148
    17.1807  17.1900  17.1900  17.2243  17.2976  17.2976  17.6840  18.1193
    19.1618  19.1924  19.1924  19.2952  19.4108  19.4109  19.4266  19.4266
    19.5017  19.5676  19.6020  19.6020  19.6441  19.6481  19.7010  19.7475
    19.7674  19.8113  19.8968  19.9586  19.9586  19.9808

          k = 0.2731 0.2731-0.4916 ( 13152 PWs)   bands (ev):

   -53.6731 -53.6730 -53.6597 -53.6596 -53.6595 -53.6595 -53.6499 -53.6498
   -52.5135 -52.5132 -52.5099 -52.5099 -52.5095 -52.5095 -52.5021 -52.5018
   -25.1080 -25.1080 -25.1079 -25.1079 -25.0935 -25.0933 -25.0911 -25.0910
   -25.0575 -25.0573 -25.0414 -25.0414 -25.0412 -25.0411 -25.0036 -25.0033
   -24.9919 -24.9917 -24.9697 -24.9697 -24.9617 -24.9617 -24.9616 -24.9616
   -23.8684 -23.8683 -23.8656 -23.8655 -23.8654 -23.8653 -23.8550 -23.8549
   -23.8465 -23.8462 -23.8233 -23.8232 -23.8154 -23.8154 -23.8153 -23.8153
   -23.7865 -23.7864 -23.7864 -23.7863 -23.7851 -23.7848 -23.7723 -23.7722
    12.7303  12.7305  14.1827  14.1827  14.1829  14.1829  15.1769  15.1771
    15.4338  15.4338  15.4339  15.4339  15.4347  15.4349  15.4571  15.4573
    15.6448  15.6450  16.2230  16.2230  16.2719  16.2720  16.3628  16.3628
    16.3630  16.3630  16.6333  16.6334  16.6335  16.6335  16.8117  16.8119
    16.9443  16.9443  16.9443  16.9444  16.9799  16.9800  17.1022  17.1022
    17.1202  17.1202  17.1203  17.1203  17.1334  17.1335  17.8939  17.8939
    19.3407  19.3408  19.3679  19.3679  19.3680  19.3681  19.4361  19.4362
    19.4585  19.4585  19.4585  19.4586  19.6517  19.6520  19.8338  19.8339
    19.8802  19.8804  19.9609  19.9611  19.9636  19.9639

          k = 0.2731 0.3823 0.3823 ( 13182 PWs)   bands (ev):

   -53.6739 -53.6659 -53.6659 -53.6600 -53.6596 -53.6546 -53.6546 -53.6497
   -52.5130 -52.5120 -52.5120 -52.5099 -52.5091 -52.5059 -52.5059 -52.5016
   -25.1056 -25.1055 -25.1047 -25.0983 -25.0857 -25.0814 -25.0814 -25.0716
   -25.0715 -25.0635 -25.0536 -25.0441 -25.0323 -25.0163 -25.0093 -25.0018
   -25.0018 -24.9853 -24.9823 -24.9823 -24.9746 -24.9746 -24.9702 -24.9630
   -23.8653 -23.8653 -23.8649 -23.8646 -23.8602 -23.8586 -23.8586 -23.8576
   -23.8452 -23.8287 -23.8286 -23.8282 -23.8245 -23.8047 -23.8046 -23.8023
   -23.8021 -23.8021 -23.7984 -23.7859 -23.7809 -23.7809 -23.7802 -23.7763
    12.6295  13.4882  13.4883  14.1045  14.2058  14.6836  14.6836  15.3664
    15.3695  15.4107  15.4709  15.5222  15.5222  15.5818  15.5818  15.7543
    15.8822  15.8823  15.8959  16.0039  16.1592  16.2781  16.3631  16.3631
    16.4821  16.4821  16.4951  16.4969  16.6267  16.6397  16.7770  16.7770
    16.7842  16.8425  16.8590  16.8591  16.8676  16.9729  16.9729  16.9853
    16.9853  17.0271  17.0541  17.0967  17.1221  17.3743  17.3743  17.8531
    19.3317  19.3317  19.3671  19.4459  19.4460  19.5444  19.5460  19.5721
    19.5722  19.6016  19.6265  19.6265  19.7085  19.7085  19.7107  19.7324
    19.8026  19.9018  19.9018  19.9020  19.9249  19.9249

          k = 0.2731 0.3823-0.4916 ( 13172 PWs)   bands (ev):

   -53.6699 -53.6698 -53.6628 -53.6627 -53.6574 -53.6573 -53.6522 -53.6521
   -52.5127 -52.5123 -52.5107 -52.5104 -52.5081 -52.5077 -52.5039 -52.5036
   -25.1006 -25.1005 -25.0924 -25.0923 -25.0912 -25.0912 -25.0677 -25.0676
   -25.0620 -25.0618 -25.0417 -25.0414 -25.0289 -25.0286 -25.0110 -25.0107
   -25.0030 -25.0029 -24.9879 -24.9878 -24.9757 -24.9756 -24.9698 -24.9697
   -23.8615 -23.8614 -23.8594 -23.8593 -23.8582 -23.8580 -23.8546 -23.8546
   -23.8448 -23.8445 -23.8307 -23.8306 -23.8170 -23.8170 -23.8034 -23.8033
   -23.7946 -23.7945 -23.7905 -23.7902 -23.7896 -23.7895 -23.7801 -23.7800
    13.0342  13.0344  13.7971  13.7973  14.4679  14.4681  15.0428  15.0430
    15.4930  15.4932  15.5174  15.5175  15.6866  15.6867  15.6878  15.6880
    15.7777  15.7779  16.2028  16.2030  16.2190  16.2192  16.2290  16.2291
    16.3547  16.3547  16.5373  16.5375  16.5753  16.5754  16.7037  16.7038
    16.7146  16.7146  16.8509  16.8510  16.9442  16.9442  16.9472  16.9472
    16.9700  16.9702  17.0359  17.0359  17.1050  17.1051  17.5750  17.5750
    19.4617  19.4619  19.4801  19.4803  19.5394  19.5396  19.5497  19.5498
    19.5889  19.5890  19.6652  19.6654  19.6832  19.6832  19.8330  19.8332
    19.8515  19.8516  19.8975  19.8977  19.9062  19.9064

          k = 0.2731-0.4916-0.4916 ( 13164 PWs)   bands (ev):

   -53.6665 -53.6664 -53.6662 -53.6661 -53.6549 -53.6548 -53.6546 -53.6545
   -52.5117 -52.5116 -52.5114 -52.5113 -52.5061 -52.5059 -52.5057 -52.5056
   -25.0950 -25.0949 -25.0948 -25.0948 -25.0741 -25.0741 -25.0741 -25.0739
   -25.0472 -25.0471 -25.0471 -25.0470 -25.0153 -25.0153 -25.0153 -25.0151
   -25.0089 -25.0089 -25.0089 -25.0087 -24.9757 -24.9756 -24.9755 -24.9755
   -23.8570 -23.8570 -23.8569 -23.8569 -23.8519 -23.8518 -23.8516 -23.8515
   -23.8447 -23.8447 -23.8446 -23.8446 -23.8057 -23.8057 -23.8056 -23.8056
   -23.7933 -23.7931 -23.7930 -23.7928 -23.7895 -23.7895 -23.7895 -23.7895
    13.4012  13.4013  13.4014  13.4015  14.7809  14.7810  14.7811  14.7812
    15.5283  15.5283  15.5284  15.5285  15.8753  15.8753  15.8754  15.8754
    15.9568  15.9568  15.9570  15.9571  16.1363  16.1363  16.1364  16.1365
    16.4590  16.4591  16.4592  16.4592  16.5237  16.5238  16.5238  16.5239
    16.8049  16.8049  16.8049  16.8050  16.8706  16.8706  16.8707  16.8708
    16.9688  16.9688  16.9688  16.9689  17.2891  17.2891  17.2891  17.2891
    19.5320  19.5321  19.5322  19.5323  19.6305  19.6306  19.6307  19.6307
    19.7055  19.7055  19.7056  19.7057  19.7574  19.7574  19.7575  19.7576
    19.8262  19.8263  19.8264  19.8265  19.9004  19.9006

          k = 0.3823 0.3823 0.3823 ( 13184 PWs)   bands (ev):

   -53.6706 -53.6633 -53.6633 -53.6632 -53.6573 -53.6573 -53.6573 -53.6520
   -52.5123 -52.5106 -52.5106 -52.5106 -52.5074 -52.5073 -52.5073 -52.5033
   -25.0884 -25.0883 -25.0883 -25.0781 -25.0781 -25.0781 -25.0685 -25.0569
   -25.0569 -25.0569 -25.0498 -25.0498 -25.0307 -25.0307 -25.0049 -25.0049
   -25.0048 -24.9996 -24.9995 -24.9995 -24.9911 -24.9911 -24.9911 -24.9803
   -23.8559 -23.8559 -23.8558 -23.8538 -23.8538 -23.8537 -23.8492 -23.8492
   -23.8444 -23.8301 -23.8163 -23.8162 -23.8162 -23.8129 -23.8128 -23.8128
   -23.8111 -23.8111 -23.8110 -23.7892 -23.7892 -23.7892 -23.7871 -23.7871
    12.9491  13.7726  13.7726  13.7726  14.4192  14.4192  14.4192  15.1460
    15.5764  15.5764  15.6716  15.6716  15.6716  15.8523  15.8523  15.8523
    15.8555  15.8555  15.8555  16.0211  16.2361  16.2361  16.4170  16.4170
    16.4171  16.5337  16.5337  16.5761  16.5761  16.5761  16.6001  16.6002
    16.6002  16.7501  16.7501  16.7502  16.7717  16.7717  16.7717  16.8145
    16.8145  16.8145  16.9639  16.9639  17.0608  17.0608  17.0608  17.5139
    19.4726  19.4726  19.4726  19.6377  19.6377  19.6378  19.6632  19.6632
    19.7012  19.7232  19.7232  19.7232  19.7653  19.7653  19.7654  19.7845
    19.7845  19.8857  19.8858  19.8858  19.9089  19.9089

          k = 0.3823 0.3823-0.4916 ( 13170 PWs)   bands (ev):

   -53.6670 -53.6669 -53.6603 -53.6603 -53.6602 -53.6602 -53.6547 -53.6546
   -52.5116 -52.5113 -52.5091 -52.5091 -52.5088 -52.5088 -52.5055 -52.5052
   -25.0793 -25.0793 -25.0792 -25.0792 -25.0695 -25.0693 -25.0614 -25.0613
   -25.0547 -25.0544 -25.0324 -25.0324 -25.0322 -25.0321 -25.0223 -25.0219
   -25.0153 -25.0152 -24.9983 -24.9983 -24.9982 -24.9982 -24.9923 -24.9923
   -23.8510 -23.8509 -23.8508 -23.8508 -23.8485 -23.8483 -23.8480 -23.8479
   -23.8326 -23.8323 -23.8238 -23.8236 -23.8178 -23.8177 -23.8177 -23.8176
   -23.8006 -23.8006 -23.8006 -23.8005 -23.7999 -23.7996 -23.7904 -23.7903
    13.3406  13.3409  14.0992  14.0992  14.0994  14.0994  14.7891  14.7893
    15.7064  15.7065  15.7723  15.7725  15.7867  15.7867  15.7869  15.7869
    15.9527  15.9529  16.1741  16.1741  16.1743  16.1743  16.3232  16.3232
    16.3258  16.3259  16.5558  16.5559  16.5694  16.5695  16.6197  16.6197
    16.6198  16.6199  16.7098  16.7098  16.7098  16.7098  16.8157  16.8157
    16.8158  16.8158  16.8527  16.8528  16.8598  16.8599  17.2188  17.2188
    19.5744  19.5746  19.6058  19.6058  19.6060  19.6060  19.7261  19.7263
    19.7560  19.7560  19.7560  19.7560  19.7938  19.7940  19.8487  19.8487
    19.8864  19.8864  19.8865  19.8866  19.9318  19.9320

          k = 0.3823-0.4916-0.4916 ( 13156 PWs)   bands (ev):

   -53.6638 -53.6637 -53.6635 -53.6634 -53.6577 -53.6575 -53.6573 -53.6572
   -52.5104 -52.5103 -52.5101 -52.5100 -52.5074 -52.5073 -52.5071 -52.5069
   -25.0694 -25.0694 -25.0693 -25.0692 -25.0593 -25.0593 -25.0593 -25.0591
   -25.0378 -25.0378 -25.0377 -25.0376 -25.0248 -25.0248 -25.0248 -25.0248
   -25.0247 -25.0247 -25.0247 -25.0246 -25.0020 -25.0019 -25.0019 -25.0019
   -23.8460 -23.8460 -23.8459 -23.8459 -23.8414 -23.8413 -23.8411 -23.8410
   -23.8312 -23.8312 -23.8312 -23.8312 -23.8142 -23.8141 -23.8141 -23.8141
   -23.8057 -23.8056 -23.8054 -23.8053 -23.8019 -23.8018 -23.8018 -23.8018
    13.7084  13.7085  13.7087  13.7088  14.4497  14.4498  14.4499  14.4500
    15.7828  15.7829  15.7830  15.7830  16.0026  16.0026  16.0028  16.0028
    16.0971  16.0972  16.0973  16.0973  16.0998  16.0999  16.1000  16.1001
    16.4833  16.4834  16.4834  16.4835  16.5322  16.5323  16.5323  16.5324
    16.6279  16.6280  16.6281  16.6281  16.7173  16.7173  16.7173  16.7173
    16.7697  16.7698  16.7698  16.7698  16.9216  16.9216  16.9217  16.9217
    19.6428  19.6429  19.6430  19.6431  19.7019  19.7020  19.7021  19.7021
    19.7983  19.7984  19.7985  19.7986  19.8547  19.8548  19.8549  19.8549
    19.9151  19.9152  19.9153  19.9153  19.9573  19.9573

          k =-0.4916-0.4916-0.4916 ( 13264 PWs)   bands (ev):

   -53.6609 -53.6608 -53.6606 -53.6606 -53.6604 -53.6604 -53.6603 -53.6602
   -52.5090 -52.5088 -52.5088 -52.5087 -52.5087 -52.5085 -52.5085 -52.5084
   -25.0426 -25.0425 -25.0425 -25.0425 -25.0425 -25.0425 -25.0424 -25.0424
   -25.0423 -25.0423 -25.0423 -25.0423 -25.0423 -25.0423 -25.0422 -25.0421
   -25.0251 -25.0250 -25.0250 -25.0250 -25.0250 -25.0249 -25.0249 -25.0247
   -23.8373 -23.8373 -23.8372 -23.8372 -23.8372 -23.8371 -23.8371 -23.8371
   -23.8166 -23.8166 -23.8166 -23.8166 -23.8165 -23.8165 -23.8165 -23.8164
   -23.8164 -23.8164 -23.8163 -23.8163 -23.8163 -23.8163 -23.8162 -23.8162
    14.0732  14.0733  14.0733  14.0734  14.0735  14.0736  14.0736  14.0737
    16.0528  16.0528  16.0528  16.0529  16.0529  16.0529  16.0529  16.0529
    16.0530  16.0530  16.0530  16.0531  16.0531  16.0531  16.0531  16.0531
    16.5993  16.5994  16.5994  16.5994  16.5994  16.5994  16.5994  16.5994
    16.6220  16.6220  16.6221  16.6221  16.6221  16.6221  16.6221  16.6221
    16.6222  16.6222  16.6222  16.6222  16.6222  16.6222  16.6222  16.6222
    19.7572  19.7572  19.7572  19.7572  19.7573  19.7573  19.7573  19.7573
    19.7574  19.7574  19.7574  19.7574  19.7574  19.7575  19.7575  19.7575
    20.1480  20.1480  20.1481  20.1481  20.1481  20.1481

 ------ SPIN DOWN ----------


          k = 0.0546 0.0546 0.0546 ( 13202 PWs)   bands (ev):

   -53.6955 -53.6650 -53.6650 -53.6650 -53.6514 -53.6514 -53.6514 -53.6385
   -52.5180 -52.5180 -52.5180 -52.5121 -52.5041 -52.5041 -52.5041 -52.4907
   -25.1839 -25.1839 -25.1839 -25.1816 -25.1816 -25.1816 -25.0790 -25.0790
   -25.0788 -25.0549 -25.0519 -25.0519 -25.0007 -25.0007 -24.9971 -24.9305
   -24.9305 -24.9304 -24.9282 -24.9282 -24.9282 -24.9143 -24.9143 -24.9142
   -23.9500 -23.9500 -23.9500 -23.9241 -23.9241 -23.9208 -23.8090 -23.8090
   -23.8090 -23.8064 -23.8064 -23.8064 -23.7961 -23.7961 -23.7961 -23.7941
   -23.7941 -23.7941 -23.7822 -23.7822 -23.7822 -23.7451 -23.7405 -23.7405
    10.8451  14.2714  14.2714  14.2715  14.3887  14.3887  14.3887  14.4064
    14.4064  14.4064  14.5192  14.5192  14.9066  14.9066  14.9066  15.9634
    16.0080  16.0080  16.2431  16.2431  16.2431  16.2574  16.2574  16.2574
    16.4707  16.4707  16.4707  16.7243  16.7243  16.7244  17.2711  17.2712
    17.2712  17.6531  17.6531  17.6973  17.6973  17.6973  17.7011  17.8333
    17.8334  17.8334  18.4217  18.4217  18.4217  18.7929  18.7929  18.7929
    19.0440  19.0440  19.0440  19.1153  19.1153  19.1153  19.3582  19.3582
    19.3582  19.6329  19.6329  19.6329  19.6381  19.6381  19.7388  19.7388
    19.8417  19.8417  19.8418  19.8429  19.8429  19.8429

          k = 0.0546 0.0546 0.1639 ( 13211 PWs)   bands (ev):

   -53.6937 -53.6669 -53.6642 -53.6642 -53.6523 -53.6523 -53.6507 -53.6393
   -52.5176 -52.5172 -52.5172 -52.5124 -52.5050 -52.5050 -52.5033 -52.4915
   -25.1777 -25.1776 -25.1766 -25.1746 -25.1678 -25.1678 -25.0852 -25.0851
   -25.0745 -25.0631 -25.0606 -25.0438 -25.0063 -24.9964 -24.9919 -24.9471
   -24.9471 -24.9345 -24.9327 -24.9279 -24.9278 -24.9228 -24.9152 -24.9151
   -23.9396 -23.9396 -23.9377 -23.9189 -23.9161 -23.9100 -23.8166 -23.8166
   -23.8159 -23.8129 -23.8059 -23.8058 -23.7981 -23.7981 -23.7926 -23.7922
   -23.7922 -23.7907 -23.7904 -23.7828 -23.7828 -23.7577 -23.7438 -23.7433
    10.9756  13.8479  14.3132  14.3132  14.3665  14.4392  14.4392  14.4531
    14.4531  14.5191  14.5852  14.5902  14.9339  14.9339  15.1657  15.8607
    16.0019  16.0047  16.1604  16.2203  16.2332  16.2954  16.2954  16.3395
    16.3395  16.4541  16.4542  16.5465  16.8300  16.8403  17.0873  17.0873
    17.4884  17.5691  17.5691  17.6234  17.6427  17.6589  17.7614  17.9225
    18.0553  18.0553  18.1230  18.1231  18.4456  18.5708  18.5708  18.8654
    18.8654  18.9090  18.9274  18.9436  18.9436  19.0347  19.0401  19.4166
    19.4166  19.5660  19.5660  19.6111  19.6357  19.6519  19.6540  19.7305
    19.7734  19.7750  19.7751  19.8734  20.0548  20.0716

          k = 0.0546 0.0546 0.2731 ( 13214 PWs)   bands (ev):

   -53.6903 -53.6704 -53.6627 -53.6627 -53.6538 -53.6538 -53.6492 -53.6407
   -52.5169 -52.5156 -52.5156 -52.5130 -52.5066 -52.5065 -52.5018 -52.4931
   -25.1656 -25.1655 -25.1626 -25.1612 -25.1416 -25.1416 -25.0969 -25.0968
   -25.0786 -25.0767 -25.0660 -25.0283 -25.0156 -24.9885 -24.9844 -24.9783
   -24.9783 -24.9420 -24.9413 -24.9386 -24.9263 -24.9262 -24.9169 -24.9168
   -23.9209 -23.9209 -23.9146 -23.9063 -23.9016 -23.8930 -23.8303 -23.8303
   -23.8287 -23.8251 -23.8056 -23.8055 -23.8054 -23.8001 -23.8000 -23.7902
   -23.7902 -23.7860 -23.7843 -23.7838 -23.7838 -23.7810 -23.7498 -23.7490
    11.2322  13.2396  14.3870  14.3871  14.5107  14.5107  14.5426  14.5426
    14.5481  14.7159  14.7221  14.7372  14.9495  14.9495  15.2626  15.6637
    15.8004  15.9916  16.0111  16.1794  16.1899  16.2424  16.4103  16.4103
    16.4808  16.4808  16.4881  16.4881  16.9853  16.9853  17.0367  17.0543
    17.3518  17.3518  17.5739  17.5979  17.6132  17.6252  17.6674  17.6674
    17.8500  17.9744  17.9744  18.2076  18.3794  18.3794  18.3933  18.4757
    18.4758  18.5371  18.5826  18.9914  18.9914  19.1473  19.1684  19.4775
    19.4775  19.4819  19.6233  19.6316  19.6438  19.6438  19.6586  19.6713
    19.8095  19.8095  19.8396  19.9368  20.2454  20.3039

          k = 0.0546 0.0546 0.3823 ( 13188 PWs)   bands (ev):

   -53.6856 -53.6751 -53.6606 -53.6606 -53.6559 -53.6559 -53.6472 -53.6427
   -52.5160 -52.5140 -52.5135 -52.5134 -52.5087 -52.5086 -52.4998 -52.4951
   -25.1495 -25.1494 -25.1435 -25.1426 -25.1128 -25.1127 -25.1054 -25.1054
   -25.0988 -25.0978 -25.0546 -25.0277 -25.0188 -25.0188 -25.0073 -24.9778
   -24.9745 -24.9595 -24.9526 -24.9520 -24.9241 -24.9240 -24.9191 -24.9190
   -23.8973 -23.8973 -23.8881 -23.8835 -23.8828 -23.8716 -23.8494 -23.8494
   -23.8465 -23.8420 -23.8255 -23.8123 -23.8046 -23.8045 -23.8018 -23.8017
   -23.7884 -23.7884 -23.7851 -23.7851 -23.7772 -23.7757 -23.7580 -23.7569
    11.6055  12.6356  14.4727  14.4727  14.5551  14.5551  14.6645  14.6645
    14.7987  14.8939  14.9053  14.9053  14.9085  15.0451  15.2140  15.3941
    15.4595  15.8091  16.0356  16.0574  16.1283  16.1367  16.5804  16.5804
    16.6305  16.6305  16.6985  16.6985  16.9750  16.9750  17.1862  17.1862
    17.3091  17.3091  17.3300  17.3478  17.4180  17.4180  17.5789  17.5822
    17.5850  17.6063  17.8399  17.8399  17.9674  18.1129  18.1195  18.2612
    18.5738  18.8210  18.8211  19.1401  19.1401  19.2365  19.3485  19.3485
    19.4019  19.4645  19.4645  19.4844  19.6274  19.6323  19.6458  19.6765
    19.9318  20.0280  20.1021  20.1675  20.1682  20.1683

          k = 0.0546 0.0546-0.4916 ( 13184 PWs)   bands (ev):

   -53.6805 -53.6802 -53.6584 -53.6584 -53.6581 -53.6581 -53.6451 -53.6448
   -52.5150 -52.5149 -52.5111 -52.5111 -52.5111 -52.5110 -52.4975 -52.4974
   -25.1312 -25.1311 -25.1309 -25.1308 -25.1212 -25.1212 -25.1209 -25.1209
   -25.0630 -25.0630 -25.0627 -25.0627 -25.0415 -25.0412 -24.9836 -24.9833
   -24.9655 -24.9652 -24.9635 -24.9632 -24.9217 -24.9216 -24.9213 -24.9212
   -23.8726 -23.8726 -23.8724 -23.8724 -23.8673 -23.8672 -23.8622 -23.8620
   -23.8485 -23.8483 -23.8482 -23.8478 -23.8034 -23.8033 -23.8031 -23.8030
   -23.7867 -23.7867 -23.7865 -23.7865 -23.7677 -23.7674 -23.7664 -23.7662
    12.0804  12.0806  14.5395  14.5395  14.5396  14.5396  14.7976  14.7976
    14.7977  14.7977  15.0727  15.0729  15.0921  15.0924  15.1585  15.1588
    15.4171  15.4173  16.0769  16.0772  16.0856  16.0858  16.7905  16.7905
    16.7907  16.7907  16.9014  16.9014  16.9015  16.9015  17.0252  17.0252
    17.0252  17.0252  17.4074  17.4074  17.4076  17.4076  17.5716  17.5718
    17.5918  17.5921  17.6954  17.6955  17.7063  17.7064  18.1087  18.1089
    18.9277  18.9278  19.1262  19.1263  19.1264  19.1264  19.2939  19.2939
    19.2940  19.2940  19.6258  19.6261  19.6663  19.6666  19.7362  19.7363
    19.8478  19.8479  20.0432  20.0434  20.1408  20.1411

          k = 0.0546 0.1639 0.1639 ( 13195 PWs)   bands (ev):

   -53.6919 -53.6660 -53.6660 -53.6634 -53.6531 -53.6515 -53.6515 -53.6401
   -52.5169 -52.5168 -52.5163 -52.5127 -52.5057 -52.5042 -52.5042 -52.4924
   -25.1724 -25.1709 -25.1709 -25.1613 -25.1613 -25.1535 -25.0904 -25.0808
   -25.0807 -25.0702 -25.0598 -25.0445 -25.0112 -24.9955 -24.9859 -24.9543
   -24.9494 -24.9494 -24.9356 -24.9322 -24.9322 -24.9239 -24.9238 -24.9162
   -23.9304 -23.9292 -23.9292 -23.9164 -23.9098 -23.8974 -23.8249 -23.8227
[...]
    19.4769  19.4771  19.4850  19.4852  19.6083  19.6085  19.6734  19.6734
    19.8215  19.8217  19.8600  19.8603  19.8658  19.8659

          k = 0.1639-0.4916-0.4916 ( 13200 PWs)   bands (ev):

   -53.6685 -53.6684 -53.6682 -53.6680 -53.6529 -53.6528 -53.6526 -53.6525
   -52.5126 -52.5125 -52.5124 -52.5124 -52.5049 -52.5049 -52.5047 -52.5047
   -25.1140 -25.1139 -25.1137 -25.1136 -25.0849 -25.0849 -25.0848 -25.0848
   -25.0540 -25.0540 -25.0539 -25.0539 -25.0093 -25.0093 -25.0092 -25.0092
   -24.9968 -24.9968 -24.9967 -24.9967 -24.9552 -24.9550 -24.9548 -24.9547
   -23.8660 -23.8660 -23.8660 -23.8659 -23.8602 -23.8602 -23.8600 -23.8599
   -23.8549 -23.8549 -23.8549 -23.8548 -23.7987 -23.7987 -23.7987 -23.7986
   -23.7834 -23.7834 -23.7832 -23.7831 -23.7804 -23.7804 -23.7804 -23.7803
    13.1818  13.1818  13.1820  13.1821  15.0288  15.0289  15.0290  15.0290
    15.3416  15.3416  15.3418  15.3418  15.6568  15.6568  15.6569  15.6569
    15.9222  15.9223  15.9224  15.9225  16.1580  16.1580  16.1581  16.1581
    16.4103  16.4104  16.4104  16.4105  16.6246  16.6247  16.6248  16.6249
    16.8723  16.8723  16.8724  16.8724  17.1156  17.1157  17.1158  17.1158
    17.1653  17.1654  17.1654  17.1655  17.6460  17.6460  17.6461  17.6461
    19.3568  19.3568  19.3569  19.3569  19.5080  19.5080  19.5081  19.5081
    19.5563  19.5564  19.5565  19.5565  19.6736  19.6737  19.6738  19.6739
    19.7423  19.7423  19.7423  19.7423  19.8429  19.8430

          k = 0.2731 0.2731 0.2731 ( 13193 PWs)   bands (ev):

   -53.6812 -53.6647 -53.6647 -53.6647 -53.6543 -53.6543 -53.6543 -53.6454
   -52.5135 -52.5132 -52.5132 -52.5131 -52.5061 -52.5061 -52.5061 -52.4977
   -25.1316 -25.1315 -25.1315 -25.0999 -25.0999 -25.0998 -25.0910 -25.0910
   -25.0909 -25.0855 -25.0530 -25.0530 -25.0179 -25.0179 -24.9829 -24.9829
   -24.9828 -24.9647 -24.9646 -24.9646 -24.9643 -24.9502 -24.9502 -24.9500
   -23.8858 -23.8858 -23.8857 -23.8819 -23.8819 -23.8549 -23.8549 -23.8549
   -23.8471 -23.8248 -23.8131 -23.8130 -23.8130 -23.8065 -23.8065 -23.8065
   -23.7986 -23.7986 -23.7986 -23.7777 -23.7777 -23.7777 -23.7641 -23.7641
    11.9607  13.7355  13.7355  13.7355  14.5100  14.5100  14.5101  15.0969
    15.0969  15.1079  15.1079  15.1079  15.5519  15.5519  15.5519  15.6171
    15.8952  15.8952  15.8952  16.0883  16.0883  16.1950  16.3774  16.3774
    16.3774  16.5783  16.5783  16.5783  16.7061  16.7061  16.9123  16.9123
    16.9123  17.1247  17.1247  17.1248  17.2259  17.2259  17.2259  17.3000
    17.3000  17.4305  17.4305  17.4305  17.5534  17.5534  17.5534  18.2393
    18.9843  18.9844  18.9844  19.3257  19.3872  19.3872  19.3872  19.4499
    19.4499  19.4499  19.6317  19.6317  19.7063  19.7063  19.7063  19.7156
    19.7156  19.8314  19.8315  19.8315  19.9382  19.9382

          k = 0.2731 0.2731 0.3823 ( 13178 PWs)   bands (ev):

   -53.6773 -53.6686 -53.6623 -53.6623 -53.6567 -53.6567 -53.6522 -53.6475
   -52.5133 -52.5132 -52.5116 -52.5115 -52.5078 -52.5077 -52.5041 -52.4996
   -25.1194 -25.1194 -25.1140 -25.0982 -25.0982 -25.0956 -25.0872 -25.0757
   -25.0734 -25.0733 -25.0722 -25.0375 -25.0308 -25.0085 -25.0084 -25.0058
   -24.9775 -24.9760 -24.9753 -24.9661 -24.9660 -24.9654 -24.9560 -24.9559
   -23.8758 -23.8748 -23.8748 -23.8714 -23.8650 -23.8609 -23.8593 -23.8593
   -23.8385 -23.8357 -23.8284 -23.8132 -23.8132 -23.8131 -23.8131 -23.8103
   -23.7963 -23.7940 -23.7940 -23.7805 -23.7805 -23.7753 -23.7737 -23.7684
    12.3024  13.2191  13.9557  13.9557  14.3737  14.3737  14.8185  15.2457
    15.2715  15.2715  15.2788  15.3622  15.4960  15.5584  15.5584  15.5695
    15.6553  15.8984  16.0540  16.0540  16.1486  16.2044  16.3030  16.4117
    16.4693  16.4693  16.6295  16.6751  16.6751  16.7661  16.7662  16.8374
    16.9091  16.9091  17.0083  17.0083  17.0301  17.0806  17.1061  17.1148
    17.1808  17.1900  17.1900  17.2244  17.2977  17.2977  17.6841  18.1193
    19.1618  19.1924  19.1925  19.2953  19.4109  19.4109  19.4266  19.4266
    19.5018  19.5677  19.6021  19.6021  19.6442  19.6481  19.7011  19.7475
    19.7675  19.8114  19.8968  19.9587  19.9587  19.9808

          k = 0.2731 0.2731-0.4916 ( 13152 PWs)   bands (ev):

   -53.6731 -53.6728 -53.6597 -53.6597 -53.6594 -53.6594 -53.6500 -53.6497
   -52.5133 -52.5133 -52.5097 -52.5097 -52.5097 -52.5096 -52.5019 -52.5019
   -25.1081 -25.1080 -25.1079 -25.1078 -25.0935 -25.0932 -25.0911 -25.0909
   -25.0575 -25.0573 -25.0413 -25.0413 -25.0411 -25.0411 -25.0036 -25.0033
   -24.9919 -24.9916 -24.9698 -24.9695 -24.9618 -24.9617 -24.9615 -24.9614
   -23.8683 -23.8683 -23.8655 -23.8655 -23.8653 -23.8653 -23.8550 -23.8548
   -23.8464 -23.8462 -23.8233 -23.8231 -23.8153 -23.8153 -23.8153 -23.8153
   -23.7863 -23.7863 -23.7863 -23.7863 -23.7850 -23.7848 -23.7722 -23.7721
    12.7303  12.7305  14.1827  14.1827  14.1829  14.1829  15.1769  15.1772
    15.4339  15.4339  15.4340  15.4340  15.4347  15.4350  15.4571  15.4573
    15.6449  15.6450  16.2230  16.2232  16.2719  16.2721  16.3628  16.3628
    16.3630  16.3631  16.6334  16.6334  16.6335  16.6335  16.8118  16.8120
    16.9443  16.9443  16.9444  16.9444  16.9799  16.9801  17.1022  17.1023
    17.1202  17.1202  17.1203  17.1203  17.1334  17.1336  17.8939  17.8940
    19.3407  19.3409  19.3680  19.3680  19.3681  19.3681  19.4362  19.4362
    19.4585  19.4585  19.4586  19.4586  19.6518  19.6520  19.8338  19.8340
    19.8802  19.8805  19.9610  19.9611  19.9637  19.9639

          k = 0.2731 0.3823 0.3823 ( 13182 PWs)   bands (ev):

   -53.6738 -53.6658 -53.6658 -53.6600 -53.6595 -53.6546 -53.6546 -53.6497
   -52.5129 -52.5120 -52.5119 -52.5098 -52.5090 -52.5059 -52.5058 -52.5015
   -25.1055 -25.1055 -25.1046 -25.0982 -25.0856 -25.0814 -25.0813 -25.0715
   -25.0715 -25.0635 -25.0536 -25.0440 -25.0322 -25.0163 -25.0093 -25.0018
   -25.0017 -24.9852 -24.9823 -24.9822 -24.9746 -24.9746 -24.9702 -24.9630
   -23.8653 -23.8652 -23.8648 -23.8645 -23.8601 -23.8586 -23.8585 -23.8576
   -23.8451 -23.8286 -23.8286 -23.8281 -23.8244 -23.8046 -23.8045 -23.8023
   -23.8020 -23.8020 -23.7983 -23.7858 -23.7808 -23.7808 -23.7801 -23.7762
    12.6295  13.4883  13.4883  14.1045  14.2058  14.6836  14.6836  15.3664
    15.3695  15.4107  15.4710  15.5222  15.5222  15.5818  15.5818  15.7543
    15.8823  15.8823  15.8960  16.0039  16.1592  16.2781  16.3631  16.3631
    16.4822  16.4822  16.4951  16.4969  16.6268  16.6398  16.7770  16.7770
    16.7843  16.8426  16.8591  16.8591  16.8677  16.9729  16.9729  16.9853
    16.9853  17.0272  17.0542  17.0967  17.1222  17.3744  17.3744  17.8532
    19.3317  19.3318  19.3671  19.4460  19.4460  19.5445  19.5461  19.5722
    19.5722  19.6017  19.6265  19.6266  19.7085  19.7085  19.7108  19.7324
    19.8027  19.9018  19.9019  19.9020  19.9249  19.9250

          k = 0.2731 0.3823-0.4916 ( 13172 PWs)   bands (ev):

   -53.6700 -53.6697 -53.6628 -53.6625 -53.6574 -53.6571 -53.6523 -53.6520
   -52.5124 -52.5124 -52.5105 -52.5105 -52.5078 -52.5078 -52.5037 -52.5037
   -25.1007 -25.1004 -25.0925 -25.0922 -25.0912 -25.0910 -25.0677 -25.0675
   -25.0619 -25.0618 -25.0416 -25.0414 -25.0288 -25.0286 -25.0109 -25.0107
   -25.0030 -25.0028 -24.9879 -24.9877 -24.9758 -24.9755 -24.9699 -24.9696
   -23.8614 -23.8614 -23.8593 -23.8592 -23.8581 -23.8580 -23.8546 -23.8545
   -23.8447 -23.8445 -23.8306 -23.8306 -23.8170 -23.8169 -23.8033 -23.8033
   -23.7945 -23.7945 -23.7904 -23.7901 -23.7895 -23.7894 -23.7800 -23.7799
    13.0342  13.0344  13.7971  13.7973  14.4679  14.4681  15.0428  15.0431
    15.4930  15.4932  15.5174  15.5176  15.6866  15.6867  15.6879  15.6881
    15.7778  15.7779  16.2028  16.2030  16.2191  16.2193  16.2290  16.2292
    16.3546  16.3548  16.5374  16.5375  16.5753  16.5754  16.7038  16.7038
    16.7145  16.7147  16.8508  16.8511  16.9442  16.9443  16.9472  16.9473
    16.9701  16.9702  17.0359  17.0360  17.1051  17.1051  17.5750  17.5751
    19.4618  19.4619  19.4802  19.4803  19.5395  19.5396  19.5497  19.5498
    19.5890  19.5890  19.6653  19.6655  19.6832  19.6833  19.8330  19.8333
    19.8515  19.8517  19.8975  19.8977  19.9063  19.9065

          k = 0.2731-0.4916-0.4916 ( 13164 PWs)   bands (ev):

   -53.6665 -53.6664 -53.6662 -53.6660 -53.6549 -53.6548 -53.6546 -53.6545
   -52.5116 -52.5115 -52.5114 -52.5114 -52.5059 -52.5058 -52.5057 -52.5057
   -25.0951 -25.0949 -25.0948 -25.0946 -25.0741 -25.0741 -25.0740 -25.0740
   -25.0471 -25.0471 -25.0470 -25.0470 -25.0153 -25.0153 -25.0152 -25.0152
   -25.0089 -25.0089 -25.0088 -25.0088 -24.9758 -24.9757 -24.9755 -24.9753
   -23.8569 -23.8569 -23.8569 -23.8568 -23.8518 -23.8518 -23.8516 -23.8515
   -23.8446 -23.8446 -23.8446 -23.8445 -23.8056 -23.8056 -23.8056 -23.8055
   -23.7931 -23.7931 -23.7929 -23.7928 -23.7895 -23.7895 -23.7894 -23.7893
    13.4012  13.4013  13.4014  13.4015  14.7809  14.7810  14.7811  14.7812
    15.5283  15.5283  15.5284  15.5285  15.8753  15.8754  15.8754  15.8755
    15.9568  15.9569  15.9570  15.9571  16.1363  16.1364  16.1365  16.1365
    16.4591  16.4591  16.4592  16.4592  16.5237  16.5238  16.5239  16.5240
    16.8049  16.8049  16.8050  16.8050  16.8706  16.8707  16.8708  16.8708
    16.9688  16.9688  16.9689  16.9689  17.2891  17.2891  17.2891  17.2892
    19.5321  19.5321  19.5322  19.5323  19.6306  19.6306  19.6307  19.6308
    19.7056  19.7056  19.7057  19.7057  19.7574  19.7575  19.7576  19.7576
    19.8263  19.8264  19.8265  19.8266  19.9004  19.9005

          k = 0.3823 0.3823 0.3823 ( 13184 PWs)   bands (ev):

   -53.6706 -53.6632 -53.6632 -53.6632 -53.6572 -53.6572 -53.6572 -53.6520
   -52.5122 -52.5105 -52.5105 -52.5105 -52.5073 -52.5073 -52.5073 -52.5033
   -25.0884 -25.0883 -25.0883 -25.0781 -25.0781 -25.0780 -25.0685 -25.0569
   -25.0569 -25.0568 -25.0498 -25.0498 -25.0307 -25.0307 -25.0049 -25.0049
   -25.0048 -24.9995 -24.9995 -24.9995 -24.9911 -24.9911 -24.9910 -24.9802
   -23.8558 -23.8558 -23.8558 -23.8537 -23.8537 -23.8537 -23.8491 -23.8491
   -23.8443 -23.8301 -23.8162 -23.8162 -23.8162 -23.8128 -23.8128 -23.8128
   -23.8110 -23.8110 -23.8110 -23.7891 -23.7891 -23.7891 -23.7871 -23.7871
    12.9491  13.7726  13.7726  13.7726  14.4192  14.4192  14.4192  15.1460
    15.5764  15.5764  15.6716  15.6716  15.6716  15.8523  15.8524  15.8524
    15.8555  15.8555  15.8555  16.0211  16.2361  16.2361  16.4170  16.4171
    16.4171  16.5338  16.5338  16.5761  16.5761  16.5762  16.6002  16.6002
    16.6002  16.7502  16.7502  16.7502  16.7717  16.7717  16.7718  16.8145
    16.8145  16.8146  16.9639  16.9639  17.0608  17.0608  17.0608  17.5139
    19.4726  19.4727  19.4727  19.6378  19.6378  19.6378  19.6632  19.6632
    19.7013  19.7233  19.7233  19.7233  19.7654  19.7654  19.7654  19.7845
    19.7845  19.8858  19.8858  19.8858  19.9090  19.9090

          k = 0.3823 0.3823-0.4916 ( 13170 PWs)   bands (ev):

   -53.6671 -53.6667 -53.6604 -53.6604 -53.6601 -53.6601 -53.6548 -53.6544
   -52.5114 -52.5113 -52.5089 -52.5089 -52.5089 -52.5089 -52.5053 -52.5053
   -25.0793 -25.0792 -25.0791 -25.0790 -25.0695 -25.0692 -25.0614 -25.0611
   -25.0546 -25.0544 -25.0323 -25.0323 -25.0321 -25.0321 -25.0222 -25.0219
   -25.0154 -25.0151 -24.9984 -24.9983 -24.9981 -24.9980 -24.9923 -24.9922
   -23.8509 -23.8508 -23.8508 -23.8508 -23.8484 -23.8482 -23.8480 -23.8478
   -23.8325 -23.8323 -23.8238 -23.8235 -23.8177 -23.8176 -23.8176 -23.8176
   -23.8005 -23.8005 -23.8005 -23.8005 -23.7998 -23.7995 -23.7903 -23.7903
    13.3406  13.3409  14.0992  14.0992  14.0994  14.0994  14.7891  14.7893
    15.7064  15.7066  15.7723  15.7725  15.7868  15.7868  15.7869  15.7869
    15.9527  15.9529  16.1741  16.1742  16.1743  16.1744  16.3232  16.3233
    16.3258  16.3260  16.5558  16.5560  16.5694  16.5696  16.6198  16.6198
    16.6199  16.6199  16.7098  16.7098  16.7099  16.7099  16.8157  16.8158
    16.8158  16.8158  16.8528  16.8528  16.8598  16.8600  17.2188  17.2188
    19.5745  19.5746  19.6058  19.6059  19.6060  19.6060  19.7262  19.7263
    19.7560  19.7560  19.7561  19.7561  19.7939  19.7941  19.8487  19.8489
    19.8864  19.8864  19.8866  19.8866  19.9318  19.9320

          k = 0.3823-0.4916-0.4916 ( 13156 PWs)   bands (ev):

   -53.6638 -53.6637 -53.6635 -53.6633 -53.6576 -53.6575 -53.6573 -53.6572
   -52.5102 -52.5102 -52.5100 -52.5100 -52.5072 -52.5072 -52.5070 -52.5070
   -25.0695 -25.0694 -25.0692 -25.0691 -25.0593 -25.0593 -25.0592 -25.0592
   -25.0377 -25.0377 -25.0376 -25.0376 -25.0248 -25.0248 -25.0247 -25.0247
   -25.0247 -25.0247 -25.0246 -25.0246 -25.0021 -25.0020 -25.0018 -25.0017
   -23.8459 -23.8459 -23.8459 -23.8458 -23.8413 -23.8413 -23.8411 -23.8410
   -23.8312 -23.8312 -23.8312 -23.8310 -23.8141 -23.8141 -23.8140 -23.8140
   -23.8056 -23.8056 -23.8054 -23.8053 -23.8018 -23.8018 -23.8018 -23.8017
    13.7085  13.7086  13.7087  13.7088  14.4497  14.4498  14.4499  14.4500
    15.7828  15.7829  15.7830  15.7831  16.0026  16.0027  16.0028  16.0029
    16.0971  16.0972  16.0973  16.0973  16.0999  16.0999  16.1000  16.1001
    16.4833  16.4834  16.4835  16.4836  16.5323  16.5323  16.5324  16.5324
    16.6280  16.6280  16.6281  16.6282  16.7173  16.7173  16.7174  16.7174
    16.7698  16.7698  16.7698  16.7699  16.9217  16.9217  16.9217  16.9217
    19.6429  19.6430  19.6430  19.6431  19.7019  19.7020  19.7021  19.7022
    19.7984  19.7984  19.7986  19.7986  19.8547  19.8548  19.8549  19.8550
    19.9152  19.9153  19.9153  19.9153  19.9574  19.9574

          k =-0.4916-0.4916-0.4916 ( 13264 PWs)   bands (ev):

   -53.6608 -53.6607 -53.6607 -53.6605 -53.6605 -53.6603 -53.6603 -53.6602
   -52.5088 -52.5087 -52.5086 -52.5086 -52.5086 -52.5086 -52.5084 -52.5084
   -25.0426 -25.0426 -25.0425 -25.0425 -25.0425 -25.0424 -25.0424 -25.0424
   -25.0423 -25.0423 -25.0422 -25.0422 -25.0422 -25.0422 -25.0421 -25.0421
   -25.0250 -25.0250 -25.0250 -25.0249 -25.0249 -25.0249 -25.0248 -25.0248
   -23.8372 -23.8372 -23.8372 -23.8371 -23.8371 -23.8371 -23.8370 -23.8370
   -23.8166 -23.8165 -23.8165 -23.8165 -23.8165 -23.8165 -23.8163 -23.8163
   -23.8163 -23.8163 -23.8163 -23.8162 -23.8162 -23.8162 -23.8162 -23.8162
    14.0733  14.0734  14.0734  14.0734  14.0735  14.0736  14.0736  14.0737
    16.0528  16.0528  16.0529  16.0529  16.0529  16.0529  16.0530  16.0530
    16.0530  16.0530  16.0531  16.0531  16.0531  16.0531  16.0531  16.0532
    16.5994  16.5994  16.5994  16.5994  16.5994  16.5994  16.5994  16.5995
    16.6221  16.6221  16.6221  16.6221  16.6221  16.6221  16.6221  16.6222
    16.6222  16.6222  16.6223  16.6223  16.6223  16.6223  16.6223  16.6223
    19.7572  19.7572  19.7573  19.7573  19.7573  19.7573  19.7574  19.7574
    19.7574  19.7574  19.7575  19.7575  19.7575  19.7575  19.7575  19.7576
    20.1480  20.1481  20.1481  20.1481  20.1481  20.1481

     the Fermi energy is    18.4422 ev

!    total energy              =   -3971.53476968 Ry
     Harris-Foulkes estimate   =   -3971.53476439 Ry
     estimated scf accuracy    <       0.00000008 Ry

     total all-electron energy =    -33628.057649 Ry

     The total energy is the sum of the following terms:

     one-electron contribution =    -936.03177984 Ry
     hartree contribution      =     597.39737195 Ry
     xc contribution           =    -356.41826055 Ry
     ewald contribution        =   -2088.62866642 Ry
     one-center paw contrib.   =   -1187.91693773 Ry
     smearing contrib. (-TS)   =       0.06350290 Ry

     total magnetization       =     0.00 Bohr mag/cell
     absolute magnetization    =    18.38 Bohr mag/cell

     convergence has been achieved in  29 iterations

     Forces acting on atoms (cartesian axes, Ry/au):

     atom    1 type  1   force =     0.00000000    0.00000000    0.00000000
     atom    2 type  2   force =    -0.00000103   -0.00000103   -0.00000103
     atom    3 type  1   force =     0.00000000    0.00000000    0.00000000
     atom    4 type  2   force =    -0.00000103   -0.00000103    0.00000103
     atom    5 type  1   force =     0.00000000    0.00000000    0.00000000
     atom    6 type  2   force =    -0.00000103    0.00000103   -0.00000103
     atom    7 type  1   force =     0.00000000    0.00000000    0.00000000
     atom    8 type  2   force =    -0.00000103    0.00000103    0.00000103
     atom    9 type  1   force =     0.00000000    0.00000000    0.00000000
     atom   10 type  2   force =     0.00000103   -0.00000103   -0.00000103
     atom   11 type  1   force =     0.00000000    0.00000000    0.00000000
     atom   12 type  2   force =     0.00000103   -0.00000103    0.00000103
     atom   13 type  1   force =     0.00000000    0.00000000    0.00000000
     atom   14 type  2   force =     0.00000103    0.00000103   -0.00000103
     atom   15 type  1   force =     0.00000000    0.00000000    0.00000000
     atom   16 type  2   force =     0.00000103    0.00000103    0.00000103

     Total force =     0.000005     Total SCF correction =     0.000034
     SCF correction compared to forces is large: reduce conv_thr to get better values


     Computing stress (Cartesian axis) and pressure

          total   stress  (Ry/bohr**3)                   (kbar)     P=  -72.41
  -0.00049220   0.00000000   0.00000000        -72.41      0.00      0.00
   0.00000000  -0.00049220   0.00000000          0.00    -72.41      0.00
   0.00000000   0.00000000  -0.00049220          0.00      0.00    -72.41


     Writing output data file EQKDIpdYGSebayoa.save/
 
     init_run     :      7.47s CPU      7.89s WALL (       1 calls)
     electrons    :    921.71s CPU    940.79s WALL (       1 calls)
     forces       :      2.27s CPU      2.42s WALL (       1 calls)
     stress       :      9.53s CPU      9.60s WALL (       1 calls)

     Called by init_run:
     wfcinit      :      6.80s CPU      7.05s WALL (       1 calls)
     potinit      :      0.30s CPU      0.32s WALL (       1 calls)
     hinit0       :      0.17s CPU      0.27s WALL (       1 calls)

     Called by electrons:
     c_bands      :    847.13s CPU    862.70s WALL (      30 calls)
     sum_band     :     64.60s CPU     67.30s WALL (      30 calls)
     v_of_rho     :      0.81s CPU      0.88s WALL (      30 calls)
     newd         :      1.63s CPU      2.03s WALL (      30 calls)
     PAW_pot      :      7.46s CPU      7.78s WALL (      30 calls)
     mix_rho      :      0.23s CPU      0.25s WALL (      30 calls)

     Called by c_bands:
     init_us_2    :      4.91s CPU      4.98s WALL (    4410 calls)
     cegterg      :    820.64s CPU    835.98s WALL (    2100 calls)

     Called by sum_band:
     sum_band:bec :      0.68s CPU      0.69s WALL (    2100 calls)
     addusdens    :      3.45s CPU      3.85s WALL (      30 calls)

     Called by *egterg:
     h_psi        :    303.81s CPU    313.25s WALL (   10654 calls)
     s_psi        :     24.23s CPU     24.34s WALL (   10654 calls)
     g_psi        :      1.29s CPU      1.30s WALL (    8484 calls)
     cdiaghg      :    396.27s CPU    397.32s WALL (   10514 calls)

     Called by h_psi:
     h_psi:pot    :    301.67s CPU    311.08s WALL (   10654 calls)
     h_psi:calbec :     27.54s CPU     30.27s WALL (   10654 calls)
     vloc_psi     :    248.82s CPU    255.39s WALL (   10654 calls)
     add_vuspsi   :     25.23s CPU     25.36s WALL (   10654 calls)

     General routines
     calbec       :     38.69s CPU     42.54s WALL (   13104 calls)
     fft          :      0.64s CPU      0.81s WALL (     792 calls)
     ffts         :      0.06s CPU      0.06s WALL (     120 calls)
     fftw         :    275.89s CPU    283.18s WALL ( 1824950 calls)
     interpolate  :      0.08s CPU      0.09s WALL (      60 calls)
 
     Parallel routines
     fft_scatt_xy :     22.53s CPU     23.12s WALL ( 1825862 calls)
     fft_scatt_yz :    160.12s CPU    164.58s WALL ( 1825862 calls)
 
     PWSCF        : 15m44.27s CPU    16m11.55s WALL

 
   This run was terminated on:   4:49:36  16Jun2020            

=------------------------------------------------------------------------------=
   JOB DONE.
=------------------------------------------------------------------------------=
