
     Program PWSCF v.6.4.1 starts on  9Oct2020 at  2: 6:34 

     This program is part of the open-source Quantum ESPRESSO suite
     for quantum simulation of materials; please cite
         "P. Giannozzi et al., J. Phys.:Condens. Matter 21 395502 (2009);
         "P. Giannozzi et al., J. Phys.:Condens. Matter 29 465901 (2017);
          URL http://www.quantum-espresso.org", 
     in publications or presentations arising from this work. More details at
     http://www.quantum-espresso.org/quote

     Parallel version (MPI), running on     1 processors

     MPI processes distributed on     1 nodes
     Reading input from wd/ec/ec_1_003.in
Warning: card &IONS ignored
Warning: card ION_DYNAMICS = 'BFGS', ignored
Warning: card / ignored
Warning: card &CELL ignored
Warning: card CELL_DYNAMICS = 'BFGS', ignored
Warning: card CELL_FACTOR = 2.0, ignored
Warning: card PRESS = 0.0, ignored
Warning: card / ignored

     Current dimensions of program PWSCF are:
     Max number of different atomic species (ntypx) = 10
     Max number of k-points (npk) =  40000
     Max angular momentum in pseudopotentials (lmaxx) =  3
               file Al.pbe-nl-kjpaw_psl.1.0.0.UPF: wavefunction(s)  3S 3P renormalized

     Subspace diagonalization in iterative solution of the eigenvalue problem:
     a serial algorithm will be used

     Found symmetry operation: I + ( -0.5000 -0.5000  0.0000)
     This is a supercell, fractional translations are disabled
     Message from routine setup:
     DEPRECATED: symmetry with ibrav=0, use correct ibrav instead

     G-vector sticks info
     --------------------
     sticks:   dense  smooth     PW     G-vecs:    dense   smooth      PW
     Sum         277     277    121                 3431     3431    1021



     bravais-lattice index     =            0
     lattice parameter (alat)  =       7.6305  a.u.
     unit-cell volume          =     445.4616 (a.u.)^3
     number of atoms/cell      =            4
     number of atomic types    =            1
     number of electrons       =        12.00
     number of Kohn-Sham states=           10
     kinetic-energy cutoff     =      20.0000  Ry
     charge density cutoff     =      60.0000  Ry
     convergence threshold     =      1.0E-06
     mixing beta               =       0.1000
     number of iterations used =           10  TF        mixing
     Exchange-correlation      = SLA PW PBX PBC ( 1  4  3  4 0 0)

     celldm(1)=   7.630469  celldm(2)=   0.000000  celldm(3)=   0.000000
     celldm(4)=   0.000000  celldm(5)=   0.000000  celldm(6)=   0.000000

     crystal axes: (cart. coord. in units of alat)
               a(1) = (   1.002667   0.000000   0.000000 )  
               a(2) = (   0.000000   1.000000   0.000000 )  
               a(3) = (   0.000000   0.000000   1.000000 )  

     reciprocal axes: (cart. coord. in units 2 pi/alat)
               b(1) = (  0.997340  0.000000  0.000000 )  
               b(2) = (  0.000000  1.000000  0.000000 )  
               b(3) = (  0.000000  0.000000  1.000000 )  


     PseudoPot. # 1 for Al read from file:
     /opt/pp/Al.pbe-nl-kjpaw_psl.1.0.0.UPF
     MD5 check sum: 1b67f78b73fe58c7924490f171ce8a1e
     Pseudo is Projector augmented-wave + core cor, Zval =  3.0
     Generated using "atomic" code by A. Dal Corso v.6.3
     Shape of augmentation charge: PSQ
     Using radial grid of 1135 points,  4 beta functions with: 
                l(1) =   0
                l(2) =   0
                l(3) =   1
                l(4) =   1
     Q(r) pseudized with 0 coefficients 


     atomic species   valence    mass     pseudopotential
        Al             3.00    26.98200     Al( 1.00)

     16 Sym. Ops., with inversion, found



   Cartesian axes

     site n.     atom                  positions (alat units)
         1           Al  tau(   1) = (   0.0000000   0.0000000   0.0000000  )
         2           Al  tau(   2) = (   0.5013335   0.5000002   0.0000000  )
         3           Al  tau(   3) = (   0.5013335   0.0000000   0.4999995  )
         4           Al  tau(   4) = (   0.0000000   0.5000002   0.4999995  )

     number of k points=     6  Marzari-Vanderbilt smearing, width (Ry)=  0.0400
                       cart. coord. in units 2pi/alat
        k(    1) = (   0.1662234   0.1666667   0.1666667), wk =   0.5925926
        k(    2) = (   0.1662234   0.1666667  -0.5000000), wk =   0.5925926
        k(    3) = (   0.1662234  -0.5000000  -0.5000000), wk =   0.1481481
        k(    4) = (  -0.4986702   0.1666667   0.1666667), wk =   0.2962963
        k(    5) = (  -0.4986702   0.1666667  -0.5000000), wk =   0.2962963
        k(    6) = (  -0.4986702  -0.5000000  -0.5000000), wk =   0.0740741

     Dense  grid:     3431 G-vectors     FFT dimensions: (  20,  20,  20)

     Estimated max dynamical RAM per process >       6.25 MB

     Initial potential from superposition of free atoms

     starting charge   11.99084, renormalised to   12.00000
     Starting wfcs are   16 randomized atomic wfcs
     Checking if some PAW data can be deallocated... 

     total cpu time spent up to now is        0.6 secs

     Self-consistent Calculation

     iteration #  1     ecut=    20.00 Ry     beta= 0.10
     Davidson diagonalization with overlap
     ethr =  1.00E-02,  avg # of iterations =  2.8

     Threshold (ethr) on eigenvalues was too large:
     Diagonalizing with lowered threshold

     Davidson diagonalization with overlap
     ethr =  1.88E-04,  avg # of iterations =  2.3

     total cpu time spent up to now is        0.9 secs

     total energy              =    -158.05041631 Ry
     Harris-Foulkes estimate   =    -158.05107276 Ry
     estimated scf accuracy    <       0.02182156 Ry

     iteration #  2     ecut=    20.00 Ry     beta= 0.10
     Davidson diagonalization with overlap
     ethr =  1.82E-04,  avg # of iterations =  1.0

     total cpu time spent up to now is        1.1 secs

     total energy              =    -158.04521163 Ry
     Harris-Foulkes estimate   =    -158.05052630 Ry
     estimated scf accuracy    <       0.01882626 Ry

     iteration #  3     ecut=    20.00 Ry     beta= 0.10
     Davidson diagonalization with overlap
     ethr =  1.57E-04,  avg # of iterations =  1.0

     total cpu time spent up to now is        1.3 secs

     total energy              =    -158.04540293 Ry
     Harris-Foulkes estimate   =    -158.04544362 Ry
     estimated scf accuracy    <       0.00008028 Ry

     iteration #  4     ecut=    20.00 Ry     beta= 0.10
     Davidson diagonalization with overlap
     ethr =  6.69E-07,  avg # of iterations =  4.3

     total cpu time spent up to now is        1.5 secs

     total energy              =    -158.04552664 Ry
     Harris-Foulkes estimate   =    -158.04545411 Ry
     estimated scf accuracy    <       0.00004880 Ry

     iteration #  5     ecut=    20.00 Ry     beta= 0.10
     Davidson diagonalization with overlap
     ethr =  4.07E-07,  avg # of iterations =  1.0

     total cpu time spent up to now is        1.6 secs

     total energy              =    -158.04549661 Ry
     Harris-Foulkes estimate   =    -158.04552770 Ry
     estimated scf accuracy    <       0.00006144 Ry

     iteration #  6     ecut=    20.00 Ry     beta= 0.10
     Davidson diagonalization with overlap
     ethr =  4.07E-07,  avg # of iterations =  2.0

     total cpu time spent up to now is        1.8 secs

     End of self-consistent calculation

          k = 0.1662 0.1667 0.1667 (   687 PWs)   bands (ev):

    -2.4794   3.3702   3.4001   3.4003   8.9485   8.9488   8.9544   9.3972
     9.4365   9.4366

          k = 0.1662 0.1667-0.5000 (   658 PWs)   bands (ev):

    -0.4850  -0.4846   5.1684   5.1686   5.4420   5.4426  10.9193  10.9194
    10.9197  10.9202

          k = 0.1662-0.5000-0.5000 (   664 PWs)   bands (ev):

     1.4823   1.4829   1.4829   1.4831   7.1975   7.1982   7.1982   7.1984
    12.9960  12.9963

          k =-0.4987 0.1667 0.1667 (   658 PWs)   bands (ev):

    -0.4954  -0.4950   5.1739   5.1742   5.4460   5.4467  10.9386  10.9391
    10.9420  10.9421

          k =-0.4987 0.1667-0.5000 (   664 PWs)   bands (ev):

     1.4720   1.4725   1.4726   1.4728   7.2168   7.2174   7.2175   7.2177
    13.0480  13.0486

          k =-0.4987-0.5000-0.5000 (   672 PWs)   bands (ev):

     3.3097   3.3097   3.3097   3.3102   3.5308   3.5319   3.5320   3.5320
    19.2729  19.2749

     the Fermi energy is     8.5459 ev

!    total energy              =    -158.04550058 Ry
     Harris-Foulkes estimate   =    -158.04550149 Ry
     estimated scf accuracy    <       0.00000054 Ry

     total all-electron energy =     -1942.616623 Ry

     The total energy is the sum of the following terms:

     one-electron contribution =      12.62356897 Ry
     hartree contribution      =       0.02526735 Ry
     xc contribution           =     -10.36435522 Ry
     ewald contribution        =     -21.61185112 Ry
     one-center paw contrib.   =    -138.71515715 Ry
     smearing contrib. (-TS)   =      -0.00297340 Ry

     convergence has been achieved in   6 iterations

     Forces acting on atoms (cartesian axes, Ry/au):

     atom    1 type  1   force =     0.00000000    0.00000000    0.00000000
     atom    2 type  1   force =     0.00000000    0.00000000    0.00000000
     atom    3 type  1   force =     0.00000000    0.00000000    0.00000000
     atom    4 type  1   force =     0.00000000    0.00000000    0.00000000

     Total force =     0.000000     Total SCF correction =     0.000000


     Computing stress (Cartesian axis) and pressure

          total   stress  (Ry/bohr**3)                   (kbar)     P=   -2.35
  -0.00004108   0.00000000   0.00000000         -6.04      0.00      0.00
   0.00000000  -0.00000343   0.00000000          0.00     -0.51      0.00
   0.00000000   0.00000000  -0.00000343          0.00      0.00     -0.51


     Writing output data file zBXLMklKCorsWELh.save/

     init_run     :      0.28s CPU      0.29s WALL (       1 calls)
     electrons    :      1.19s CPU      1.20s WALL (       1 calls)
     forces       :      0.03s CPU      0.03s WALL (       1 calls)
     stress       :      0.05s CPU      0.05s WALL (       1 calls)

     Called by init_run:
     wfcinit      :      0.02s CPU      0.02s WALL (       1 calls)
     potinit      :      0.15s CPU      0.16s WALL (       1 calls)
     hinit0       :      0.11s CPU      0.11s WALL (       1 calls)

     Called by electrons:
     c_bands      :      0.25s CPU      0.25s WALL (       7 calls)
     sum_band     :      0.04s CPU      0.04s WALL (       7 calls)
     v_of_rho     :      0.02s CPU      0.02s WALL (       7 calls)
     newd         :      0.01s CPU      0.01s WALL (       7 calls)
     PAW_pot      :      1.01s CPU      1.02s WALL (       7 calls)
     mix_rho      :      0.00s CPU      0.00s WALL (       7 calls)

     Called by c_bands:
     init_us_2    :      0.01s CPU      0.01s WALL (     102 calls)
     cegterg      :      0.23s CPU      0.23s WALL (      42 calls)

     Called by sum_band:
     sum_band:bec :      0.00s CPU      0.00s WALL (      42 calls)
     addusdens    :      0.01s CPU      0.01s WALL (       7 calls)

     Called by *egterg:
     h_psi        :      0.13s CPU      0.14s WALL (     135 calls)
     s_psi        :      0.03s CPU      0.03s WALL (     135 calls)
     g_psi        :      0.00s CPU      0.00s WALL (      87 calls)
     cdiaghg      :      0.02s CPU      0.02s WALL (     123 calls)

     Called by h_psi:
     h_psi:pot    :      0.13s CPU      0.14s WALL (     135 calls)
     h_psi:calbec :      0.03s CPU      0.03s WALL (     135 calls)
     vloc_psi     :      0.07s CPU      0.07s WALL (     135 calls)
     add_vuspsi   :      0.03s CPU      0.03s WALL (     135 calls)

     General routines
     calbec       :      0.05s CPU      0.06s WALL (     207 calls)
     fft          :      0.00s CPU      0.00s WALL (     103 calls)
     ffts         :      0.00s CPU      0.00s WALL (       7 calls)
     fftw         :      0.06s CPU      0.06s WALL (    2688 calls)

     Parallel routines

     PWSCF        :      1.89s CPU      1.92s WALL


   This run was terminated on:   2: 6:36   9Oct2020            

=------------------------------------------------------------------------------=
   JOB DONE.
=------------------------------------------------------------------------------=
