
     Program PWSCF v.6.4.1 starts on  9Oct2020 at  2: 7:14 

     This program is part of the open-source Quantum ESPRESSO suite
     for quantum simulation of materials; please cite
         "P. Giannozzi et al., J. Phys.:Condens. Matter 21 395502 (2009);
         "P. Giannozzi et al., J. Phys.:Condens. Matter 29 465901 (2017);
          URL http://www.quantum-espresso.org", 
     in publications or presentations arising from this work. More details at
     http://www.quantum-espresso.org/quote

     Parallel version (MPI), running on     1 processors

     MPI processes distributed on     1 nodes
     Reading input from wd/ec/ec_4_004.in
Warning: card &IONS ignored
Warning: card ION_DYNAMICS = 'BFGS', ignored
Warning: card / ignored
Warning: card &CELL ignored
Warning: card CELL_DYNAMICS = 'BFGS', ignored
Warning: card CELL_FACTOR = 2.0, ignored
Warning: card PRESS = 0.0, ignored
Warning: card / ignored

     Current dimensions of program PWSCF are:
     Max number of different atomic species (ntypx) = 10
     Max number of k-points (npk) =  40000
     Max angular momentum in pseudopotentials (lmaxx) =  3
               file Al.pbe-nl-kjpaw_psl.1.0.0.UPF: wavefunction(s)  3S 3P renormalized

     Subspace diagonalization in iterative solution of the eigenvalue problem:
     a serial algorithm will be used

     Found symmetry operation: I + ( -0.5000 -0.5000  0.0000)
     This is a supercell, fractional translations are disabled
     Message from routine setup:
     DEPRECATED: symmetry with ibrav=0, use correct ibrav instead

     G-vector sticks info
     --------------------
     sticks:   dense  smooth     PW     G-vecs:    dense   smooth      PW
     Sum         277     277    121                 3439     3439    1021



     bravais-lattice index     =            0
     lattice parameter (alat)  =       7.6305  a.u.
     unit-cell volume          =     444.2769 (a.u.)^3
     number of atoms/cell      =            4
     number of atomic types    =            1
     number of electrons       =        12.00
     number of Kohn-Sham states=           10
     kinetic-energy cutoff     =      20.0000  Ry
     charge density cutoff     =      60.0000  Ry
     convergence threshold     =      1.0E-06
     mixing beta               =       0.1000
     number of iterations used =           10  TF        mixing
     Exchange-correlation      = SLA PW PBX PBC ( 1  4  3  4 0 0)

     celldm(1)=   7.630469  celldm(2)=   0.000000  celldm(3)=   0.000000
     celldm(4)=   0.000000  celldm(5)=   0.000000  celldm(6)=   0.000000

     crystal axes: (cart. coord. in units of alat)
               a(1) = (   1.000005   0.000000   0.000000 )  
               a(2) = (   0.000000   1.000005   0.004000 )  
               a(3) = (   0.000000   0.004000   1.000005 )  

     reciprocal axes: (cart. coord. in units 2 pi/alat)
               b(1) = (  0.999995  0.000000  0.000000 )  
               b(2) = (  0.000000  1.000011 -0.004000 )  
               b(3) = (  0.000000 -0.004000  1.000011 )  


     PseudoPot. # 1 for Al read from file:
     /opt/pp/Al.pbe-nl-kjpaw_psl.1.0.0.UPF
     MD5 check sum: 1b67f78b73fe58c7924490f171ce8a1e
     Pseudo is Projector augmented-wave + core cor, Zval =  3.0
     Generated using "atomic" code by A. Dal Corso v.6.3
     Shape of augmentation charge: PSQ
     Using radial grid of 1135 points,  4 beta functions with: 
                l(1) =   0
                l(2) =   0
                l(3) =   1
                l(4) =   1
     Q(r) pseudized with 0 coefficients 


     atomic species   valence    mass     pseudopotential
        Al             3.00    26.98200     Al( 1.00)

      8 Sym. Ops., with inversion, found



   Cartesian axes

     site n.     atom                  positions (alat units)
         1           Al  tau(   1) = (   0.0000000   0.0000000   0.0000000  )
         2           Al  tau(   2) = (   0.5000029   0.5000029   0.0020000  )
         3           Al  tau(   3) = (   0.5000029   0.0020000   0.5000022  )
         4           Al  tau(   4) = (   0.0000000   0.5020029   0.5020022  )

     number of k points=     8  Marzari-Vanderbilt smearing, width (Ry)=  0.0400
                       cart. coord. in units 2pi/alat
        k(    1) = (   0.1666658   0.1660018   0.1660018), wk =   0.2962963
        k(    2) = (   0.1666658   0.1686685  -0.5006720), wk =   0.5925926
        k(    3) = (   0.1666658   0.1673351  -0.1673351), wk =   0.2962963
        k(    4) = (   0.1666658  -0.4980053  -0.4980053), wk =   0.1481481
        k(    5) = (  -0.4999973   0.1660018   0.1660018), wk =   0.1481481
        k(    6) = (  -0.4999973   0.1686685  -0.5006720), wk =   0.2962963
        k(    7) = (  -0.4999973   0.1673351  -0.1673351), wk =   0.1481481
        k(    8) = (  -0.4999973  -0.4980053  -0.4980053), wk =   0.0740741

     Dense  grid:     3439 G-vectors     FFT dimensions: (  20,  20,  20)

     Estimated max dynamical RAM per process >       6.47 MB

     Initial potential from superposition of free atoms

     starting charge   11.99084, renormalised to   12.00000
     Starting wfcs are   16 randomized atomic wfcs
     Checking if some PAW data can be deallocated... 

     total cpu time spent up to now is        0.7 secs

     Self-consistent Calculation

     iteration #  1     ecut=    20.00 Ry     beta= 0.10
     Davidson diagonalization with overlap
     ethr =  1.00E-02,  avg # of iterations =  2.9

     Threshold (ethr) on eigenvalues was too large:
     Diagonalizing with lowered threshold

     Davidson diagonalization with overlap
     ethr =  1.87E-04,  avg # of iterations =  2.2

     total cpu time spent up to now is        0.9 secs

     total energy              =    -158.05034752 Ry
     Harris-Foulkes estimate   =    -158.05100455 Ry
     estimated scf accuracy    <       0.02180005 Ry

     iteration #  2     ecut=    20.00 Ry     beta= 0.10
     Davidson diagonalization with overlap
     ethr =  1.82E-04,  avg # of iterations =  1.0

     total cpu time spent up to now is        1.1 secs

     total energy              =    -158.04514102 Ry
     Harris-Foulkes estimate   =    -158.05045403 Ry
     estimated scf accuracy    <       0.01880897 Ry

     iteration #  3     ecut=    20.00 Ry     beta= 0.10
     Davidson diagonalization with overlap
     ethr =  1.57E-04,  avg # of iterations =  1.0

     total cpu time spent up to now is        1.3 secs

     total energy              =    -158.04533258 Ry
     Harris-Foulkes estimate   =    -158.04537129 Ry
     estimated scf accuracy    <       0.00007842 Ry

     iteration #  4     ecut=    20.00 Ry     beta= 0.10
     Davidson diagonalization with overlap
     ethr =  6.54E-07,  avg # of iterations =  6.1

     total cpu time spent up to now is        1.6 secs

     total energy              =    -158.04546594 Ry
     Harris-Foulkes estimate   =    -158.04538390 Ry
     estimated scf accuracy    <       0.00004831 Ry

     iteration #  5     ecut=    20.00 Ry     beta= 0.10
     Davidson diagonalization with overlap
     ethr =  4.03E-07,  avg # of iterations =  1.1

     total cpu time spent up to now is        1.8 secs

     total energy              =    -158.04542672 Ry
     Harris-Foulkes estimate   =    -158.04546738 Ry
     estimated scf accuracy    <       0.00008368 Ry

     iteration #  6     ecut=    20.00 Ry     beta= 0.10
     Davidson diagonalization with overlap
     ethr =  4.03E-07,  avg # of iterations =  1.4

     total cpu time spent up to now is        2.0 secs

     End of self-consistent calculation

          k = 0.1667 0.1660 0.1660 (   679 PWs)   bands (ev):

    -2.4730   3.4064   3.4287   3.4288   8.9201   8.9960   8.9963   9.4182
     9.4310   9.4312

          k = 0.1667 0.1687-0.5007 (   662 PWs)   bands (ev):

    -0.4864  -0.4625   5.1689   5.2091   5.4234   5.5188  10.9025  10.9350
    10.9715  11.0138

          k = 0.1667 0.1673-0.1673 (   682 PWs)   bands (ev):

    -2.4648   3.3918   3.3919   3.4138   8.9583   8.9586   9.0259   9.4832
     9.4834   9.5038

          k = 0.1667-0.4980-0.4980 (   664 PWs)   bands (ev):

     1.4582   1.4584   1.5277   1.5279   7.2019   7.2022   7.2726   7.2729
    13.0329  13.0338

          k =-0.5000 0.1660 0.1660 (   664 PWs)   bands (ev):

    -0.4787  -0.4782   5.1944   5.1947   5.5046   5.5053  10.8689  10.8695
    10.9183  10.9184

          k =-0.5000 0.1687-0.5007 (   664 PWs)   bands (ev):

     1.4812   1.4817   1.5043   1.5048   7.1811   7.1817   7.2933   7.2938
    12.9919  12.9930

          k =-0.5000 0.1673-0.1673 (   658 PWs)   bands (ev):

    -0.4707  -0.4703   5.1871   5.1874   5.4339   5.4346  10.9956  10.9958
    11.0466  11.0471

          k =-0.5000-0.4980-0.4980 (   672 PWs)   bands (ev):

     3.3060   3.3063   3.3473   3.3476   3.5057   3.5063   3.6052   3.6059
    19.2633  19.2640

     the Fermi energy is     8.5671 ev

!    total energy              =    -158.04542995 Ry
     Harris-Foulkes estimate   =    -158.04543082 Ry
     estimated scf accuracy    <       0.00000061 Ry

     total all-electron energy =     -1942.616552 Ry

     The total energy is the sum of the following terms:

     one-electron contribution =      12.64901400 Ry
     hartree contribution      =       0.02539331 Ry
     xc contribution           =     -10.37011120 Ry
     ewald contribution        =     -21.63090382 Ry
     one-center paw contrib.   =    -138.71606327 Ry
     smearing contrib. (-TS)   =      -0.00275897 Ry

     convergence has been achieved in   6 iterations

     Forces acting on atoms (cartesian axes, Ry/au):

     atom    1 type  1   force =     0.00000000    0.00000000    0.00000000
     atom    2 type  1   force =     0.00000000    0.00000000    0.00000000
     atom    3 type  1   force =     0.00000000    0.00000000    0.00000000
     atom    4 type  1   force =     0.00000000    0.00000000    0.00000000

     Total force =     0.000000     Total SCF correction =     0.000000


     Computing stress (Cartesian axis) and pressure

          total   stress  (Ry/bohr**3)                   (kbar)     P=   -0.23
  -0.00000534   0.00000000   0.00000000         -0.79      0.00      0.00
   0.00000000   0.00000030  -0.00007016          0.00      0.04    -10.32
   0.00000000  -0.00007016   0.00000030          0.00    -10.32      0.04


     Writing output data file zLTIkDvgqgBIDYRg.save/

     init_run     :      0.30s CPU      0.31s WALL (       1 calls)
     electrons    :      1.30s CPU      1.31s WALL (       1 calls)
     forces       :      0.03s CPU      0.04s WALL (       1 calls)
     stress       :      0.08s CPU      0.08s WALL (       1 calls)

     Called by init_run:
     wfcinit      :      0.03s CPU      0.03s WALL (       1 calls)
     potinit      :      0.16s CPU      0.16s WALL (       1 calls)
     hinit0       :      0.11s CPU      0.11s WALL (       1 calls)

     Called by electrons:
     c_bands      :      0.34s CPU      0.34s WALL (       7 calls)
     sum_band     :      0.05s CPU      0.05s WALL (       7 calls)
     v_of_rho     :      0.02s CPU      0.02s WALL (       7 calls)
     newd         :      0.02s CPU      0.02s WALL (       7 calls)
     PAW_pot      :      1.01s CPU      1.02s WALL (       7 calls)
     mix_rho      :      0.00s CPU      0.00s WALL (       7 calls)

     Called by c_bands:
     init_us_2    :      0.02s CPU      0.02s WALL (     136 calls)
     cegterg      :      0.31s CPU      0.32s WALL (      56 calls)

     Called by sum_band:
     sum_band:bec :      0.00s CPU      0.00s WALL (      56 calls)
     addusdens    :      0.01s CPU      0.01s WALL (       7 calls)

     Called by *egterg:
     h_psi        :      0.18s CPU      0.18s WALL (     190 calls)
     s_psi        :      0.04s CPU      0.04s WALL (     190 calls)
     g_psi        :      0.00s CPU      0.00s WALL (     126 calls)
     cdiaghg      :      0.03s CPU      0.03s WALL (     174 calls)

     Called by h_psi:
     h_psi:pot    :      0.18s CPU      0.18s WALL (     190 calls)
     h_psi:calbec :      0.05s CPU      0.05s WALL (     190 calls)
     vloc_psi     :      0.09s CPU      0.09s WALL (     190 calls)
     add_vuspsi   :      0.04s CPU      0.04s WALL (     190 calls)

     General routines
     calbec       :      0.08s CPU      0.08s WALL (     286 calls)
     fft          :      0.00s CPU      0.00s WALL (     103 calls)
     ffts         :      0.00s CPU      0.00s WALL (       7 calls)
     fftw         :      0.09s CPU      0.09s WALL (    3626 calls)

     Parallel routines

     PWSCF        :      2.06s CPU      2.09s WALL


   This run was terminated on:   2: 7:16   9Oct2020            

=------------------------------------------------------------------------------=
   JOB DONE.
=------------------------------------------------------------------------------=
