
     Program PWSCF v.6.4.1 starts on  9Oct2020 at  2: 7:35 

     This program is part of the open-source Quantum ESPRESSO suite
     for quantum simulation of materials; please cite
         "P. Giannozzi et al., J. Phys.:Condens. Matter 21 395502 (2009);
         "P. Giannozzi et al., J. Phys.:Condens. Matter 29 465901 (2017);
          URL http://www.quantum-espresso.org", 
     in publications or presentations arising from this work. More details at
     http://www.quantum-espresso.org/quote

     Parallel version (MPI), running on     1 processors

     MPI processes distributed on     1 nodes
     Reading input from wd/ec/ec_6_003.in
Warning: card &IONS ignored
Warning: card ION_DYNAMICS = 'BFGS', ignored
Warning: card / ignored
Warning: card &CELL ignored
Warning: card CELL_DYNAMICS = 'BFGS', ignored
Warning: card CELL_FACTOR = 2.0, ignored
Warning: card PRESS = 0.0, ignored
Warning: card / ignored

     Current dimensions of program PWSCF are:
     Max number of different atomic species (ntypx) = 10
     Max number of k-points (npk) =  40000
     Max angular momentum in pseudopotentials (lmaxx) =  3
               file Al.pbe-nl-kjpaw_psl.1.0.0.UPF: wavefunction(s)  3S 3P renormalized

     Subspace diagonalization in iterative solution of the eigenvalue problem:
     a serial algorithm will be used

     Found symmetry operation: I + ( -0.5000 -0.5000  0.0000)
     This is a supercell, fractional translations are disabled
     Message from routine setup:
     DEPRECATED: symmetry with ibrav=0, use correct ibrav instead

     G-vector sticks info
     --------------------
     sticks:   dense  smooth     PW     G-vecs:    dense   smooth      PW
     Sum         277     277    121                 3431     3431    1021



     bravais-lattice index     =            0
     lattice parameter (alat)  =       7.6305  a.u.
     unit-cell volume          =     444.2769 (a.u.)^3
     number of atoms/cell      =            4
     number of atomic types    =            1
     number of electrons       =        12.00
     number of Kohn-Sham states=           10
     kinetic-energy cutoff     =      20.0000  Ry
     charge density cutoff     =      60.0000  Ry
     convergence threshold     =      1.0E-06
     mixing beta               =       0.1000
     number of iterations used =           10  TF        mixing
     Exchange-correlation      = SLA PW PBX PBC ( 1  4  3  4 0 0)

     celldm(1)=   7.630469  celldm(2)=   0.000000  celldm(3)=   0.000000
     celldm(4)=   0.000000  celldm(5)=   0.000000  celldm(6)=   0.000000

     crystal axes: (cart. coord. in units of alat)
               a(1) = (   1.000002   0.002667   0.000000 )  
               a(2) = (   0.002667   1.000002   0.000000 )  
               a(3) = (   0.000000   0.000000   1.000002 )  

     reciprocal axes: (cart. coord. in units 2 pi/alat)
               b(1) = (  1.000005 -0.002667  0.000000 )  
               b(2) = ( -0.002667  1.000005  0.000000 )  
               b(3) = (  0.000000  0.000000  0.999998 )  


     PseudoPot. # 1 for Al read from file:
     /opt/pp/Al.pbe-nl-kjpaw_psl.1.0.0.UPF
     MD5 check sum: 1b67f78b73fe58c7924490f171ce8a1e
     Pseudo is Projector augmented-wave + core cor, Zval =  3.0
     Generated using "atomic" code by A. Dal Corso v.6.3
     Shape of augmentation charge: PSQ
     Using radial grid of 1135 points,  4 beta functions with: 
                l(1) =   0
                l(2) =   0
                l(3) =   1
                l(4) =   1
     Q(r) pseudized with 0 coefficients 


     atomic species   valence    mass     pseudopotential
        Al             3.00    26.98200     Al( 1.00)

      8 Sym. Ops., with inversion, found



   Cartesian axes

     site n.     atom                  positions (alat units)
         1           Al  tau(   1) = (   0.0000000   0.0000000   0.0000000  )
         2           Al  tau(   2) = (   0.5013347   0.5013347   0.0000000  )
         3           Al  tau(   3) = (   0.5000014   0.0013333   0.5000007  )
         4           Al  tau(   4) = (   0.0013333   0.5000014   0.5000007  )

     number of k points=     8  Marzari-Vanderbilt smearing, width (Ry)=  0.0400
                       cart. coord. in units 2pi/alat
        k(    1) = (   0.1662230   0.1662230   0.1666663), wk =   0.2962963
        k(    2) = (   0.1662230   0.1662230  -0.4999988), wk =   0.1481481
        k(    3) = (   0.1680008  -0.5004468   0.1666663), wk =   0.5925926
        k(    4) = (   0.1680008  -0.5004468  -0.4999988), wk =   0.2962963
        k(    5) = (   0.1671119  -0.1671119   0.1666663), wk =   0.2962963
        k(    6) = (   0.1671119  -0.1671119  -0.4999988), wk =   0.1481481
        k(    7) = (  -0.4986690  -0.4986690   0.1666663), wk =   0.1481481
        k(    8) = (  -0.4986690  -0.4986690  -0.4999988), wk =   0.0740741

     Dense  grid:     3431 G-vectors     FFT dimensions: (  20,  20,  20)

     Estimated max dynamical RAM per process >       6.45 MB

     Initial potential from superposition of free atoms

     starting charge   11.99084, renormalised to   12.00000
     Starting wfcs are   16 randomized atomic wfcs
     Checking if some PAW data can be deallocated... 

     total cpu time spent up to now is        0.7 secs

     Self-consistent Calculation

     iteration #  1     ecut=    20.00 Ry     beta= 0.10
     Davidson diagonalization with overlap
     ethr =  1.00E-02,  avg # of iterations =  2.9

     Threshold (ethr) on eigenvalues was too large:
     Diagonalizing with lowered threshold

     Davidson diagonalization with overlap
     ethr =  1.87E-04,  avg # of iterations =  2.2

     total cpu time spent up to now is        0.9 secs

     total energy              =    -158.05038550 Ry
     Harris-Foulkes estimate   =    -158.05104422 Ry
     estimated scf accuracy    <       0.02180079 Ry

     iteration #  2     ecut=    20.00 Ry     beta= 0.10
     Davidson diagonalization with overlap
     ethr =  1.82E-04,  avg # of iterations =  1.0

     total cpu time spent up to now is        1.1 secs

     total energy              =    -158.04518455 Ry
     Harris-Foulkes estimate   =    -158.05049767 Ry
     estimated scf accuracy    <       0.01880539 Ry

     iteration #  3     ecut=    20.00 Ry     beta= 0.10
     Davidson diagonalization with overlap
     ethr =  1.57E-04,  avg # of iterations =  1.0

     total cpu time spent up to now is        1.3 secs

     total energy              =    -158.04537236 Ry
     Harris-Foulkes estimate   =    -158.04541445 Ry
     estimated scf accuracy    <       0.00008123 Ry

     iteration #  4     ecut=    20.00 Ry     beta= 0.10
     Davidson diagonalization with overlap
     ethr =  6.77E-07,  avg # of iterations =  5.4

     total cpu time spent up to now is        1.5 secs

     total energy              =    -158.04549948 Ry
     Harris-Foulkes estimate   =    -158.04542253 Ry
     estimated scf accuracy    <       0.00004818 Ry

     iteration #  5     ecut=    20.00 Ry     beta= 0.10
     Davidson diagonalization with overlap
     ethr =  4.01E-07,  avg # of iterations =  2.2

     total cpu time spent up to now is        1.7 secs

     total energy              =    -158.04546357 Ry
     Harris-Foulkes estimate   =    -158.04550082 Ry
     estimated scf accuracy    <       0.00007529 Ry

     iteration #  6     ecut=    20.00 Ry     beta= 0.10
     Davidson diagonalization with overlap
     ethr =  4.01E-07,  avg # of iterations =  1.4

     total cpu time spent up to now is        1.9 secs

     End of self-consistent calculation

          k = 0.1662 0.1662 0.1667 (   681 PWs)   bands (ev):

    -2.4717   3.4077   3.4225   3.4226   8.9402   8.9898   8.9901   9.4300
     9.4394   9.4396

          k = 0.1662 0.1662-0.5000 (   660 PWs)   bands (ev):

    -0.4774  -0.4768   5.1930   5.1935   5.4927   5.4935  10.8984  10.8990
    10.9314  10.9316

          k = 0.1680-0.5004 0.1667 (   659 PWs)   bands (ev):

    -0.4823  -0.4665   5.1769   5.2033   5.4384   5.5020  10.9213  10.9431
    10.9674  10.9953

          k = 0.1680-0.5004-0.5000 (   664 PWs)   bands (ev):

     1.4850   1.4856   1.5004   1.5010   7.1997   7.2003   7.2745   7.2752
    13.0170  13.0187

          k = 0.1671-0.1671 0.1667 (   686 PWs)   bands (ev):

    -2.4663   3.3978   3.3980   3.4126   8.9645   8.9649   9.0108   9.4741
     9.4743   9.4870

          k = 0.1671-0.1671-0.5000 (   658 PWs)   bands (ev):

    -0.4721  -0.4715   5.1882   5.1886   5.4455   5.4464  10.9825  10.9827
    11.0169  11.0177

          k =-0.4987-0.4987 0.1667 (   664 PWs)   bands (ev):

     1.4698   1.4700   1.5161   1.5163   7.2136   7.2140   7.2608   7.2611
    13.0447  13.0450

          k =-0.4987-0.4987-0.5000 (   672 PWs)   bands (ev):

     3.3128   3.3131   3.3403   3.3408   3.5221   3.5230   3.5885   3.5893
    19.2949  19.2977

     the Fermi energy is     8.5706 ev

!    total energy              =    -158.04546672 Ry
     Harris-Foulkes estimate   =    -158.04546760 Ry
     estimated scf accuracy    <       0.00000064 Ry

     total all-electron energy =     -1942.616589 Ry

     The total energy is the sum of the following terms:

     one-electron contribution =      12.64917004 Ry
     hartree contribution      =       0.02536419 Ry
     xc contribution           =     -10.37008330 Ry
     ewald contribution        =     -21.63098337 Ry
     one-center paw contrib.   =    -138.71604865 Ry
     smearing contrib. (-TS)   =      -0.00288563 Ry

     convergence has been achieved in   6 iterations

     Forces acting on atoms (cartesian axes, Ry/au):

     atom    1 type  1   force =     0.00000000    0.00000000    0.00000000
     atom    2 type  1   force =     0.00000000    0.00000000    0.00000000
     atom    3 type  1   force =     0.00000000    0.00000000    0.00000000
     atom    4 type  1   force =     0.00000000    0.00000000    0.00000000

     Total force =     0.000000     Total SCF correction =     0.000000


     Computing stress (Cartesian axis) and pressure

          total   stress  (Ry/bohr**3)                   (kbar)     P=   -0.27
  -0.00000096  -0.00004680   0.00000000         -0.14     -6.88      0.00
  -0.00004680  -0.00000096   0.00000000         -6.88     -0.14      0.00
   0.00000000   0.00000000  -0.00000350          0.00      0.00     -0.51


     Writing output data file rEWfYspQQJpgNHyI.save/

     init_run     :      0.29s CPU      0.31s WALL (       1 calls)
     electrons    :      1.26s CPU      1.26s WALL (       1 calls)
     forces       :      0.04s CPU      0.04s WALL (       1 calls)
     stress       :      0.07s CPU      0.07s WALL (       1 calls)

     Called by init_run:
     wfcinit      :      0.03s CPU      0.03s WALL (       1 calls)
     potinit      :      0.14s CPU      0.16s WALL (       1 calls)
     hinit0       :      0.11s CPU      0.11s WALL (       1 calls)

     Called by electrons:
     c_bands      :      0.33s CPU      0.33s WALL (       7 calls)
     sum_band     :      0.05s CPU      0.05s WALL (       7 calls)
     v_of_rho     :      0.02s CPU      0.02s WALL (       7 calls)
     newd         :      0.01s CPU      0.01s WALL (       7 calls)
     PAW_pot      :      0.98s CPU      1.00s WALL (       7 calls)
     mix_rho      :      0.00s CPU      0.00s WALL (       7 calls)

     Called by c_bands:
     init_us_2    :      0.02s CPU      0.02s WALL (     136 calls)
     cegterg      :      0.30s CPU      0.31s WALL (      56 calls)

     Called by sum_band:
     sum_band:bec :      0.00s CPU      0.00s WALL (      56 calls)
     addusdens    :      0.01s CPU      0.01s WALL (       7 calls)

     Called by *egterg:
     h_psi        :      0.17s CPU      0.18s WALL (     193 calls)
     s_psi        :      0.04s CPU      0.04s WALL (     193 calls)
     g_psi        :      0.00s CPU      0.00s WALL (     129 calls)
     cdiaghg      :      0.03s CPU      0.03s WALL (     177 calls)

     Called by h_psi:
     h_psi:pot    :      0.17s CPU      0.17s WALL (     193 calls)
     h_psi:calbec :      0.05s CPU      0.05s WALL (     193 calls)
     vloc_psi     :      0.09s CPU      0.09s WALL (     193 calls)
     add_vuspsi   :      0.04s CPU      0.04s WALL (     193 calls)

     General routines
     calbec       :      0.07s CPU      0.07s WALL (     289 calls)
     fft          :      0.00s CPU      0.00s WALL (     103 calls)
     ffts         :      0.00s CPU      0.00s WALL (       7 calls)
     fftw         :      0.08s CPU      0.08s WALL (    3614 calls)

     Parallel routines

     PWSCF        :      2.00s CPU      2.04s WALL


   This run was terminated on:   2: 7:37   9Oct2020            

=------------------------------------------------------------------------------=
   JOB DONE.
=------------------------------------------------------------------------------=
