
     Program PWSCF v.6.4.1 starts on  9Oct2020 at  2: 7:59 

     This program is part of the open-source Quantum ESPRESSO suite
     for quantum simulation of materials; please cite
         "P. Giannozzi et al., J. Phys.:Condens. Matter 21 395502 (2009);
         "P. Giannozzi et al., J. Phys.:Condens. Matter 29 465901 (2017);
          URL http://www.quantum-espresso.org", 
     in publications or presentations arising from this work. More details at
     http://www.quantum-espresso.org/quote

     Parallel version (MPI), running on     1 processors

     MPI processes distributed on     1 nodes
     Reading input from wd/ec/ec_8_003.in
Warning: card &IONS ignored
Warning: card ION_DYNAMICS = 'BFGS', ignored
Warning: card / ignored
Warning: card &CELL ignored
Warning: card CELL_DYNAMICS = 'BFGS', ignored
Warning: card CELL_FACTOR = 2.0, ignored
Warning: card PRESS = 0.0, ignored
Warning: card / ignored

     Current dimensions of program PWSCF are:
     Max number of different atomic species (ntypx) = 10
     Max number of k-points (npk) =  40000
     Max angular momentum in pseudopotentials (lmaxx) =  3
               file Al.pbe-nl-kjpaw_psl.1.0.0.UPF: wavefunction(s)  3S 3P renormalized

     Subspace diagonalization in iterative solution of the eigenvalue problem:
     a serial algorithm will be used

     Found symmetry operation: I + ( -0.5000 -0.5000  0.0000)
     This is a supercell, fractional translations are disabled
     Message from routine setup:
     DEPRECATED: symmetry with ibrav=0, use correct ibrav instead

     G-vector sticks info
     --------------------
     sticks:   dense  smooth     PW     G-vecs:    dense   smooth      PW
     Sum         277     277    121                 3431     3431    1021



     bravais-lattice index     =            0
     lattice parameter (alat)  =       7.6305  a.u.
     unit-cell volume          =     444.2769 (a.u.)^3
     number of atoms/cell      =            4
     number of atomic types    =            1
     number of electrons       =        12.00
     number of Kohn-Sham states=           10
     kinetic-energy cutoff     =      20.0000  Ry
     charge density cutoff     =      60.0000  Ry
     convergence threshold     =      1.0E-06
     mixing beta               =       0.1000
     number of iterations used =           10  TF        mixing
     Exchange-correlation      = SLA PW PBX PBC ( 1  4  3  4 0 0)

     celldm(1)=   7.630469  celldm(2)=   0.000000  celldm(3)=   0.000000
     celldm(4)=   0.000000  celldm(5)=   0.000000  celldm(6)=   0.000000

     crystal axes: (cart. coord. in units of alat)
               a(1) = (   1.002669   0.000000   0.000000 )  
               a(2) = (   0.000000   1.000002   0.000000 )  
               a(3) = (   0.000000   0.000000   0.997336 )  

     reciprocal axes: (cart. coord. in units 2 pi/alat)
               b(1) = (  0.997338  0.000000  0.000000 )  
               b(2) = (  0.000000  0.999998  0.000000 )  
               b(3) = (  0.000000  0.000000  1.002671 )  


     PseudoPot. # 1 for Al read from file:
     /opt/pp/Al.pbe-nl-kjpaw_psl.1.0.0.UPF
     MD5 check sum: 1b67f78b73fe58c7924490f171ce8a1e
     Pseudo is Projector augmented-wave + core cor, Zval =  3.0
     Generated using "atomic" code by A. Dal Corso v.6.3
     Shape of augmentation charge: PSQ
     Using radial grid of 1135 points,  4 beta functions with: 
                l(1) =   0
                l(2) =   0
                l(3) =   1
                l(4) =   1
     Q(r) pseudized with 0 coefficients 


     atomic species   valence    mass     pseudopotential
        Al             3.00    26.98200     Al( 1.00)

      8 Sym. Ops., with inversion, found



   Cartesian axes

     site n.     atom                  positions (alat units)
         1           Al  tau(   1) = (   0.0000000   0.0000000   0.0000000  )
         2           Al  tau(   2) = (   0.5013347   0.5000014   0.0000000  )
         3           Al  tau(   3) = (   0.5013347   0.0000000   0.4986674  )
         4           Al  tau(   4) = (   0.0000000   0.5000014   0.4986674  )

     number of k points=     8  Marzari-Vanderbilt smearing, width (Ry)=  0.0400
                       cart. coord. in units 2pi/alat
        k(    1) = (   0.1662230   0.1666663   0.1671119), wk =   0.5925926
        k(    2) = (   0.1662230   0.1666663  -0.5013357), wk =   0.2962963
        k(    3) = (   0.1662230  -0.4999988   0.1671119), wk =   0.2962963
        k(    4) = (   0.1662230  -0.4999988  -0.5013357), wk =   0.1481481
        k(    5) = (  -0.4986690   0.1666663   0.1671119), wk =   0.2962963
        k(    6) = (  -0.4986690   0.1666663  -0.5013357), wk =   0.1481481
        k(    7) = (  -0.4986690  -0.4999988   0.1671119), wk =   0.1481481
        k(    8) = (  -0.4986690  -0.4999988  -0.5013357), wk =   0.0740741

     Dense  grid:     3431 G-vectors     FFT dimensions: (  20,  20,  20)

     Estimated max dynamical RAM per process >       6.45 MB

     Initial potential from superposition of free atoms

     starting charge   11.99084, renormalised to   12.00000
     Starting wfcs are   16 randomized atomic wfcs
     Checking if some PAW data can be deallocated... 

     total cpu time spent up to now is        0.7 secs

     Self-consistent Calculation

     iteration #  1     ecut=    20.00 Ry     beta= 0.10
     Davidson diagonalization with overlap
     ethr =  1.00E-02,  avg # of iterations =  2.9

     Threshold (ethr) on eigenvalues was too large:
     Diagonalizing with lowered threshold

     Davidson diagonalization with overlap
     ethr =  1.87E-04,  avg # of iterations =  2.4

     total cpu time spent up to now is        0.9 secs

     total energy              =    -158.05039113 Ry
     Harris-Foulkes estimate   =    -158.05105090 Ry
     estimated scf accuracy    <       0.02179348 Ry

     iteration #  2     ecut=    20.00 Ry     beta= 0.10
     Davidson diagonalization with overlap
     ethr =  1.82E-04,  avg # of iterations =  1.0

     total cpu time spent up to now is        1.1 secs

     total energy              =    -158.04519562 Ry
     Harris-Foulkes estimate   =    -158.05050583 Ry
     estimated scf accuracy    <       0.01879860 Ry

     iteration #  3     ecut=    20.00 Ry     beta= 0.10
     Davidson diagonalization with overlap
     ethr =  1.57E-04,  avg # of iterations =  1.0

     total cpu time spent up to now is        1.3 secs

     total energy              =    -158.04538045 Ry
     Harris-Foulkes estimate   =    -158.04542452 Ry
     estimated scf accuracy    <       0.00008339 Ry

     iteration #  4     ecut=    20.00 Ry     beta= 0.10
     Davidson diagonalization with overlap
     ethr =  6.95E-07,  avg # of iterations =  4.2

     total cpu time spent up to now is        1.5 secs

     total energy              =    -158.04549985 Ry
     Harris-Foulkes estimate   =    -158.04543196 Ry
     estimated scf accuracy    <       0.00004904 Ry

     iteration #  5     ecut=    20.00 Ry     beta= 0.10
     Davidson diagonalization with overlap
     ethr =  4.09E-07,  avg # of iterations =  1.0

     total cpu time spent up to now is        1.7 secs

     total energy              =    -158.04547086 Ry
     Harris-Foulkes estimate   =    -158.04550088 Ry
     estimated scf accuracy    <       0.00005918 Ry

     iteration #  6     ecut=    20.00 Ry     beta= 0.10
     Davidson diagonalization with overlap
     ethr =  4.09E-07,  avg # of iterations =  2.0

     total cpu time spent up to now is        1.9 secs

     End of self-consistent calculation

          k = 0.1662 0.1667 0.1671 (   684 PWs)   bands (ev):

    -2.4689   3.3801   3.4101   3.4404   8.9678   8.9775   8.9806   9.4198
     9.4566   9.5000

          k = 0.1662 0.1667-0.5013 (   658 PWs)   bands (ev):

    -0.4642  -0.4636   5.1851   5.1855   5.4651   5.4659  10.9340  10.9343
    10.9391  10.9397

          k = 0.1662-0.5000 0.1671 (   658 PWs)   bands (ev):

    -0.4745  -0.4743   5.1877   5.1878   5.4725   5.4728  10.9501  10.9502
    10.9583  10.9586

          k = 0.1662-0.5000-0.5013 (   664 PWs)   bands (ev):

     1.5029   1.5033   1.5036   1.5037   7.2175   7.2180   7.2184   7.2184
    13.0158  13.0161

          k =-0.4987 0.1667 0.1671 (   658 PWs)   bands (ev):

    -0.4851  -0.4847   5.1947   5.1950   5.4748   5.4754  10.9762  10.9763
    10.9770  10.9775

          k =-0.4987 0.1667-0.5013 (   664 PWs)   bands (ev):

     1.4925   1.4930   1.4932   1.4935   7.2367   7.2374   7.2375   7.2379
    13.0682  13.0687

          k =-0.4987-0.5000 0.1671 (   664 PWs)   bands (ev):

     1.4822   1.4826   1.4829   1.4829   7.2562   7.2568   7.2570   7.2570
    13.1208  13.1210

          k =-0.4987-0.5000-0.5013 (   672 PWs)   bands (ev):

     3.3265   3.3266   3.3267   3.3272   3.5548   3.5558   3.5560   3.5563
    19.3032  19.3048

     the Fermi energy is     8.5707 ev

!    total energy              =    -158.04547507 Ry
     Harris-Foulkes estimate   =    -158.04547606 Ry
     estimated scf accuracy    <       0.00000055 Ry

     total all-electron energy =     -1942.616597 Ry

     The total energy is the sum of the following terms:

     one-electron contribution =      12.64947662 Ry
     hartree contribution      =       0.02533112 Ry
     xc contribution           =     -10.37011425 Ry
     ewald contribution        =     -21.63103990 Ry
     one-center paw contrib.   =    -138.71620107 Ry
     smearing contrib. (-TS)   =      -0.00292758 Ry

     convergence has been achieved in   6 iterations

     Forces acting on atoms (cartesian axes, Ry/au):

     atom    1 type  1   force =     0.00000000    0.00000000    0.00000000
     atom    2 type  1   force =     0.00000000    0.00000000    0.00000000
     atom    3 type  1   force =     0.00000000    0.00000000    0.00000000
     atom    4 type  1   force =     0.00000000    0.00000000    0.00000000

     Total force =     0.000000     Total SCF correction =     0.000000


     Computing stress (Cartesian axis) and pressure

          total   stress  (Ry/bohr**3)                   (kbar)     P=   -0.02
  -0.00003825   0.00000000   0.00000000         -5.63      0.00      0.00
   0.00000000  -0.00000092   0.00000000          0.00     -0.14      0.00
   0.00000000   0.00000000   0.00003882          0.00      0.00      5.71


     Writing output data file dNdccdgSbXyHmdoO.save/

     init_run     :      0.30s CPU      0.31s WALL (       1 calls)
     electrons    :      1.26s CPU      1.27s WALL (       1 calls)
     forces       :      0.03s CPU      0.04s WALL (       1 calls)
     stress       :      0.08s CPU      0.08s WALL (       1 calls)

     Called by init_run:
     wfcinit      :      0.03s CPU      0.03s WALL (       1 calls)
     potinit      :      0.16s CPU      0.16s WALL (       1 calls)
     hinit0       :      0.11s CPU      0.11s WALL (       1 calls)

     Called by electrons:
     c_bands      :      0.32s CPU      0.32s WALL (       7 calls)
     sum_band     :      0.05s CPU      0.05s WALL (       7 calls)
     v_of_rho     :      0.02s CPU      0.02s WALL (       7 calls)
     newd         :      0.02s CPU      0.02s WALL (       7 calls)
     PAW_pot      :      1.00s CPU      1.01s WALL (       7 calls)
     mix_rho      :      0.00s CPU      0.00s WALL (       7 calls)

     Called by c_bands:
     init_us_2    :      0.02s CPU      0.02s WALL (     136 calls)
     cegterg      :      0.30s CPU      0.30s WALL (      56 calls)

     Called by sum_band:
     sum_band:bec :      0.00s CPU      0.00s WALL (      56 calls)
     addusdens    :      0.01s CPU      0.01s WALL (       7 calls)

     Called by *egterg:
     h_psi        :      0.17s CPU      0.18s WALL (     180 calls)
     s_psi        :      0.04s CPU      0.04s WALL (     180 calls)
     g_psi        :      0.00s CPU      0.00s WALL (     116 calls)
     cdiaghg      :      0.02s CPU      0.02s WALL (     164 calls)

     Called by h_psi:
     h_psi:pot    :      0.17s CPU      0.17s WALL (     180 calls)
     h_psi:calbec :      0.05s CPU      0.05s WALL (     180 calls)
     vloc_psi     :      0.09s CPU      0.09s WALL (     180 calls)
     add_vuspsi   :      0.04s CPU      0.04s WALL (     180 calls)

     General routines
     calbec       :      0.07s CPU      0.07s WALL (     276 calls)
     fft          :      0.00s CPU      0.00s WALL (     103 calls)
     ffts         :      0.00s CPU      0.00s WALL (       7 calls)
     fftw         :      0.08s CPU      0.08s WALL (    3594 calls)

     Parallel routines

     PWSCF        :      2.02s CPU      2.04s WALL


   This run was terminated on:   2: 8: 1   9Oct2020            

=------------------------------------------------------------------------------=
   JOB DONE.
=------------------------------------------------------------------------------=
