--------------------------------------------------------------------------
WARNING: There was an error initializing an OpenFabrics device.

  Local host:   bear-pg0211u05b
  Local device: mlx5_0
--------------------------------------------------------------------------

     Program PWSCF v.6.3 starts on 11Jun2020 at  1:10:52 

     This program is part of the open-source Quantum ESPRESSO suite
     for quantum simulation of materials; please cite
         "P. Giannozzi et al., J. Phys.:Condens. Matter 21 395502 (2009);
         "P. Giannozzi et al., J. Phys.:Condens. Matter 29 465901 (2017);
          URL http://www.quantum-espresso.org", 
     in publications or presentations arising from this work. More details at
     http://www.quantum-espresso.org/quote

     Parallel version (MPI & OpenMP), running on      20 processor cores
     Number of MPI processes:                20
     Threads/MPI process:                     1

     MPI processes distributed on     1 nodes
     R & G space division:  proc/nbgrp/npool/nimage =      20
     Reading input from wd/relax/relax.in

     Current dimensions of program PWSCF are:
     Max number of different atomic species (ntypx) = 10
     Max number of k-points (npk) =  40000
     Max angular momentum in pseudopotentials (lmaxx) =  3
               file Fe.pbe-spn-kjpaw_psl.1.0.0.UPF: wavefunction(s)  3P 3D renormalized

     Subspace diagonalization in iterative solution of the eigenvalue problem:
     a serial algorithm will be used

     Found symmetry operation: I + (  0.2500  0.2500  0.2500)
     This is a supercell, fractional translations are disabled
 
     Parallelization info
     --------------------
     sticks:   dense  smooth     PW     G-vecs:    dense   smooth      PW
     Min         191     126     35                 8926     4786     711
     Max         193     127     36                 8929     4789     714
     Sum        3833    2537    717               178541    95769   14243
 


     bravais-lattice index     =            0
     lattice parameter (alat)  =      10.5840  a.u.
     unit-cell volume          =    1185.6309 (a.u.)^3
     number of atoms/cell      =           16
     number of atomic types    =            1
     number of electrons       =       256.00
     number of Kohn-Sham states=          154
     kinetic-energy cutoff     =      71.0000  Ry
     charge density cutoff     =     430.0000  Ry
     convergence threshold     =      5.0E-05
     mixing beta               =       0.1000
     number of iterations used =           10  plain     mixing
     Exchange-correlation      = SLA PW PBX PBC ( 1  4  3  4 0 0)
     nstep                     =           40


     celldm(1)=  10.584000  celldm(2)=   0.000000  celldm(3)=   0.000000
     celldm(4)=   0.000000  celldm(5)=   0.000000  celldm(6)=   0.000000

     crystal axes: (cart. coord. in units of alat)
               a(1) = (   1.000000   0.000000   0.000000 )  
               a(2) = (   0.000000   1.000000   0.000000 )  
               a(3) = (   0.000000   0.000000   1.000000 )  

     reciprocal axes: (cart. coord. in units 2 pi/alat)
               b(1) = (  1.000000  0.000000  0.000000 )  
               b(2) = (  0.000000  1.000000  0.000000 )  
               b(3) = (  0.000000  0.000000  1.000000 )  


     PseudoPot. # 1 for Fe read from file:
     /rds/homes/b/bxp912/pp/Fe.pbe-spn-kjpaw_psl.1.0.0.UPF
     MD5 check sum: 42f43b795421b414b0dc916aa790dbcb
     Pseudo is Projector augmented-wave + core cor, Zval = 16.0
     Generated using "atomic" code by A. Dal Corso v.6.3
     Shape of augmentation charge: PSQ
     Using radial grid of 1191 points,  6 beta functions with: 
                l(1) =   0
                l(2) =   0
                l(3) =   1
                l(4) =   1
                l(5) =   2
                l(6) =   2
     Q(r) pseudized with 0 coefficients 


     atomic species   valence    mass     pseudopotential
        Fe            16.00    55.84500     Fe( 1.00)

     48 Sym. Ops., with inversion, found



   Cartesian axes

     site n.     atom                  positions (alat units)
         1           Fe  tau(   1) = (   0.0000000   0.0000000   0.0000000  )
         2           Fe  tau(   2) = (   0.2500000   0.2500000   0.2500000  )
         3           Fe  tau(   3) = (   0.0000000   0.0000000   0.5000000  )
         4           Fe  tau(   4) = (   0.2500000   0.2500000   0.7500000  )
         5           Fe  tau(   5) = (   0.0000000   0.5000000   0.0000000  )
         6           Fe  tau(   6) = (   0.2500000   0.7500000   0.2500000  )
         7           Fe  tau(   7) = (   0.0000000   0.5000000   0.5000000  )
         8           Fe  tau(   8) = (   0.2500000   0.7500000   0.7500000  )
         9           Fe  tau(   9) = (   0.5000000   0.0000000   0.0000000  )
        10           Fe  tau(  10) = (   0.7500000   0.2500000   0.2500000  )
        11           Fe  tau(  11) = (   0.5000000   0.0000000   0.5000000  )
        12           Fe  tau(  12) = (   0.7500000   0.2500000   0.7500000  )
        13           Fe  tau(  13) = (   0.5000000   0.5000000   0.0000000  )
        14           Fe  tau(  14) = (   0.7500000   0.7500000   0.2500000  )
        15           Fe  tau(  15) = (   0.5000000   0.5000000   0.5000000  )
        16           Fe  tau(  16) = (   0.7500000   0.7500000   0.7500000  )

     number of k points=    35  Marzari-Vanderbilt smearing, width (Ry)=  0.0400
                       cart. coord. in units 2pi/alat
        k(    1) = (   0.0555556   0.0555556   0.0555556), wk =   0.0219479
        k(    2) = (   0.0555556   0.0555556   0.1666667), wk =   0.0658436
        k(    3) = (   0.0555556   0.0555556   0.2777778), wk =   0.0658436
        k(    4) = (   0.0555556   0.0555556   0.3888889), wk =   0.0658436
        k(    5) = (   0.0555556   0.0555556  -0.5000000), wk =   0.0329218
        k(    6) = (   0.0555556   0.1666667   0.1666667), wk =   0.0658436
        k(    7) = (   0.0555556   0.1666667   0.2777778), wk =   0.1316872
        k(    8) = (   0.0555556   0.1666667   0.3888889), wk =   0.1316872
        k(    9) = (   0.0555556   0.1666667  -0.5000000), wk =   0.0658436
        k(   10) = (   0.0555556   0.2777778   0.2777778), wk =   0.0658436
        k(   11) = (   0.0555556   0.2777778   0.3888889), wk =   0.1316872
        k(   12) = (   0.0555556   0.2777778  -0.5000000), wk =   0.0658436
        k(   13) = (   0.0555556   0.3888889   0.3888889), wk =   0.0658436
        k(   14) = (   0.0555556   0.3888889  -0.5000000), wk =   0.0658436
        k(   15) = (   0.0555556  -0.5000000  -0.5000000), wk =   0.0164609
        k(   16) = (   0.1666667   0.1666667   0.1666667), wk =   0.0219479
        k(   17) = (   0.1666667   0.1666667   0.2777778), wk =   0.0658436
        k(   18) = (   0.1666667   0.1666667   0.3888889), wk =   0.0658436
        k(   19) = (   0.1666667   0.1666667  -0.5000000), wk =   0.0329218
        k(   20) = (   0.1666667   0.2777778   0.2777778), wk =   0.0658436
        k(   21) = (   0.1666667   0.2777778   0.3888889), wk =   0.1316872
        k(   22) = (   0.1666667   0.2777778  -0.5000000), wk =   0.0658436
        k(   23) = (   0.1666667   0.3888889   0.3888889), wk =   0.0658436
        k(   24) = (   0.1666667   0.3888889  -0.5000000), wk =   0.0658436
        k(   25) = (   0.1666667  -0.5000000  -0.5000000), wk =   0.0164609
        k(   26) = (   0.2777778   0.2777778   0.2777778), wk =   0.0219479
        k(   27) = (   0.2777778   0.2777778   0.3888889), wk =   0.0658436
        k(   28) = (   0.2777778   0.2777778  -0.5000000), wk =   0.0329218
        k(   29) = (   0.2777778   0.3888889   0.3888889), wk =   0.0658436
        k(   30) = (   0.2777778   0.3888889  -0.5000000), wk =   0.0658436
        k(   31) = (   0.2777778  -0.5000000  -0.5000000), wk =   0.0164609
        k(   32) = (   0.3888889   0.3888889   0.3888889), wk =   0.0219479
        k(   33) = (   0.3888889   0.3888889  -0.5000000), wk =   0.0329218
        k(   34) = (   0.3888889  -0.5000000  -0.5000000), wk =   0.0164609
        k(   35) = (  -0.5000000  -0.5000000  -0.5000000), wk =   0.0027435

     Dense  grid:   178541 G-vectors     FFT dimensions: (  72,  72,  72)

     Smooth grid:    95769 G-vectors     FFT dimensions: (  60,  60,  60)

     Estimated max dynamical RAM per process >      99.38 MB

     Estimated total dynamical RAM >       1.94 GB

     Check: negative/imaginary core charge=   -0.000006    0.000000

     Initial potential from superposition of free atoms

     starting charge  255.99300, renormalised to  256.00000
     Starting wfcs are  160 randomized atomic wfcs
     Checking if some PAW data can be deallocated... 

     total cpu time spent up to now is        5.2 secs

     Self-consistent Calculation

     iteration #  1     ecut=    71.00 Ry     beta= 0.10
     Davidson diagonalization with overlap
     ethr =  1.00E-02,  avg # of iterations =  3.2

     Threshold (ethr) on eigenvalues was too large:
     Diagonalizing with lowered threshold

     Davidson diagonalization with overlap
     ethr =  2.22E-04,  avg # of iterations =  3.4

     total cpu time spent up to now is       33.7 secs

     total energy              =   -5267.73395149 Ry
     Harris-Foulkes estimate   =   -5267.83784255 Ry
     estimated scf accuracy    <       0.65835306 Ry

     iteration #  2     ecut=    71.00 Ry     beta= 0.10
     Davidson diagonalization with overlap
     ethr =  2.57E-04,  avg # of iterations =  1.1

     total cpu time spent up to now is       42.7 secs

     total energy              =   -5267.61959316 Ry
     Harris-Foulkes estimate   =   -5267.74775364 Ry
     estimated scf accuracy    <       0.32048971 Ry

     iteration #  3     ecut=    71.00 Ry     beta= 0.10
     Davidson diagonalization with overlap
     ethr =  1.25E-04,  avg # of iterations =  3.2

     total cpu time spent up to now is       58.5 secs

     total energy              =   -5267.68996355 Ry
     Harris-Foulkes estimate   =   -5267.71267168 Ry
     estimated scf accuracy    <       0.55877114 Ry

     iteration #  4     ecut=    71.00 Ry     beta= 0.10
     Davidson diagonalization with overlap
     ethr =  1.25E-04,  avg # of iterations =  1.0

     total cpu time spent up to now is       67.3 secs

     total energy              =   -5267.69654996 Ry
     Harris-Foulkes estimate   =   -5267.70197296 Ry
     estimated scf accuracy    <       0.02938525 Ry

     iteration #  5     ecut=    71.00 Ry     beta= 0.10
     Davidson diagonalization with overlap
     ethr =  1.15E-05,  avg # of iterations =  2.1

     total cpu time spent up to now is       78.1 secs

     total energy              =   -5267.69614030 Ry
     Harris-Foulkes estimate   =   -5267.69840265 Ry
     estimated scf accuracy    <       0.02088761 Ry

     iteration #  6     ecut=    71.00 Ry     beta= 0.10
     Davidson diagonalization with overlap
     ethr =  8.16E-06,  avg # of iterations =  2.7

     total cpu time spent up to now is       90.5 secs

     total energy              =   -5267.69855651 Ry
     Harris-Foulkes estimate   =   -5267.69795848 Ry
     estimated scf accuracy    <       0.01032627 Ry

     iteration #  7     ecut=    71.00 Ry     beta= 0.10
     Davidson diagonalization with overlap
     ethr =  4.03E-06,  avg # of iterations =  2.2

     total cpu time spent up to now is      101.3 secs

     total energy              =   -5267.69819982 Ry
     Harris-Foulkes estimate   =   -5267.69908710 Ry
     estimated scf accuracy    <       0.01256084 Ry

     iteration #  8     ecut=    71.00 Ry     beta= 0.10
     Davidson diagonalization with overlap
     ethr =  4.03E-06,  avg # of iterations =  1.0

     total cpu time spent up to now is      110.1 secs

     total energy              =   -5267.69819520 Ry
     Harris-Foulkes estimate   =   -5267.69891113 Ry
     estimated scf accuracy    <       0.01243144 Ry

     iteration #  9     ecut=    71.00 Ry     beta= 0.10
     Davidson diagonalization with overlap
     ethr =  4.03E-06,  avg # of iterations =  1.3

     total cpu time spent up to now is      119.5 secs

     total energy              =   -5267.69863983 Ry
     Harris-Foulkes estimate   =   -5267.69867102 Ry
     estimated scf accuracy    <       0.00056906 Ry

     iteration # 10     ecut=    71.00 Ry     beta= 0.10
     Davidson diagonalization with overlap
     ethr =  2.22E-07,  avg # of iterations =  2.9

     total cpu time spent up to now is      131.8 secs

     End of self-consistent calculation

          k = 0.0556 0.0556 0.0556 ( 11954 PWs)   bands (ev):

   -68.0209 -67.9413 -67.9413 -67.9412 -67.9285 -67.9285 -67.9283 -67.9274
   -67.9274 -67.9272 -67.9271 -67.9271 -67.9270 -67.9215 -67.9214 -67.8597
   -34.2758 -34.2758 -34.2758 -34.2733 -34.2732 -34.2732 -34.1393 -34.1393
   -34.1339 -34.0727 -34.0700 -34.0696 -34.0696 -34.0516 -34.0516 -34.0405
   -34.0401 -34.0401 -34.0098 -34.0098 -33.9898 -33.9775 -33.9775 -33.9775
   -33.9678 -33.9676 -33.9676 -33.9576 -33.9571 -33.9571 -33.9547 -33.9543
   -33.9543 -33.9473 -33.9473 -33.9472 -33.9380 -33.9380 -33.9380 -33.8008
   -33.7991 -33.7991 -33.7991 -33.7964 -33.7964 -33.7962 -33.7960 -33.7960
    10.4637  14.2441  14.2441  14.2442  14.4800  14.4801  14.4801  14.5069
    14.5070  14.5070  14.7646  14.7646  14.7646  14.7886  14.7886  16.1452
    16.2280  16.2280  16.2548  16.2548  16.2549  16.2676  16.2677  16.2677
    16.3564  16.3564  16.3966  16.6771  16.6772  16.6772  17.0415  17.0417
    17.0417  17.4674  17.4674  17.5119  17.7733  17.7734  17.7734  17.8708
    17.8708  17.8709  17.9512  17.9514  17.9514  18.0395  18.0395  18.0396
    18.7330  18.7334  18.7334  18.9377  18.9378  18.9378  18.9649  18.9651
    18.9651  19.0889  19.0889  19.0889  19.0902  19.0903  19.0903  19.1276
    19.1276  19.3650  19.3653  19.3653  19.3670  19.3670  19.3670  19.4068
    19.4068  19.4069  19.4069  19.8725  19.8727  19.8727  20.0690  20.1011
    20.1011  20.1011  20.1412  20.1412  20.5424  20.5426  20.5426  20.5470
    20.5470  20.5470

          k = 0.0556 0.0556 0.1667 ( 11961 PWs)   bands (ev):

   -68.0179 -67.9555 -67.9407 -67.9406 -67.9301 -67.9300 -67.9280 -67.9271
   -67.9270 -67.9268 -67.9264 -67.9263 -67.9221 -67.9217 -67.9137 -67.8619
   -34.2692 -34.2692 -34.2682 -34.2659 -34.2618 -34.2618 -34.1422 -34.1339
   -34.1258 -34.1035 -34.0962 -34.0960 -34.0946 -34.0934 -34.0679 -34.0677
   -34.0390 -34.0158 -34.0075 -34.0062 -33.9973 -33.9774 -33.9771 -33.9691
   -33.9622 -33.9606 -33.9602 -33.9590 -33.9582 -33.9525 -33.9522 -33.9477
   -33.9475 -33.9436 -33.9435 -33.9179 -33.9149 -33.9149 -33.9091 -33.8130
   -33.8068 -33.8067 -33.8056 -33.8032 -33.8001 -33.7990 -33.7990 -33.7975
    10.5957  13.6160  14.3025  14.3025  14.4834  14.4835  14.5666  14.5667
    14.5750  14.6006  14.8098  14.8098  14.8448  14.8494  15.1167  16.0446
    16.1494  16.1518  16.2374  16.2490  16.2588  16.3015  16.3016  16.3136
    16.3400  16.3400  16.5262  16.5396  16.6323  16.6324  16.9459  16.9461
    17.3643  17.4445  17.4644  17.5705  17.5753  17.5753  17.6352  17.7425
    17.7425  17.7865  18.0360  18.0361  18.1428  18.1430  18.1695  18.2625
    18.4372  18.4373  18.5066  18.7068  18.7069  18.7094  18.8570  18.9451
    18.9453  19.0339  19.0340  19.0608  19.1089  19.1114  19.1115  19.1334
    19.1553  19.1705  19.1706  19.1949  19.3678  19.3868  19.3870  19.4044
    19.4048  19.5692  19.6742  19.6742  19.8154  19.9084  20.0132  20.1094
    20.1095  20.1342  20.1759  20.1760  20.4513  20.4513  20.5904  20.5904
    20.7091  20.7092

          k = 0.0556 0.0556 0.2778 ( 11976 PWs)   bands (ev):

   -68.0124 -67.9694 -67.9396 -67.9395 -67.9320 -67.9319 -67.9273 -67.9268
   -67.9267 -67.9262 -67.9260 -67.9258 -67.9228 -67.9223 -67.9011 -67.8660
   -34.2541 -34.2541 -34.2534 -34.2516 -34.2421 -34.2421 -34.1424 -34.1384
   -34.1333 -34.1317 -34.1316 -34.1231 -34.1133 -34.1132 -34.1050 -34.1048
   -34.0360 -34.0260 -34.0257 -34.0115 -33.9758 -33.9755 -33.9714 -33.9697
   -33.9676 -33.9638 -33.9635 -33.9510 -33.9507 -33.9481 -33.9478 -33.9304
   -33.9238 -33.9139 -33.9138 -33.8901 -33.8869 -33.8868 -33.8821 -33.8337
   -33.8194 -33.8194 -33.8187 -33.8172 -33.8098 -33.8070 -33.8070 -33.8053
    10.8561  12.9512  14.3965  14.3965  14.5072  14.5073  14.6538  14.6538
    14.7574  14.7801  14.8679  14.8680  14.9491  14.9697  15.2835  15.8893
    15.9290  15.9684  16.1137  16.1564  16.2063  16.2162  16.4057  16.4058
    16.4694  16.4695  16.6168  16.6169  16.7597  16.7816  16.8759  16.8760
    17.3067  17.3068  17.4298  17.4570  17.4570  17.4586  17.4965  17.5355
    17.6572  17.9095  17.9096  17.9195  18.1047  18.1048  18.2765  18.2766
    18.2917  18.3002  18.3110  18.3111  18.3413  18.4287  18.5309  18.9291
    18.9434  18.9435  19.0330  19.0331  19.1437  19.1569  19.2076  19.2249
    19.2251  19.3504  19.3512  19.3724  19.3997  19.4017  19.4165  19.4406
    19.4406  19.4482  19.6253  19.6658  19.7826  19.8507  19.8507  20.0679
    20.1247  20.1247  20.2190  20.2190  20.3328  20.3328  20.6694  20.6694
    20.8355  20.8355

          k = 0.0556 0.0556 0.3889 ( 11969 PWs)   bands (ev):

   -68.0045 -67.9826 -67.9380 -67.9379 -67.9341 -67.9340 -67.9265 -67.9264
   -67.9262 -67.9259 -67.9258 -67.9252 -67.9239 -67.9231 -67.8898 -67.8721
   -34.2316 -34.2313 -34.2313 -34.2305 -34.2148 -34.2147 -34.1726 -34.1705
   -34.1681 -34.1680 -34.1441 -34.1440 -34.1405 -34.1270 -34.1072 -34.0965
   -34.0629 -34.0522 -34.0121 -34.0021 -33.9834 -33.9781 -33.9736 -33.9733
   -33.9673 -33.9670 -33.9498 -33.9495 -33.9484 -33.9481 -33.9319 -33.8947
   -33.8911 -33.8848 -33.8848 -33.8647 -33.8616 -33.8604 -33.8604 -33.8576
   -33.8375 -33.8373 -33.8369 -33.8369 -33.8241 -33.8199 -33.8199 -33.8183
    11.2376  12.3082  14.4856  14.4856  14.5327  14.5327  14.7548  14.7549
    14.8886  14.8887  15.0121  15.0298  15.0811  15.1469  15.2965  15.6290
    15.6343  15.6529  16.1121  16.1273  16.1689  16.1770  16.5631  16.5631
    16.6504  16.6504  16.7168  16.7169  16.9008  16.9010  17.0625  17.0632
    17.0633  17.0836  17.1709  17.1709  17.4148  17.4149  17.4258  17.4563
    17.4714  17.4830  17.5725  17.5726  17.7741  17.8562  17.8581  18.0947
    18.2073  18.4956  18.4957  18.5213  18.5214  18.7243  18.7370  18.8210
    18.8211  18.8349  18.9108  18.9109  19.1917  19.2001  19.2818  19.3012
    19.3036  19.3673  19.3790  19.3934  19.3991  19.4108  19.4857  19.4862
    19.5026  19.5028  19.6217  19.7054  19.7055  19.8777  19.8778  19.9546
    20.1166  20.1167  20.1444  20.1444  20.2221  20.2221  20.7667  20.7667
    20.8886  20.8886

          k = 0.0556 0.0556-0.5000 ( 11990 PWs)   bands (ev):

   -67.9943 -67.9943 -67.9363 -67.9361 -67.9360 -67.9359 -67.9263 -67.9261
   -67.9260 -67.9259 -67.9250 -67.9250 -67.9242 -67.9242 -67.8802 -67.8802
   -34.2039 -34.2038 -34.2037 -34.2036 -34.2021 -34.2021 -34.2021 -34.2020
   -34.1816 -34.1816 -34.1815 -34.1814 -34.1362 -34.1361 -34.0872 -34.0872
   -34.0761 -34.0760 -33.9978 -33.9977 -33.9903 -33.9902 -33.9707 -33.9707
   -33.9704 -33.9704 -33.9490 -33.9490 -33.9487 -33.9487 -33.8947 -33.8946
   -33.8632 -33.8632 -33.8619 -33.8619 -33.8591 -33.8590 -33.8590 -33.8589
   -33.8425 -33.8425 -33.8380 -33.8379 -33.8379 -33.8378 -33.8359 -33.8358
    11.7278  11.7278  14.5329  14.5329  14.5329  14.5330  14.8446  14.8446
    14.8447  14.8447  15.2108  15.2111  15.3151  15.3152  15.3246  15.3247
    15.3765  15.3765  16.1341  16.1343  16.1422  16.1424  16.7631  16.7631
    16.7633  16.7633  16.8515  16.8515  16.8516  16.8517  17.0352  17.0354
    17.0355  17.0355  17.1797  17.1799  17.1799  17.1799  17.4296  17.4298
    17.4373  17.4374  17.4438  17.4440  17.4634  17.4635  17.9208  17.9209
    18.4921  18.4921  18.6698  18.6698  18.6698  18.6700  18.7382  18.7382
    18.7382  18.7384  19.0439  19.0439  19.1601  19.1601  19.2460  19.2460
    19.2509  19.2510  19.3747  19.3748  19.3863  19.3863  19.4001  19.4001
    19.7396  19.7398  19.7398  19.7398  19.8033  19.8033  19.9369  19.9370
    19.9370  19.9370  20.1686  20.1687  20.1687  20.1688  20.8529  20.8529
    20.8530  20.8530

          k = 0.0556 0.1667 0.1667 ( 11981 PWs)   bands (ev):

   -68.0152 -67.9545 -67.9544 -67.9401 -67.9341 -67.9297 -67.9296 -67.9268
   -67.9261 -67.9260 -67.9231 -67.9228 -67.9218 -67.9140 -67.9139 -67.8639
   -34.2676 -34.2620 -34.2619 -34.2554 -34.2554 -34.2460 -34.1480 -34.1307
   -34.1234 -34.1194 -34.1191 -34.1124 -34.1123 -34.1062 -34.0858 -34.0476
   -34.0344 -34.0341 -34.0069 -34.0066 -34.0063 -33.9819 -33.9729 -33.9726
   -33.9686 -33.9663 -33.9660 -33.9569 -33.9566 -33.9530 -33.9511 -33.9451
   -33.9347 -33.9248 -33.9189 -33.9187 -33.8984 -33.8875 -33.8873 -33.8303
   -33.8194 -33.8120 -33.8120 -33.8056 -33.8055 -33.8043 -33.7966 -33.7955
    10.7263  13.6922  13.6922  14.3659  14.4174  14.5801  14.5801  14.6594
    14.6595  14.6739  14.8622  14.9042  14.9059  15.1587  15.1588  15.9536
    16.0573  16.2222  16.2816  16.2817  16.3016  16.3016  16.3158  16.3159
    16.3221  16.3283  16.4371  16.5063  16.5498  16.5750  16.8459  17.1976
    17.1979  17.3879  17.4490  17.4490  17.4499  17.4932  17.6280  17.6664
    17.9477  17.9480  18.0154  18.0155  18.0450  18.1134  18.2055  18.2866
    18.2866  18.3063  18.3064  18.4671  18.4672  18.6023  18.7199  18.7202
    18.9363  19.0494  19.0542  19.0542  19.1074  19.1074  19.1080  19.1326
    19.1361  19.3003  19.3431  19.3730  19.3731  19.3910  19.3911  19.3960
    19.3974  19.4933  19.4935  19.6977  19.7970  19.7972  19.8028  19.8029
    19.9187  20.1391  20.1585  20.2813  20.3483  20.6622  20.9929  20.9931
    21.1922  21.2950

          k = 0.0556 0.1667 0.2778 ( 11967 PWs)   bands (ev):

   -68.0098 -67.9680 -67.9525 -67.9390 -67.9382 -67.9315 -67.9288 -67.9265
   -67.9256 -67.9254 -67.9237 -67.9221 -67.9204 -67.9145 -67.9018 -67.8678
   -34.2574 -34.2476 -34.2476 -34.2426 -34.2369 -34.2215 -34.1529 -34.1521
   -34.1483 -34.1392 -34.1367 -34.1364 -34.1202 -34.1146 -34.0954 -34.0728
   -34.0382 -34.0349 -34.0035 -34.0031 -34.0011 -33.9978 -33.9833 -33.9771
   -33.9764 -33.9701 -33.9648 -33.9552 -33.9528 -33.9421 -33.9384 -33.9216
   -33.9208 -33.9075 -33.9008 -33.8917 -33.8771 -33.8623 -33.8619 -33.8552
   -33.8365 -33.8224 -33.8224 -33.8184 -33.8136 -33.8120 -33.7990 -33.7982
    10.9839  13.0442  13.8288  14.3540  14.4698  14.6056  14.7465  14.7659
    14.8043  14.8370  14.9343  15.0078  15.0238  15.2008  15.3307  15.8416
    15.9133  15.9792  16.1681  16.2462  16.2467  16.2741  16.3310  16.3782
    16.4000  16.4332  16.5332  16.5904  16.6586  16.7235  16.7533  17.0705
    17.2089  17.3020  17.3239  17.3361  17.3747  17.4157  17.4352  17.6048
    17.6504  17.7897  17.8079  17.9443  18.0052  18.0731  18.0852  18.1251
    18.1913  18.2872  18.3059  18.3516  18.3788  18.5007  18.5241  18.8235
    18.9483  18.9663  19.0030  19.0347  19.0643  19.0949  19.1293  19.1754
    19.3220  19.3352  19.3365  19.3921  19.3974  19.4194  19.4212  19.4330
    19.4799  19.5797  19.6003  19.6035  19.6163  19.6461  19.6964  19.7771
    19.8951  20.0931  20.1433  20.2058  20.3422  20.7965  20.8368  21.3732
    21.4432  21.5995

          k = 0.0556 0.1667 0.3889 ( 11978 PWs)   bands (ev):

   -68.0021 -67.9808 -67.9498 -67.9424 -67.9374 -67.9335 -67.9277 -67.9262
   -67.9256 -67.9250 -67.9246 -67.9228 -67.9183 -67.9153 -67.8909 -67.8738
   -34.2395 -34.2269 -34.2266 -34.2243 -34.2117 -34.1902 -34.1849 -34.1754
   -34.1699 -34.1699 -34.1551 -34.1479 -34.1477 -34.1138 -34.1048 -34.0759
   -34.0614 -34.0283 -34.0232 -33.9983 -33.9962 -33.9904 -33.9850 -33.9819
   -33.9751 -33.9745 -33.9600 -33.9544 -33.9535 -33.9327 -33.9239 -33.9113
   -33.8899 -33.8861 -33.8814 -33.8771 -33.8671 -33.8578 -33.8559 -33.8399
   -33.8390 -33.8377 -33.8372 -33.8370 -33.8274 -33.8227 -33.8071 -33.8068
    11.3606  12.4144  13.9947  14.2716  14.5711  14.6313  14.8472  14.9483
    14.9700  15.0250  15.0818  15.1397  15.1816  15.1953  15.3502  15.6403
    15.6487  15.6802  16.1448  16.1826  16.2036  16.2255  16.4778  16.5173
    16.5314  16.5837  16.5864  16.7264  16.7917  16.9195  16.9276  16.9889
    17.1118  17.1205  17.1699  17.1890  17.3014  17.3029  17.3448  17.3625
    17.3924  17.4197  17.4697  17.5947  17.6534  17.6578  17.9359  18.2930
    18.3358  18.4719  18.4746  18.5280  18.5313  18.5484  18.7038  18.7806
    18.7925  18.8467  18.9121  18.9503  19.1071  19.1517  19.1732  19.2507
    19.2802  19.2853  19.2907  19.3897  19.3958  19.4048  19.4080  19.4601
    19.4738  19.5054  19.5372  19.6533  19.6567  19.7398  19.7897  19.8796
    19.8829  19.8913  20.0712  20.2525  20.3206  20.6621  20.9711  21.2987
    21.6154  21.7771

          k = 0.0556 0.1667-0.5000 ( 11984 PWs)   bands (ev):

   -67.9922 -67.9922 -67.9463 -67.9463 -67.9355 -67.9355 -67.9264 -67.9263
   -67.9258 -67.9258 -67.9237 -67.9237 -67.9166 -67.9166 -67.8815 -67.8815
   -34.2149 -34.2148 -34.2014 -34.2014 -34.2005 -34.2005 -34.2000 -34.1999
   -34.1813 -34.1812 -34.1540 -34.1539 -34.1537 -34.1536 -34.0849 -34.0849
   -34.0535 -34.0534 -34.0066 -34.0065 -33.9922 -33.9922 -33.9863 -33.9862
   -33.9787 -33.9787 -33.9539 -33.9539 -33.9278 -33.9278 -33.9216 -33.9215
   -33.8830 -33.8829 -33.8613 -33.8613 -33.8578 -33.8577 -33.8556 -33.8555
   -33.8453 -33.8453 -33.8375 -33.8374 -33.8211 -33.8210 -33.8204 -33.8203
    11.8438  11.8438  14.1514  14.1515  14.6277  14.6278  14.9344  14.9345
    15.0856  15.0857  15.2684  15.2686  15.3319  15.3320  15.3650  15.3651
    15.4162  15.4162  16.1647  16.1648  16.1865  16.1867  16.6663  16.6663
    16.6818  16.6819  16.7095  16.7095  16.7589  16.7590  17.0645  17.0646
    17.0933  17.0933  17.1500  17.1500  17.2596  17.2596  17.2643  17.2645
    17.2890  17.2890  17.3071  17.3073  17.4067  17.4068  18.1044  18.1045
    18.5688  18.5688  18.5851  18.5852  18.6983  18.6984  18.7409  18.7409
    18.7753  18.7754  18.7828  18.7828  19.0956  19.0957  19.2162  19.2163
    19.2281  19.2281  19.3461  19.3462  19.3896  19.3896  19.4256  19.4256
    19.5279  19.5280  19.6194  19.6194  19.7202  19.7203  19.7941  19.7941
    19.9500  19.9501  20.0984  20.0985  20.4808  20.4809  21.1519  21.1520
    21.7531  21.7532

          k = 0.0556 0.2778 0.2778 ( 11991 PWs)   bands (ev):

   -68.0048 -67.9653 -67.9652 -67.9446 -67.9378 -67.9306 -67.9305 -67.9262
   -67.9252 -67.9251 -67.9249 -67.9224 -67.9155 -67.9033 -67.9031 -67.8716
   -34.2523 -34.2355 -34.2355 -34.2270 -34.2269 -34.1935 -34.1661 -34.1658
   -34.1635 -34.1621 -34.1541 -34.1512 -34.1325 -34.1107 -34.0745 -34.0391
   -34.0366 -34.0363 -34.0303 -34.0301 -33.9991 -33.9905 -33.9901 -33.9823
   -33.9821 -33.9709 -33.9705 -33.9637 -33.9633 -33.9580 -33.9271 -33.9015
   -33.8955 -33.8952 -33.8886 -33.8847 -33.8835 -33.8632 -33.8573 -33.8400
   -33.8397 -33.8290 -33.8289 -33.8224 -33.8219 -33.8219 -33.7962 -33.7953
    11.2353  13.2191  13.2191  14.1774  14.5939  14.7941  14.7942  14.9223
    14.9224  14.9608  15.0359  15.1042  15.1415  15.3770  15.3770  15.7831
    15.8340  16.0433  16.0433  16.2234  16.2892  16.3299  16.3299  16.3707
    16.3708  16.4424  16.4504  16.6059  16.6259  16.7039  16.7663  17.1118
    17.1118  17.2082  17.2326  17.2328  17.2405  17.2441  17.3001  17.4044
    17.6132  17.6133  17.6652  17.6652  17.8071  17.8838  17.8841  17.9551
    18.3700  18.3701  18.4212  18.4577  18.4988  18.4990  18.7005  18.7767
    18.7771  18.9412  19.0131  19.0132  19.0387  19.0568  19.0569  19.1163
    19.1528  19.2959  19.2972  19.3051  19.3903  19.3997  19.4326  19.4855
    19.4914  19.4916  19.5398  19.5605  19.5605  19.6633  19.6635  19.8336
    19.8336  19.8691  20.1916  20.3683  20.3744  21.0199  21.4316  21.4318
    22.0109  22.0111

          k = 0.0556 0.2778 0.3889 ( 11985 PWs)   bands (ev):

   -67.9974 -67.9773 -67.9613 -67.9507 -67.9363 -67.9325 -67.9293 -67.9264
   -67.9258 -67.9251 -67.9244 -67.9229 -67.9113 -67.9052 -67.8930 -67.8770
   -34.2392 -34.2179 -34.2177 -34.2130 -34.2059 -34.1947 -34.1788 -34.1742
   -34.1732 -34.1727 -34.1708 -34.1590 -34.1558 -34.0959 -34.0783 -34.0549
   -34.0512 -34.0296 -34.0228 -34.0022 -33.9987 -33.9978 -33.9977 -33.9935
   -33.9930 -33.9878 -33.9737 -33.9630 -33.9612 -33.9395 -33.9195 -33.9169
   -33.9009 -33.8819 -33.8781 -33.8724 -33.8696 -33.8661 -33.8493 -33.8390
   -33.8384 -33.8368 -33.8352 -33.8283 -33.8215 -33.8210 -33.7990 -33.7983
    11.6020  12.6191  13.4533  13.9631  14.7230  14.8186  15.0207  15.0550
    15.1091  15.1170  15.1615  15.2243  15.3124  15.3549  15.4100  15.6434
    15.6549  15.7707  16.2081  16.2208  16.2469  16.2729  16.3002  16.4309
    16.4395  16.4751  16.5535  16.5592  16.7557  16.8501  16.8622  16.8946
    16.9969  17.0802  17.0976  17.1486  17.1644  17.1882  17.2494  17.2818
    17.2930  17.3390  17.3587  17.3691  17.4813  17.5656  18.1393  18.1556
    18.4928  18.5142  18.5567  18.5957  18.5960  18.6059  18.6073  18.6884
    18.7876  18.8445  18.9011  18.9380  18.9586  19.0652  19.0806  19.1054
    19.2015  19.2168  19.2339  19.2379  19.3337  19.3955  19.4114  19.4159
    19.4342  19.4984  19.5060  19.5267  19.5331  19.6031  19.6261  19.6834
    19.9924  20.0475  20.1809  20.3243  20.6155  21.1700  21.2957  21.8313
    22.0706  22.6569

          k = 0.0556 0.2778-0.5000 ( 11998 PWs)   bands (ev):

   -67.9882 -67.9881 -67.9565 -67.9564 -67.9345 -67.9345 -67.9279 -67.9279
   -67.9254 -67.9254 -67.9236 -67.9236 -67.9079 -67.9079 -67.8842 -67.8842
   -34.2197 -34.2197 -34.1965 -34.1965 -34.1964 -34.1964 -34.1963 -34.1962
   -34.1813 -34.1813 -34.1748 -34.1747 -34.1201 -34.1201 -34.0771 -34.0771
   -34.0258 -34.0257 -34.0145 -34.0144 -34.0133 -34.0133 -33.9919 -33.9918
   -33.9845 -33.9844 -33.9625 -33.9624 -33.9581 -33.9581 -33.9095 -33.9094
   -33.9082 -33.9082 -33.8559 -33.8559 -33.8527 -33.8526 -33.8520 -33.8520
   -33.8510 -33.8509 -33.8375 -33.8374 -33.8075 -33.8075 -33.8072 -33.8071
    12.0701  12.0702  13.7135  13.7136  14.8037  14.8038  15.0988  15.0988
    15.2571  15.2572  15.3413  15.3414  15.3564  15.3564  15.4268  15.4269
    15.5244  15.5245  16.2243  16.2244  16.2475  16.2476  16.4970  16.4971
    16.5094  16.5096  16.5274  16.5274  16.7042  16.7042  17.0222  17.0223
    17.0615  17.0615  17.0740  17.0740  17.0894  17.0896  17.1151  17.1151
    17.2639  17.2639  17.2648  17.2648  17.3330  17.3331  18.3393  18.3393
    18.4609  18.4609  18.5240  18.5240  18.6894  18.6894  18.7624  18.7625
    18.7789  18.7790  18.8089  18.8089  18.9375  18.9376  19.1584  19.1584
    19.1701  19.1701  19.2946  19.2947  19.3335  19.3336  19.4080  19.4080
    19.4355  19.4355  19.4532  19.4532  19.5379  19.5379  19.6564  19.6564
    20.1116  20.1116  20.2153  20.2154  20.8917  20.8918  21.5795  21.5796
    22.7294  22.7296

          k = 0.0556 0.3889 0.3889 ( 12008 PWs)   bands (ev):

   -67.9907 -67.9724 -67.9723 -67.9587 -67.9348 -67.9313 -67.9312 -67.9280
   -67.9253 -67.9246 -67.9244 -67.9233 -67.9053 -67.8962 -67.8960 -67.8819
   -34.2317 -34.2057 -34.2057 -34.1986 -34.1985 -34.1973 -34.1971 -34.1842
   -34.1840 -34.1819 -34.1806 -34.1676 -34.1223 -34.0825 -34.0454 -34.0451
   -34.0396 -34.0393 -34.0277 -34.0244 -34.0185 -34.0035 -34.0032 -34.0019
   -33.9894 -33.9734 -33.9732 -33.9682 -33.9679 -33.9678 -33.9577 -33.9087
   -33.9027 -33.8804 -33.8802 -33.8636 -33.8581 -33.8558 -33.8470 -33.8433
   -33.8419 -33.8418 -33.8375 -33.8375 -33.8075 -33.8073 -33.7959 -33.7955
    11.9520  12.9059  12.9060  13.6136  14.8972  15.0712  15.0712  15.2467
    15.2490  15.2491  15.2568  15.3121  15.4146  15.4146  15.4944  15.5555
    15.6239  15.9634  15.9634  16.2499  16.2639  16.3348  16.3515  16.3516
    16.3600  16.3600  16.4449  16.5483  16.6271  16.7036  16.8097  16.9067
    16.9067  16.9834  17.0468  17.0520  17.0520  17.0559  17.0881  17.0882
    17.2323  17.2326  17.2335  17.3153  17.3327  17.8282  17.8285  18.3595
    18.4527  18.5292  18.5849  18.5851  18.7017  18.7018  18.7178  18.7264
    18.8293  18.8297  18.8725  18.9466  18.9813  18.9813  18.9816  18.9980
    18.9981  19.1623  19.1652  19.1793  19.2597  19.3458  19.3458  19.3700
    19.4098  19.4381  19.4676  19.4679  19.5017  19.5542  19.5544  19.5758
    20.1637  20.1637  20.2363  20.3340  20.9698  21.6717  21.7148  21.7150
    22.4115  22.4116

          k = 0.0556 0.3889-0.5000 ( 11996 PWs)   bands (ev):

   -67.9823 -67.9823 -67.9660 -67.9660 -67.9331 -67.9331 -67.9296 -67.9296
   -67.9249 -67.9248 -67.9238 -67.9238 -67.9002 -67.9002 -67.8883 -67.8882
   -34.2171 -34.2170 -34.1933 -34.1932 -34.1930 -34.1929 -34.1924 -34.1924
   -34.1908 -34.1908 -34.1828 -34.1827 -34.0814 -34.0814 -34.0655 -34.0655
   -34.0330 -34.0330 -34.0179 -34.0178 -34.0051 -34.0051 -33.9987 -33.9987
   -33.9965 -33.9964 -33.9826 -33.9826 -33.9716 -33.9715 -33.9380 -33.9379
   -33.8903 -33.8903 -33.8621 -33.8620 -33.8494 -33.8493 -33.8485 -33.8484
   -33.8475 -33.8474 -33.8395 -33.8394 -33.7988 -33.7988 -33.7986 -33.7985
    12.3945  12.3945  13.2491  13.2491  15.0270  15.0271  15.2979  15.2979
    15.3435  15.3436  15.3594  15.3594  15.3871  15.3872  15.4787  15.4788
    15.7170  15.7171  16.2359  16.2361  16.2791  16.2791  16.2819  16.2819
    16.3442  16.3443  16.3984  16.3985  16.7469  16.7469  16.8350  16.8351
    16.9187  16.9187  16.9308  16.9308  16.9588  16.9589  16.9913  16.9914
    17.2416  17.2417  17.2696  17.2697  17.5158  17.5158  18.1274  18.1274
    18.5248  18.5249  18.5897  18.5898  18.7566  18.7566  18.8116  18.8116
    18.8584  18.8584  18.8589  18.8590  18.8623  18.8623  19.0738  19.0738
    19.0800  19.0800  19.1030  19.1031  19.2360  19.2361  19.2811  19.2811
    19.4319  19.4319  19.4795  19.4795  19.4896  19.4896  19.5649  19.5649
    20.2292  20.2293  20.2802  20.2802  21.3440  21.3441  22.0554  22.0556
    22.2751  22.2753

          k = 0.0556-0.5000-0.5000 ( 11996 PWs)   bands (ev):

   -67.9748 -67.9748 -67.9747 -67.9747 -67.9315 -67.9315 -67.9314 -67.9314
   -67.9243 -67.9243 -67.9242 -67.9242 -67.8936 -67.8936 -67.8935 -67.8935
   -34.2078 -34.2078 -34.2076 -34.2075 -34.1913 -34.1912 -34.1912 -34.1912
   -34.1860 -34.1859 -34.1859 -34.1859 -34.0507 -34.0507 -34.0505 -34.0505
   -34.0407 -34.0405 -34.0402 -34.0402 -34.0147 -34.0147 -34.0145 -34.0144
   -33.9788 -33.9788 -33.9786 -33.9785 -33.9673 -33.9671 -33.9668 -33.9668
   -33.8751 -33.8751 -33.8748 -33.8748 -33.8467 -33.8466 -33.8465 -33.8465
   -33.8436 -33.8435 -33.8435 -33.8435 -33.7959 -33.7959 -33.7957 -33.7956
    12.7970  12.7970  12.7970  12.7971  15.2326  15.2327  15.2327  15.2327
    15.3979  15.3979  15.3979  15.3980  15.4498  15.4498  15.4499  15.4499
    15.9639  15.9640  15.9640  15.9642  16.2748  16.2748  16.2748  16.2749
    16.3199  16.3199  16.3199  16.3200  16.8209  16.8209  16.8209  16.8209
    16.8336  16.8336  16.8336  16.8337  16.9054  16.9054  16.9055  16.9055
    17.2372  17.2372  17.2374  17.2376  17.8070  17.8071  17.8074  17.8074
    18.6064  18.6064  18.6067  18.6067  18.8421  18.8422  18.8425  18.8425
    18.8839  18.8839  18.8839  18.8839  18.9695  18.9695  18.9695  18.9695
    18.9709  18.9709  18.9710  18.9710  19.2154  19.2154  19.2154  19.2155
    19.4576  19.4576  19.4579  19.4579  19.5116  19.5116  19.5119  19.5119
    20.2863  20.2863  20.2863  20.2864  21.8101  21.8104  21.8105  21.8105
    22.5415  22.5417

          k = 0.1667 0.1667 0.1667 ( 12005 PWs)   bands (ev):

   -68.0126 -67.9535 -67.9535 -67.9534 -67.9336 -67.9336 -67.9335 -67.9241
   -67.9230 -67.9230 -67.9228 -67.9212 -67.9143 -67.9143 -67.9141 -67.8658
   -34.2602 -34.2602 -34.2602 -34.2407 -34.2406 -34.2406 -34.1424 -34.1424
   -34.1408 -34.1339 -34.1336 -34.1336 -34.0959 -34.0884 -34.0884 -34.0541
   -34.0536 -34.0536 -34.0129 -34.0129 -34.0128 -33.9761 -33.9756 -33.9756
   -33.9660 -33.9660 -33.9523 -33.9520 -33.9520 -33.9489 -33.9485 -33.9485
   -33.9209 -33.9209 -33.9208 -33.9132 -33.8739 -33.8737 -33.8737 -33.8481
   -33.8224 -33.8223 -33.8223 -33.8035 -33.8035 -33.8035 -33.8005 -33.8005
    10.8557  13.7716  13.7716  13.7716  14.5185  14.5186  14.5186  14.7639
    14.7640  14.7640  14.9625  14.9625  15.2103  15.2104  15.2104  15.8789
    16.1613  16.1613  16.2769  16.2769  16.2769  16.3023  16.3023  16.3023
    16.3872  16.4043  16.4044  16.4044  16.4821  16.4821  17.0561  17.0563
    17.0563  17.3744  17.3744  17.3745  17.3765  17.3765  17.7728  17.7769
    17.7771  17.7771  17.9432  17.9432  17.9432  18.1234  18.1234  18.1236
    18.2988  18.2988  18.2989  18.3776  18.3776  18.3776  18.9036  18.9041
    18.9041  18.9700  18.9700  18.9700  19.0810  19.0810  19.1087  19.1088
    19.1088  19.3457  19.3459  19.3459  19.3732  19.3732  19.3758  19.3758
    19.4429  19.4880  19.4880  19.4880  19.8007  19.8007  19.8007  20.0075
    20.0077  20.0077  20.0318  20.0318  20.7069  20.7071  20.7071  21.4052
    21.4052  21.4052

          k = 0.1667 0.1667 0.2778 ( 11953 PWs)   bands (ev):

   -68.0073 -67.9666 -67.9516 -67.9515 -67.9376 -67.9375 -67.9324 -67.9257
   -67.9225 -67.9209 -67.9204 -67.9202 -67.9147 -67.9146 -67.9025 -67.8696
   -34.2503 -34.2503 -34.2455 -34.2302 -34.2179 -34.2178 -34.1592 -34.1575
   -34.1574 -34.1516 -34.1485 -34.1311 -34.1273 -34.0845 -34.0843 -34.0761
   -34.0690 -34.0421 -34.0179 -34.0136 -34.0135 -33.9891 -33.9858 -33.9855
   -33.9792 -33.9728 -33.9544 -33.9411 -33.9408 -33.9277 -33.9263 -33.9262
   -33.9233 -33.9231 -33.8924 -33.8915 -33.8739 -33.8553 -33.8553 -33.8516
   -33.8370 -33.8369 -33.8291 -33.8162 -33.8101 -33.8052 -33.8052 -33.8005
    11.1106  13.1389  13.9145  13.9145  14.4590  14.4590  14.7138  14.8930
    14.8931  14.9352  15.0698  15.0741  15.2703  15.2703  15.3891  15.8029
    15.9787  15.9956  16.1396  16.2675  16.2818  16.2819  16.3476  16.3500
    16.3767  16.3767  16.4917  16.5397  16.5398  16.6836  16.9201  16.9203
    17.1859  17.2055  17.2056  17.2859  17.3036  17.3561  17.5373  17.5374
    17.5382  17.5382  17.7481  17.8642  17.8643  17.8806  17.9163  17.9599
    18.2398  18.3312  18.3312  18.4620  18.4620  18.6115  18.6881  18.8688
    18.8688  18.9740  19.0306  19.0565  19.0565  19.1273  19.1358  19.1405
    19.1540  19.1543  19.3321  19.3330  19.3510  19.3718  19.3862  19.3885
    19.3885  19.5863  19.6421  19.6421  19.6696  19.7333  19.8046  19.8049
    19.8049  20.0745  20.0821  20.0822  20.4586  20.4587  21.3001  21.5971
    21.5971  22.0440

          k = 0.1667 0.1667 0.3889 ( 11970 PWs)   bands (ev):

   -67.9997 -67.9790 -67.9489 -67.9488 -67.9417 -67.9416 -67.9310 -67.9274
   -67.9220 -67.9211 -67.9183 -67.9182 -67.9155 -67.9154 -67.8919 -67.8754
   -34.2335 -34.2335 -34.2240 -34.2159 -34.1891 -34.1890 -34.1847 -34.1846
   -34.1787 -34.1639 -34.1578 -34.1572 -34.1200 -34.1199 -34.1150 -34.0697
   -34.0549 -34.0483 -34.0101 -34.0098 -34.0067 -34.0058 -33.9953 -33.9950
   -33.9801 -33.9731 -33.9617 -33.9351 -33.9348 -33.9265 -33.9262 -33.9058
   -33.9004 -33.9003 -33.8926 -33.8713 -33.8663 -33.8549 -33.8549 -33.8394
   -33.8378 -33.8378 -33.8363 -33.8323 -33.8247 -33.8117 -33.8117 -33.8060
    11.4831  12.5214  14.0890  14.0890  14.3775  14.3776  14.9879  15.0371
    15.0371  15.1684  15.2050  15.2375  15.2660  15.2660  15.4151  15.6610
    15.6697  15.6980  16.1494  16.2235  16.2495  16.2841  16.3991  16.3992
    16.4982  16.4982  16.6925  16.6926  16.7533  16.8046  16.8047  16.9276
    17.0851  17.0851  17.1544  17.1545  17.2361  17.2506  17.2550  17.2825
    17.2825  17.3288  17.4414  17.4415  17.4620  17.4879  18.0822  18.1964
    18.4261  18.4723  18.5538  18.5539  18.5619  18.5619  18.7610  18.7611
    18.8071  18.8204  18.8912  18.9439  18.9439  19.1083  19.1697  19.2222
    19.2685  19.2808  19.3570  19.3684  19.3727  19.3729  19.4104  19.4379
    19.4518  19.4518  19.5143  19.5597  19.8091  19.8091  19.8327  19.8486
    19.8486  20.0480  20.0546  20.0547  20.2182  20.2183  21.8234  21.8234
    21.9546  22.1255

          k = 0.1667 0.1667-0.5000 ( 11958 PWs)   bands (ev):

   -67.9902 -67.9902 -67.9457 -67.9455 -67.9454 -67.9453 -67.9292 -67.9292
   -67.9215 -67.9215 -67.9168 -67.9166 -67.9165 -67.9164 -67.8828 -67.8828
   -34.2110 -34.2110 -34.2110 -34.2108 -34.1980 -34.1980 -34.1965 -34.1965
   -34.1599 -34.1598 -34.1558 -34.1557 -34.1556 -34.1555 -34.0942 -34.0942
   -34.0313 -34.0312 -34.0269 -34.0268 -34.0035 -34.0034 -34.0032 -34.0032
   -33.9688 -33.9687 -33.9420 -33.9420 -33.9304 -33.9304 -33.9301 -33.9301
   -33.8762 -33.8762 -33.8761 -33.8759 -33.8617 -33.8617 -33.8537 -33.8536
   -33.8437 -33.8436 -33.8228 -33.8227 -33.8227 -33.8226 -33.8170 -33.8169
    11.9599  11.9599  14.2536  14.2537  14.2537  14.2537  15.1746  15.1747
    15.1747  15.1747  15.3179  15.3179  15.3353  15.3355  15.4293  15.4294
    15.4478  15.4478  16.1808  16.1810  16.2385  16.2386  16.6323  16.6324
    16.6324  16.6326  16.6529  16.6530  16.6531  16.6532  17.0674  17.0675
    17.0676  17.0676  17.0811  17.0812  17.1616  17.1616  17.1616  17.1617
    17.2029  17.2031  17.2256  17.2257  17.2965  17.2966  18.2683  18.2684
    18.4854  18.4854  18.6312  18.6312  18.6544  18.6544  18.6544  18.6545
    18.7740  18.7740  18.7740  18.7741  19.1912  19.1912  19.1999  19.1999
    19.2236  19.2237  19.3210  19.3211  19.3632  19.3633  19.4616  19.4616
    19.4683  19.4684  19.4684  19.4684  19.9553  19.9553  19.9553  19.9554
    19.9633  19.9633  19.9946  19.9947  19.9947  19.9948  22.0246  22.0246
    22.0247  22.0247

          k = 0.1667 0.2778 0.2778 ( 11979 PWs)   bands (ev):

   -68.0024 -67.9640 -67.9639 -67.9497 -67.9437 -67.9364 -67.9363 -67.9279
   -67.9203 -67.9202 -67.9200 -67.9156 -67.9151 -67.9038 -67.9037 -67.8732
   -34.2451 -34.2365 -34.2364 -34.2113 -34.2112 -34.1917 -34.1699 -34.1692
   -34.1689 -34.1688 -34.1574 -34.1359 -34.1281 -34.1050 -34.0786 -34.0537
   -34.0498 -34.0495 -34.0429 -34.0428 -34.0224 -34.0016 -34.0013 -34.0007
   -33.9602 -33.9528 -33.9526 -33.9462 -33.9459 -33.9283 -33.9265 -33.9135
   -33.9056 -33.9023 -33.8954 -33.8953 -33.8759 -33.8546 -33.8456 -33.8387
   -33.8387 -33.8367 -33.8365 -33.8177 -33.8176 -33.8161 -33.8026 -33.8007
    11.3600  13.3174  13.3175  14.0705  14.2875  14.6616  14.6617  15.0481
    15.0607  15.0608  15.1674  15.1896  15.3706  15.4557  15.4557  15.7765
    15.9280  16.0221  16.0221  16.1935  16.2326  16.3346  16.3346  16.3791
    16.3906  16.4272  16.4544  16.4545  16.6635  16.6930  16.7746  17.0204
    17.0204  17.1041  17.1512  17.1513  17.2003  17.2197  17.3031  17.3648
    17.4072  17.4072  17.5289  17.5289  17.5944  17.6839  17.6841  18.0897
    18.4277  18.4278  18.4581  18.5706  18.6373  18.6374  18.7696  18.8065
    18.9491  18.9491  18.9529  18.9532  18.9771  19.0406  19.0756  19.0756
    19.1158  19.3028  19.3061  19.3075  19.3310  19.3591  19.3675  19.3677
    19.3832  19.5549  19.5549  19.6613  19.6917  19.7990  19.7990  19.8148
    19.8150  19.8954  20.0662  20.1589  20.1611  20.9734  20.9736  21.8569
    22.6006  22.6006

          k = 0.1667 0.2778 0.3889 ( 11972 PWs)   bands (ev):

   -67.9952 -67.9756 -67.9601 -67.9497 -67.9471 -67.9402 -67.9346 -67.9301
   -67.9199 -67.9199 -67.9182 -67.9158 -67.9115 -67.9057 -67.8939 -67.8785
   -34.2325 -34.2220 -34.2163 -34.2021 -34.1923 -34.1871 -34.1852 -34.1805
   -34.1736 -34.1666 -34.1627 -34.1600 -34.1312 -34.1141 -34.0862 -34.0701
   -34.0647 -34.0374 -34.0302 -34.0248 -34.0216 -34.0150 -34.0125 -34.0121
   -33.9790 -33.9586 -33.9516 -33.9395 -33.9361 -33.9301 -33.9255 -33.9173
   -33.9006 -33.8859 -33.8852 -33.8755 -33.8699 -33.8620 -33.8514 -33.8431
   -33.8358 -33.8355 -33.8296 -33.8223 -33.8213 -33.8211 -33.8048 -33.8025
    11.7233  12.7277  13.5568  14.0747  14.2635  14.5810  14.9468  15.2035
    15.2050  15.2851  15.2940  15.3507  15.4116  15.4451  15.4936  15.6457
    15.7030  15.7725  16.1856  16.1998  16.2815  16.2828  16.3103  16.3608
    16.4393  16.5261  16.5444  16.5543  16.6639  16.7878  16.8089  16.8393
    16.9391  16.9913  17.0541  17.0847  17.0960  17.1370  17.1658  17.1713
    17.1760  17.1927  17.2242  17.2585  17.3107  17.4066  17.8864  18.2864
    18.4693  18.5722  18.6324  18.6334  18.6336  18.6737  18.6904  18.7282
    18.8602  18.8723  18.8807  18.9636  18.9670  19.0487  19.1217  19.1765
    19.2227  19.2408  19.2469  19.3220  19.3581  19.3607  19.3955  19.4093
    19.4161  19.4251  19.4363  19.5266  19.6165  19.7138  19.8225  19.8824
    19.9330  19.9486  20.0717  20.0935  20.1531  20.6662  21.5469  22.1616
    22.6511  22.7522

          k = 0.1667 0.2778-0.5000 ( 11982 PWs)   bands (ev):

   -67.9862 -67.9862 -67.9553 -67.9553 -67.9438 -67.9438 -67.9324 -67.9324
   -67.9198 -67.9198 -67.9168 -67.9168 -67.9082 -67.9082 -67.8855 -67.8855
   -34.2145 -34.2145 -34.2042 -34.2041 -34.1914 -34.1914 -34.1913 -34.1912
   -34.1726 -34.1725 -34.1595 -34.1594 -34.1241 -34.1241 -34.0942 -34.0941
   -34.0438 -34.0437 -34.0277 -34.0277 -34.0210 -34.0209 -34.0050 -34.0049
   -33.9738 -33.9737 -33.9563 -33.9562 -33.9342 -33.9341 -33.9080 -33.9080
   -33.8994 -33.8993 -33.8670 -33.8670 -33.8589 -33.8588 -33.8507 -33.8507
   -33.8477 -33.8477 -33.8272 -33.8272 -33.8116 -33.8115 -33.8096 -33.8095
    12.1862  12.1862  13.8221  13.8222  14.4468  14.4469  15.2889  15.2890
    15.3382  15.3383  15.3472  15.3473  15.4204  15.4206  15.5237  15.5237
    15.5462  15.5463  16.2327  16.2328  16.2954  16.2955  16.4565  16.4566
    16.4677  16.4678  16.5596  16.5596  16.6672  16.6672  16.8377  16.8379
    16.9960  16.9961  17.0140  17.0141  17.0288  17.0288  17.0810  17.0811
    17.1320  17.1321  17.1458  17.1458  17.2113  17.2114  18.1536  18.1536
    18.4995  18.4996  18.6446  18.6447  18.7349  18.7350  18.7686  18.7687
    18.8131  18.8132  18.8194  18.8194  19.1482  19.1482  19.1508  19.1509
    19.1825  19.1825  19.2751  19.2752  19.3525  19.3525  19.3588  19.3588
    19.4379  19.4379  19.4889  19.4889  19.6268  19.6269  19.7785  19.7785
    20.0276  20.0277  20.0758  20.0758  20.3676  20.3677  22.1441  22.1443
    22.4504  22.4505

          k = 0.1667 0.3889 0.3889 ( 11988 PWs)   bands (ev):

   -67.9887 -67.9708 -67.9707 -67.9575 -67.9446 -67.9382 -67.9381 -67.9330
   -67.9190 -67.9184 -67.9182 -67.9164 -67.9057 -67.8969 -67.8968 -67.8832
   -34.2246 -34.2062 -34.2062 -34.1932 -34.1929 -34.1888 -34.1848 -34.1847
   -34.1815 -34.1780 -34.1712 -34.1469 -34.1256 -34.1027 -34.0655 -34.0627
   -34.0625 -34.0494 -34.0491 -34.0358 -34.0339 -34.0333 -34.0331 -34.0041
   -33.9720 -33.9523 -33.9516 -33.9514 -33.9443 -33.9440 -33.9344 -33.9015
   -33.8991 -33.8775 -33.8773 -33.8708 -33.8705 -33.8546 -33.8495 -33.8494
   -33.8412 -33.8349 -33.8348 -33.8341 -33.8109 -33.8106 -33.8024 -33.8011
    12.0711  13.0166  13.0167  13.7273  14.4863  14.8630  14.8631  15.3454
    15.3852  15.4201  15.4202  15.4826  15.5040  15.5040  15.5292  15.5432
    15.7229  15.9621  15.9621  16.2121  16.2600  16.2987  16.3692  16.3692
    16.3944  16.3945  16.5068  16.5403  16.5450  16.5999  16.7759  16.8714
    16.8714  16.8717  16.9168  16.9168  16.9919  16.9919  17.0197  17.0500
    17.0756  17.1076  17.1078  17.1756  17.1996  17.5844  17.5846  18.1339
    18.5141  18.6654  18.7341  18.7341  18.7556  18.7839  18.7840  18.7938
    18.9070  18.9603  18.9781  18.9781  19.0072  19.0075  19.0247  19.0248
    19.1594  19.1813  19.1832  19.2309  19.2589  19.3394  19.3394  19.3629
    19.3877  19.3879  19.4326  19.4432  19.5873  19.6360  19.6362  19.6549
    20.0524  20.0524  20.1098  20.1808  20.4248  21.1632  21.1634  22.2097
    22.5542  23.2547

          k = 0.1667 0.3889-0.5000 ( 11980 PWs)   bands (ev):

   -67.9804 -67.9804 -67.9646 -67.9646 -67.9416 -67.9415 -67.9357 -67.9357
   -67.9185 -67.9185 -67.9172 -67.9171 -67.9008 -67.9008 -67.8893 -67.8893
   -34.2108 -34.2107 -34.1961 -34.1960 -34.1879 -34.1879 -34.1876 -34.1875
   -34.1828 -34.1828 -34.1657 -34.1656 -34.0880 -34.0880 -34.0848 -34.0847
   -34.0528 -34.0527 -34.0500 -34.0500 -34.0387 -34.0386 -34.0106 -34.0106
   -33.9778 -33.9778 -33.9485 -33.9484 -33.9387 -33.9387 -33.9245 -33.9244
   -33.8882 -33.8882 -33.8588 -33.8587 -33.8575 -33.8575 -33.8518 -33.8518
   -33.8502 -33.8502 -33.8341 -33.8340 -33.8043 -33.8042 -33.8035 -33.8034
    12.5103  12.5103  13.3618  13.3619  14.7046  14.7047  15.1871  15.1872
    15.4486  15.4487  15.4685  15.4685  15.5366  15.5367  15.6273  15.6273
    15.7392  15.7393  16.2347  16.2349  16.2944  16.2944  16.2945  16.2946
    16.3051  16.3052  16.4576  16.4576  16.6672  16.6672  16.7166  16.7167
    16.8135  16.8136  16.8671  16.8671  16.9290  16.9290  16.9505  16.9505
    17.1044  17.1045  17.1475  17.1476  17.3103  17.3103  17.8307  17.8307
    18.7005  18.7006  18.7525  18.7526  18.8480  18.8481  18.8781  18.8781
    18.8953  18.8953  18.8954  18.8954  18.9945  18.9945  19.0921  19.0921
    19.1017  19.1017  19.2232  19.2233  19.2522  19.2522  19.3233  19.3233
    19.3739  19.3739  19.4159  19.4159  19.5119  19.5119  19.6380  19.6380
    20.1077  20.1077  20.1436  20.1436  20.7889  20.7890  21.6813  21.6815
    22.9413  22.9414

          k = 0.1667-0.5000-0.5000 ( 12000 PWs)   bands (ev):

   -67.9732 -67.9732 -67.9731 -67.9730 -67.9389 -67.9389 -67.9388 -67.9387
   -67.9177 -67.9177 -67.9176 -67.9176 -67.8945 -67.8945 -67.8944 -67.8944
   -34.2015 -34.2015 -34.2013 -34.2012 -34.1896 -34.1895 -34.1895 -34.1895
   -34.1739 -34.1738 -34.1738 -34.1738 -34.0695 -34.0695 -34.0694 -34.0693
   -34.0507 -34.0507 -34.0505 -34.0503 -34.0497 -34.0496 -34.0493 -34.0493
   -33.9510 -33.9509 -33.9507 -33.9507 -33.9436 -33.9436 -33.9434 -33.9433
   -33.8713 -33.8713 -33.8711 -33.8711 -33.8530 -33.8529 -33.8528 -33.8528
   -33.8429 -33.8428 -33.8428 -33.8428 -33.8019 -33.8019 -33.8017 -33.8015
    12.9119  12.9119  12.9119  12.9120  14.9766  14.9767  14.9767  14.9767
    15.4832  15.4833  15.4833  15.4833  15.6644  15.6645  15.6645  15.6645
    15.9804  15.9805  15.9805  15.9807  16.2341  16.2341  16.2341  16.2342
    16.3740  16.3740  16.3740  16.3741  16.6741  16.6742  16.6742  16.6742
    16.8045  16.8046  16.8046  16.8046  16.8695  16.8695  16.8696  16.8696
    17.1083  17.1083  17.1084  17.1085  17.5427  17.5427  17.5429  17.5429
    18.8263  18.8263  18.8264  18.8264  18.9011  18.9011  18.9011  18.9011
    18.9992  18.9992  18.9992  18.9992  19.0076  19.0076  19.0076  19.0076
    19.0288  19.0290  19.0292  19.0292  19.2079  19.2079  19.2079  19.2080
    19.3946  19.3946  19.3948  19.3948  19.5527  19.5527  19.5529  19.5530
    20.1531  20.1531  20.1531  20.1532  21.2304  21.2307  21.2308  21.2308
    23.4403  23.4406

          k = 0.2778 0.2778 0.2778 ( 11965 PWs)   bands (ev):

   -67.9977 -67.9614 -67.9614 -67.9613 -67.9421 -67.9421 -67.9420 -67.9309
   -67.9186 -67.9158 -67.9158 -67.9156 -67.9050 -67.9050 -67.9048 -67.8764
   -34.2308 -34.2308 -34.2307 -34.1890 -34.1889 -34.1889 -34.1768 -34.1765
   -34.1765 -34.1748 -34.1455 -34.1455 -34.1166 -34.1166 -34.0730 -34.0726
   -34.0726 -34.0535 -34.0535 -34.0535 -34.0297 -34.0202 -34.0198 -34.0198
   -33.9310 -33.9305 -33.9305 -33.9299 -33.9297 -33.9295 -33.9295 -33.9230
   -33.9230 -33.8969 -33.8969 -33.8969 -33.8649 -33.8516 -33.8515 -33.8515
   -33.8310 -33.8308 -33.8308 -33.8155 -33.8155 -33.8155 -33.8109 -33.8109
    11.6049  13.5033  13.5033  13.5033  14.5011  14.5012  14.5012  15.2123
    15.2124  15.2124  15.2836  15.2836  15.5743  15.5744  15.5744  15.7953
    15.9284  16.0106  16.0107  16.0107  16.1968  16.1968  16.3847  16.3847
    16.3848  16.5231  16.5231  16.5715  16.5716  16.5716  16.8904  16.8905
    16.8905  17.0242  17.0242  17.0242  17.1138  17.1138  17.1138  17.1806
    17.1806  17.2783  17.2783  17.2783  17.4358  17.4360  17.4360  18.2835
    18.4584  18.5521  18.5521  18.5521  18.7531  18.7532  18.7532  18.8852
    18.8852  18.8852  19.0438  19.0438  19.0674  19.0675  19.0675  19.1946
    19.1950  19.1950  19.3094  19.3094  19.3109  19.3111  19.3111  19.3365
    19.3365  19.5629  19.5629  19.5629  19.7820  19.7820  19.7820  19.8438
    19.8438  19.8998  19.8999  19.8999  20.6012  20.6014  20.6014  22.7610
    22.8831  22.8831

          k = 0.2778 0.2778 0.3889 ( 11979 PWs)   bands (ev):

   -67.9909 -67.9724 -67.9577 -67.9576 -67.9479 -67.9478 -67.9399 -67.9341
   -67.9173 -67.9160 -67.9120 -67.9119 -67.9067 -67.9065 -67.8957 -67.8814
   -34.2194 -34.2193 -34.2100 -34.1891 -34.1890 -34.1857 -34.1786 -34.1772
   -34.1622 -34.1621 -34.1609 -34.1520 -34.1291 -34.1012 -34.1010 -34.0940
   -34.0821 -34.0556 -34.0555 -34.0437 -34.0369 -34.0364 -34.0362 -34.0051
   -33.9634 -33.9544 -33.9327 -33.9295 -33.9181 -33.9178 -33.9067 -33.9065
   -33.9009 -33.9007 -33.8894 -33.8697 -33.8670 -33.8669 -33.8565 -33.8501
   -33.8350 -33.8261 -33.8249 -33.8249 -33.8197 -33.8166 -33.8166 -33.8093
    11.9607  12.9370  13.7533  13.7534  14.2904  14.2905  14.8043  15.3707
    15.3708  15.4196  15.4285  15.4302  15.5757  15.6108  15.6108  15.6313
    15.7842  15.7928  16.1195  16.1195  16.2265  16.3304  16.3671  16.3751
    16.4399  16.4761  16.4761  16.6361  16.6362  16.6771  16.7469  16.7470
    16.8680  16.8680  16.9279  16.9279  16.9435  16.9829  16.9894  16.9906
    17.0491  17.0491  17.0766  17.1264  17.1949  17.1950  17.5752  18.1147
    18.5038  18.6792  18.7099  18.7099  18.8024  18.8024  18.8397  18.8397
    18.9410  18.9851  18.9924  18.9968  18.9968  19.0195  19.1168  19.1335
    19.2469  19.2575  19.3138  19.3138  19.3156  19.3156  19.3459  19.3461
    19.3665  19.3988  19.5650  19.6735  19.6851  19.6851  19.8165  19.8165
    19.8791  19.9146  19.9147  19.9225  20.2702  20.2704  21.1084  22.1914
    23.2065  23.2066

          k = 0.2778 0.2778-0.5000 ( 11978 PWs)   bands (ev):

   -67.9824 -67.9824 -67.9533 -67.9531 -67.9530 -67.9529 -67.9372 -67.9372
   -67.9165 -67.9165 -67.9091 -67.9090 -67.9089 -67.9088 -67.8879 -67.8878
   -34.2045 -34.2045 -34.2045 -34.2044 -34.1834 -34.1834 -34.1822 -34.1822
   -34.1717 -34.1716 -34.1320 -34.1320 -34.1319 -34.1317 -34.1076 -34.1076
   -34.0692 -34.0691 -34.0490 -34.0490 -34.0488 -34.0488 -34.0001 -34.0000
   -33.9797 -33.9796 -33.9328 -33.9327 -33.9082 -33.9081 -33.9079 -33.9079
   -33.8856 -33.8856 -33.8855 -33.8853 -33.8598 -33.8597 -33.8514 -33.8513
   -33.8460 -33.8460 -33.8197 -33.8197 -33.8197 -33.8196 -33.8125 -33.8125
    12.4122  12.4122  14.0305  14.0306  14.0306  14.0307  15.1743  15.1743
    15.5172  15.5173  15.5173  15.5173  15.5633  15.5635  15.5921  15.5921
    15.6520  15.6520  16.2741  16.2743  16.3482  16.3483  16.3793  16.3795
    16.3795  16.3797  16.6014  16.6015  16.6016  16.6017  16.6320  16.6321
    16.8383  16.8384  16.9272  16.9273  16.9274  16.9275  16.9822  16.9823
    16.9824  16.9824  17.0096  17.0097  17.0601  17.0602  17.8086  17.8086
    18.7411  18.7412  18.8151  18.8152  18.8174  18.8174  18.8174  18.8174
    18.8676  18.8676  18.8677  18.8677  19.1490  19.1490  19.1797  19.1797
    19.2389  19.2390  19.2709  19.2709  19.3151  19.3151  19.3476  19.3477
    19.3477  19.3477  19.5072  19.5072  19.8758  19.8759  19.8759  19.8759
    19.9310  19.9310  19.9578  19.9581  19.9581  19.9581  21.6424  21.6426
    23.4762  23.4762

          k = 0.2778 0.3889 0.3889 ( 11986 PWs)   bands (ev):

   -67.9847 -67.9678 -67.9677 -67.9552 -67.9543 -67.9452 -67.9451 -67.9380
   -67.9153 -67.9128 -67.9127 -67.9081 -67.9066 -67.8985 -67.8984 -67.8857
   -34.2110 -34.2007 -34.2007 -34.1881 -34.1863 -34.1861 -34.1744 -34.1658
   -34.1655 -34.1654 -34.1560 -34.1326 -34.1261 -34.1209 -34.1020 -34.0837
   -34.0837 -34.0683 -34.0674 -34.0671 -34.0613 -34.0611 -34.0577 -33.9964
   -33.9794 -33.9301 -33.9299 -33.9181 -33.9179 -33.9169 -33.9030 -33.8995
   -33.8884 -33.8856 -33.8775 -33.8745 -33.8744 -33.8598 -33.8597 -33.8539
   -33.8341 -33.8336 -33.8335 -33.8280 -33.8173 -33.8171 -33.8148 -33.8119
    12.3038  13.2303  13.2303  13.9474  14.0203  14.5945  14.5945  15.3216
    15.5141  15.5208  15.5896  15.5897  15.5967  15.6756  15.6756  15.7790
    15.8601  15.9539  15.9539  16.0793  16.2939  16.3474  16.3497  16.4128
    16.4128  16.4584  16.4585  16.5226  16.5498  16.6182  16.6387  16.7704
    16.7704  16.7830  16.7852  16.7852  16.8098  16.8098  16.8383  16.9255
    16.9256  16.9382  16.9686  16.9935  17.0427  17.2807  17.2809  17.7727
    18.7513  18.8080  18.8080  18.8236  18.8607  18.9256  18.9723  18.9916
    18.9917  19.0008  19.0010  19.0010  19.0559  19.0559  19.1197  19.2025
    19.2394  19.2408  19.2410  19.2561  19.2995  19.3108  19.3109  19.3567
    19.3646  19.3647  19.4146  19.4597  19.6905  19.6907  19.7211  19.8870
    19.8870  19.8907  19.9300  19.9475  19.9938  20.7173  20.7175  21.6791
    23.6102  24.1757

          k = 0.2778 0.3889-0.5000 ( 11978 PWs)   bands (ev):

   -67.9769 -67.9769 -67.9619 -67.9619 -67.9500 -67.9500 -67.9418 -67.9418
   -67.9139 -67.9138 -67.9101 -67.9101 -67.9021 -67.9021 -67.8914 -67.8914
   -34.1989 -34.1988 -34.1919 -34.1919 -34.1778 -34.1778 -34.1773 -34.1772
   -34.1697 -34.1697 -34.1431 -34.1431 -34.1080 -34.1080 -34.1001 -34.1000
   -34.0853 -34.0852 -34.0746 -34.0745 -34.0705 -34.0705 -34.0318 -34.0318
   -33.9543 -33.9542 -33.9169 -33.9168 -33.9082 -33.9081 -33.9068 -33.9068
   -33.8847 -33.8847 -33.8725 -33.8725 -33.8553 -33.8553 -33.8550 -33.8549
   -33.8517 -33.8517 -33.8312 -33.8311 -33.8150 -33.8149 -33.8133 -33.8132
    12.7355  12.7355  13.5799  13.5800  14.3184  14.3185  14.9571  14.9572
    15.6196  15.6197  15.6220  15.6221  15.7392  15.7392  15.7803  15.7805
    15.8001  15.8002  16.2279  16.2280  16.2535  16.2537  16.3263  16.3263
    16.3486  16.3487  16.5216  16.5216  16.5219  16.5220  16.6617  16.6617
    16.6921  16.6921  16.7166  16.7167  16.8315  16.8315  16.8741  16.8741
    16.8997  16.8998  16.9752  16.9753  17.0288  17.0288  17.4805  17.4806
    18.9063  18.9064  18.9231  18.9231  18.9298  18.9298  18.9476  18.9476
    18.9818  18.9819  19.0163  19.0164  19.1291  19.1291  19.1430  19.1430
    19.1985  19.1986  19.2247  19.2247  19.2579  19.2579  19.3048  19.3048
    19.3350  19.3351  19.5180  19.5180  19.6155  19.6156  19.6905  19.6905
    19.9101  19.9102  19.9285  19.9286  20.3476  20.3477  21.1905  21.1906
    23.9829  23.9831

          k = 0.2778-0.5000-0.5000 ( 11972 PWs)   bands (ev):

   -67.9700 -67.9700 -67.9699 -67.9698 -67.9462 -67.9462 -67.9461 -67.9461
   -67.9117 -67.9117 -67.9116 -67.9116 -67.8963 -67.8963 -67.8962 -67.8962
   -34.1887 -34.1887 -34.1885 -34.1883 -34.1808 -34.1808 -34.1808 -34.1807
   -34.1562 -34.1562 -34.1561 -34.1561 -34.0954 -34.0954 -34.0953 -34.0952
   -34.0851 -34.0851 -34.0849 -34.0848 -34.0658 -34.0657 -34.0655 -34.0655
   -33.9301 -33.9299 -33.9298 -33.9298 -33.9101 -33.9101 -33.9099 -33.9097
   -33.8655 -33.8655 -33.8654 -33.8653 -33.8625 -33.8623 -33.8623 -33.8623
   -33.8443 -33.8442 -33.8442 -33.8442 -33.8135 -33.8135 -33.8133 -33.8131
    13.1350  13.1350  13.1350  13.1351  14.6481  14.6482  14.6482  14.6483
    15.6457  15.6457  15.6457  15.6458  15.8949  15.8950  15.8950  15.8950
    16.0116  16.0117  16.0117  16.0119  16.1930  16.1931  16.1931  16.1932
    16.4396  16.4396  16.4396  16.4396  16.5574  16.5575  16.5575  16.5576
    16.7190  16.7190  16.7191  16.7191  16.7504  16.7504  16.7504  16.7505
    16.9209  16.9209  16.9209  16.9211  17.2061  17.2061  17.2063  17.2063
    18.9593  18.9593  18.9593  18.9593  19.0417  19.0417  19.0417  19.0417
    19.0747  19.0747  19.0749  19.0749  19.0968  19.0968  19.0968  19.0968
    19.1918  19.1918  19.1918  19.1919  19.3076  19.3078  19.3080  19.3080
    19.3183  19.3183  19.3184  19.3184  19.5663  19.5663  19.5665  19.5665
    19.9324  19.9325  19.9325  19.9325  20.7616  20.7618  20.7619  20.7619
    24.4915  24.4917

          k = 0.3889 0.3889 0.3889 ( 11968 PWs)   bands (ev):

   -67.9791 -67.9635 -67.9635 -67.9633 -67.9519 -67.9519 -67.9518 -67.9430
   -67.9123 -67.9080 -67.9080 -67.9078 -67.9008 -67.9008 -67.9006 -67.8895
   -34.1912 -34.1912 -34.1912 -34.1804 -34.1801 -34.1801 -34.1643 -34.1480
   -34.1480 -34.1422 -34.1420 -34.1420 -34.1358 -34.1358 -34.0985 -34.0985
   -34.0984 -34.0908 -34.0905 -34.0905 -34.0848 -34.0845 -34.0845 -34.0263
   -33.9546 -33.9088 -33.9086 -33.9086 -33.8963 -33.8959 -33.8959 -33.8845
   -33.8845 -33.8743 -33.8743 -33.8742 -33.8732 -33.8730 -33.8730 -33.8569
   -33.8328 -33.8328 -33.8328 -33.8283 -33.8283 -33.8250 -33.8247 -33.8247
    12.6387  13.5299  13.5299  13.5299  14.2583  14.2583  14.2583  15.0149
    15.6926  15.6926  15.7433  15.7434  15.7434  15.8986  15.8987  15.8987
    15.9427  15.9427  15.9427  16.0135  16.3475  16.3475  16.4015  16.4015
    16.4848  16.4848  16.4848  16.4934  16.4935  16.4935  16.5840  16.5842
    16.5842  16.6907  16.6907  16.6908  16.7296  16.7297  16.7297  16.7554
    16.7554  16.7554  16.8988  16.8988  16.9902  16.9904  16.9904  17.4270
    18.9057  18.9057  18.9057  19.0245  19.0561  19.0561  19.0562  19.0614
    19.0614  19.0638  19.0638  19.0638  19.1177  19.1178  19.1178  19.2229
    19.2229  19.2500  19.2501  19.2501  19.2663  19.2663  19.2663  19.3422
    19.3422  19.6264  19.6264  19.6350  19.6354  19.6354  19.7062  19.7064
    19.7064  19.7501  19.7501  19.7501  20.3316  20.3319  20.3319  21.2055
    24.8069  24.8069

          k = 0.3889 0.3889-0.5000 ( 11970 PWs)   bands (ev):

   -67.9718 -67.9718 -67.9582 -67.9581 -67.9580 -67.9579 -67.9478 -67.9478
   -67.9099 -67.9098 -67.9041 -67.9040 -67.9039 -67.9038 -67.8946 -67.8946
   -34.1822 -34.1821 -34.1821 -34.1820 -34.1668 -34.1667 -34.1659 -34.1659
   -34.1533 -34.1532 -34.1254 -34.1254 -34.1163 -34.1162 -34.1161 -34.1159
   -34.1115 -34.1114 -34.0993 -34.0992 -34.0991 -34.0991 -34.0583 -34.0583
   -33.9309 -33.9308 -33.8911 -33.8910 -33.8895 -33.8894 -33.8893 -33.8891
   -33.8809 -33.8808 -33.8807 -33.8806 -33.8633 -33.8633 -33.8564 -33.8564
   -33.8492 -33.8492 -33.8306 -33.8306 -33.8306 -33.8305 -33.8251 -33.8250
    13.0568  13.0568  13.8868  13.8868  13.8869  13.8869  14.6313  14.6314
    15.8106  15.8106  15.8488  15.8490  15.8570  15.8571  15.8571  15.8571
    15.9846  15.9847  16.2038  16.2039  16.2040  16.2041  16.3692  16.3692
    16.4139  16.4140  16.4521  16.4522  16.4798  16.4798  16.5912  16.5913
    16.5915  16.5915  16.6925  16.6927  16.6928  16.6929  16.7482  16.7483
    16.7484  16.7485  16.7970  16.7970  16.8173  16.8174  17.1432  17.1432
    18.9882  18.9883  19.0047  19.0047  19.0048  19.0048  19.1203  19.1204
    19.1204  19.1204  19.1409  19.1410  19.1639  19.1640  19.2213  19.2213
    19.2391  19.2391  19.2440  19.2440  19.2441  19.2441  19.3181  19.3182
    19.3583  19.3583  19.4986  19.4987  19.7035  19.7035  19.7035  19.7036
    19.7222  19.7223  19.9746  19.9749  19.9749  19.9750  20.7598  20.7600
    25.1140  25.1140

          k = 0.3889-0.5000-0.5000 ( 11932 PWs)   bands (ev):

   -67.9654 -67.9654 -67.9653 -67.9653 -67.9533 -67.9533 -67.9532 -67.9532
   -67.9066 -67.9066 -67.9065 -67.9064 -67.8988 -67.8988 -67.8987 -67.8987
   -34.1697 -34.1697 -34.1695 -34.1694 -34.1659 -34.1659 -34.1659 -34.1658
   -34.1348 -34.1347 -34.1347 -34.1347 -34.1215 -34.1215 -34.1214 -34.1214
   -34.1172 -34.1172 -34.1170 -34.1169 -34.0871 -34.0870 -34.0869 -34.0869
   -33.9091 -33.9090 -33.9089 -33.9089 -33.8795 -33.8795 -33.8793 -33.8792
   -33.8749 -33.8748 -33.8747 -33.8747 -33.8588 -33.8588 -33.8588 -33.8587
   -33.8475 -33.8475 -33.8475 -33.8474 -33.8305 -33.8305 -33.8303 -33.8302
    13.4518  13.4518  13.4518  13.4519  14.2531  14.2532  14.2532  14.2533
    15.8668  15.8668  15.8668  15.8669  16.0535  16.0536  16.0536  16.0538
    16.1209  16.1210  16.1210  16.1210  16.1484  16.1484  16.1484  16.1486
    16.5155  16.5155  16.5155  16.5155  16.5230  16.5230  16.5231  16.5231
    16.5301  16.5302  16.5302  16.5303  16.6786  16.6786  16.6786  16.6786
    16.7372  16.7372  16.7372  16.7373  16.8673  16.8673  16.8675  16.8675
    19.0381  19.0381  19.0382  19.0382  19.0880  19.0880  19.0880  19.0881
    19.1662  19.1662  19.1662  19.1663  19.2280  19.2280  19.2281  19.2281
    19.2424  19.2424  19.2424  19.2425  19.2869  19.2869  19.2870  19.2870
    19.5337  19.5337  19.5339  19.5339  19.6370  19.6372  19.6373  19.6373
    19.6810  19.6810  19.6810  19.6811  20.3586  20.3588  20.3589  20.3589
    25.6450  25.6451

          k =-0.5000-0.5000-0.5000 ( 11992 PWs)   bands (ev):

   -67.9601 -67.9601 -67.9601 -67.9598 -67.9598 -67.9598 -67.9598 -67.9596
   -67.9023 -67.9023 -67.9023 -67.9021 -67.9021 -67.9021 -67.9020 -67.9019
   -34.1458 -34.1458 -34.1458 -34.1456 -34.1456 -34.1456 -34.1456 -34.1456
   -34.1456 -34.1453 -34.1453 -34.1453 -34.1453 -34.1453 -34.1452 -34.1452
   -34.1117 -34.1116 -34.1115 -34.1115 -34.1115 -34.1112 -34.1112 -34.1112
   -33.8904 -33.8904 -33.8902 -33.8902 -33.8902 -33.8899 -33.8899 -33.8899
   -33.8533 -33.8533 -33.8533 -33.8532 -33.8532 -33.8532 -33.8531 -33.8531
   -33.8531 -33.8528 -33.8528 -33.8528 -33.8528 -33.8528 -33.8527 -33.8527
    13.8371  13.8371  13.8371  13.8372  13.8373  13.8373  13.8373  13.8373
    16.1007  16.1007  16.1007  16.1008  16.1008  16.1008  16.1009  16.1009
    16.1010  16.1010  16.1010  16.1011  16.1011  16.1011  16.1011  16.1011
    16.5708  16.5711  16.5711  16.5711  16.5711  16.5714  16.5714  16.5714
    16.5967  16.5967  16.5967  16.5967  16.5967  16.5969  16.5969  16.5969
    16.5970  16.5970  16.5970  16.5971  16.5971  16.5971  16.5972  16.5972
    19.1305  19.1305  19.1305  19.1306  19.1306  19.1306  19.1308  19.1308
    19.1308  19.1308  19.1308  19.1309  19.1309  19.1309  19.1309  19.1309
    19.4417  19.4417  19.4417  19.4418  19.4418  19.4418  19.4419  19.4419
    19.4419  19.4419  19.4419  19.4421  19.4421  19.4421  19.4422  19.4422
    19.9879  19.9885  19.9886  19.9886  19.9886  19.9887  19.9887  19.9887
    26.7745  26.7746

     the Fermi energy is    19.1939 ev

!    total energy              =   -5267.69867635 Ry
     Harris-Foulkes estimate   =   -5267.69867676 Ry
     estimated scf accuracy    <       0.00000930 Ry

     total all-electron energy =    -40728.443205 Ry

     The total energy is the sum of the following terms:

     one-electron contribution =   -1702.16473509 Ry
     hartree contribution      =    1018.36814871 Ry
     xc contribution           =    -442.23697114 Ry
     ewald contribution        =   -2816.76118843 Ry
     one-center paw contrib.   =   -1324.75665973 Ry
     smearing contrib. (-TS)   =      -0.14727067 Ry

     convergence has been achieved in  10 iterations

     Forces acting on atoms (cartesian axes, Ry/au):

     atom    1 type  1   force =     0.00000000    0.00000000   -0.00000000
     atom    2 type  1   force =     0.00017982    0.00017982    0.00017982
     atom    3 type  1   force =     0.00000000    0.00000000    0.00000000
     atom    4 type  1   force =     0.00017982    0.00017982   -0.00017982
     atom    5 type  1   force =     0.00000000    0.00000000   -0.00000000
     atom    6 type  1   force =     0.00017982   -0.00017982    0.00017982
     atom    7 type  1   force =     0.00000000    0.00000000    0.00000000
     atom    8 type  1   force =     0.00017982   -0.00017982   -0.00017982
     atom    9 type  1   force =     0.00000000   -0.00000000    0.00000000
     atom   10 type  1   force =    -0.00017982    0.00017982    0.00017982
     atom   11 type  1   force =     0.00000000    0.00000000    0.00000000
     atom   12 type  1   force =    -0.00017982    0.00017982   -0.00017982
     atom   13 type  1   force =     0.00000000    0.00000000    0.00000000
     atom   14 type  1   force =    -0.00017982   -0.00017982    0.00017982
     atom   15 type  1   force =     0.00000000    0.00000000    0.00000000
     atom   16 type  1   force =    -0.00017982   -0.00017982   -0.00017982

     Total force =     0.000881     Total SCF correction =     0.008248
     SCF correction compared to forces is large: reduce conv_thr to get better values


     Computing stress (Cartesian axis) and pressure

          total   stress  (Ry/bohr**3)                   (kbar)     P= -131.12
  -0.00089135   0.00000000   0.00000000       -131.12      0.00      0.00
   0.00000000  -0.00089135   0.00000000          0.00   -131.12      0.00
   0.00000000   0.00000000  -0.00089135          0.00      0.00   -131.12


     BFGS Geometry Optimization

     number of scf cycles    =   1
     number of bfgs steps    =   0

     enthalpy new            =   -5267.6986763486 Ry

     new trust radius        =       0.1534588269 bohr
     new conv_thr            =       0.0000500000 Ry

     new unit-cell volume =   1108.12326 a.u.^3 (   164.20692 Ang^3 )
     density =      9.03570 g/cm^3

CELL_PARAMETERS (alat= 10.58400000)
   0.977716309   0.000000000   0.000000000
   0.000000000   0.977716309   0.000000000
   0.000000000   0.000000000   0.977716309

ATOMIC_POSITIONS (crystal)
Fe       0.000000000   0.000000000  -0.000000000
Fe       0.250016990   0.250016990   0.250016990
Fe       0.000000000   0.000000000   0.500000000
Fe       0.250016990   0.250016990   0.749983010
Fe       0.000000000   0.500000000  -0.000000000
Fe       0.250016990   0.749983010   0.250016990
Fe       0.000000000   0.500000000   0.500000000
Fe       0.250016990   0.749983010   0.749983010
Fe       0.500000000  -0.000000000   0.000000000
Fe       0.749983010   0.250016990   0.250016990
Fe       0.500000000   0.000000000   0.500000000
Fe       0.749983010   0.250016990   0.749983010
Fe       0.500000000   0.500000000   0.000000000
Fe       0.749983010   0.749983010   0.250016990
Fe       0.500000000   0.500000000   0.500000000
Fe       0.749983010   0.749983010   0.749983010



     Writing output data file ncQSmVIrhrxsUiFA.save/
     NEW-OLD atomic charge density approx. for the potential

     Check: negative/imaginary core charge=   -0.000005    0.000000
     extrapolated charge  238.09459, renormalised to  256.00000

     total cpu time spent up to now is      138.9 secs

     Self-consistent Calculation

     iteration #  1     ecut=    71.00 Ry     beta= 0.10
     Davidson diagonalization with overlap
     ethr =  1.00E-06,  avg # of iterations =  5.1

     total cpu time spent up to now is      168.2 secs

     total energy              =   -5246.86198868 Ry
     Harris-Foulkes estimate   =   -5373.06958919 Ry
     estimated scf accuracy    <      45.59608430 Ry

     iteration #  2     ecut=    71.00 Ry     beta= 0.10
     Davidson diagonalization with overlap
     ethr =  1.00E-02,  avg # of iterations =  3.3

     total cpu time spent up to now is      187.9 secs

     total energy              =   -5268.43959356 Ry
     Harris-Foulkes estimate   =   -5269.17247162 Ry
     estimated scf accuracy    <       5.51949006 Ry

     iteration #  3     ecut=    71.00 Ry     beta= 0.10
     Davidson diagonalization with overlap
     ethr =  2.16E-03,  avg # of iterations =  1.2

     total cpu time spent up to now is      197.1 secs

     total energy              =   -5268.39514717 Ry
     Harris-Foulkes estimate   =   -5268.53777813 Ry
     estimated scf accuracy    <       3.76974029 Ry

     iteration #  4     ecut=    71.00 Ry     beta= 0.10
     Davidson diagonalization with overlap
     ethr =  1.47E-03,  avg # of iterations =  1.0

     total cpu time spent up to now is      205.9 secs

     total energy              =   -5268.24009504 Ry
     Harris-Foulkes estimate   =   -5268.42856244 Ry
     estimated scf accuracy    <       2.74641731 Ry

     iteration #  5     ecut=    71.00 Ry     beta= 0.10
     Davidson diagonalization with overlap
     ethr =  1.07E-03,  avg # of iterations =  1.0

     total cpu time spent up to now is      214.7 secs

     total energy              =   -5267.19477173 Ry
     Harris-Foulkes estimate   =   -5268.25600916 Ry
     estimated scf accuracy    <       2.03840925 Ry

     iteration #  6     ecut=    71.00 Ry     beta= 0.10
     Davidson diagonalization with overlap
     ethr =  7.96E-04,  avg # of iterations =  3.3

     total cpu time spent up to now is      230.8 secs

     total energy              =   -5267.78857765 Ry
     Harris-Foulkes estimate   =   -5267.79731439 Ry
     estimated scf accuracy    <       0.17681378 Ry

     iteration #  7     ecut=    71.00 Ry     beta= 0.10
     Davidson diagonalization with overlap
     ethr =  6.91E-05,  avg # of iterations =  1.6

     total cpu time spent up to now is      240.8 secs

     total energy              =   -5267.76683951 Ry
     Harris-Foulkes estimate   =   -5267.79174913 Ry
     estimated scf accuracy    <       0.16354217 Ry

     iteration #  8     ecut=    71.00 Ry     beta= 0.10
     Davidson diagonalization with overlap
     ethr =  6.39E-05,  avg # of iterations =  1.0

     total cpu time spent up to now is      249.7 secs

     total energy              =   -5267.74133459 Ry
     Harris-Foulkes estimate   =   -5267.76958858 Ry
     estimated scf accuracy    <       0.08030993 Ry

     iteration #  9     ecut=    71.00 Ry     beta= 0.10
     Davidson diagonalization with overlap
     ethr =  3.14E-05,  avg # of iterations =  2.4

     total cpu time spent up to now is      262.2 secs

     total energy              =   -5267.73454203 Ry
     Harris-Foulkes estimate   =   -5267.75167286 Ry
     estimated scf accuracy    <       0.00257972 Ry

     iteration # 10     ecut=    71.00 Ry     beta= 0.10
     Davidson diagonalization with overlap
     ethr =  1.01E-06,  avg # of iterations =  3.5

     total cpu time spent up to now is      279.3 secs

     total energy              =   -5267.72591033 Ry
     Harris-Foulkes estimate   =   -5267.73537784 Ry
     estimated scf accuracy    <       0.00067536 Ry

     iteration # 11     ecut=    71.00 Ry     beta= 0.10
     Davidson diagonalization with overlap
     ethr =  2.64E-07,  avg # of iterations =  3.7

     total cpu time spent up to now is      302.2 secs

     total energy              =   -5267.72940466 Ry
     Harris-Foulkes estimate   =   -5267.72706641 Ry
     estimated scf accuracy    <       0.00278635 Ry

     iteration # 12     ecut=    71.00 Ry     beta= 0.10
     Davidson diagonalization with overlap
     ethr =  2.64E-07,  avg # of iterations =  3.7

     total cpu time spent up to now is      325.2 secs

     total energy              =   -5267.72241005 Ry
     Harris-Foulkes estimate   =   -5267.73090805 Ry
     estimated scf accuracy    <       0.02070369 Ry

     iteration # 13     ecut=    71.00 Ry     beta= 0.10
     Davidson diagonalization with overlap
     ethr =  2.64E-07,  avg # of iterations =  3.9

     total cpu time spent up to now is      351.5 secs

     total energy              =   -5267.72644363 Ry
     Harris-Foulkes estimate   =   -5267.72691112 Ry
     estimated scf accuracy    <       0.00029372 Ry

     iteration # 14     ecut=    71.00 Ry     beta= 0.10
     Davidson diagonalization with overlap
     ethr =  1.15E-07,  avg # of iterations =  1.0

     total cpu time spent up to now is      360.3 secs

     total energy              =   -5267.72623622 Ry
     Harris-Foulkes estimate   =   -5267.72645392 Ry
     estimated scf accuracy    <       0.00010940 Ry

     iteration # 15     ecut=    71.00 Ry     beta= 0.10
     Davidson diagonalization with overlap
     ethr =  4.27E-08,  avg # of iterations =  3.2

     total cpu time spent up to now is      380.1 secs

     total energy              =   -5267.72609838 Ry
     Harris-Foulkes estimate   =   -5267.72638981 Ry
     estimated scf accuracy    <       0.00022802 Ry

     iteration # 16     ecut=    71.00 Ry     beta= 0.10
     Davidson diagonalization with overlap
     ethr =  4.27E-08,  avg # of iterations =  3.0

     total cpu time spent up to now is      396.6 secs

     End of self-consistent calculation

          k = 0.0568 0.0568 0.0568 ( 11954 PWs)   bands (ev):

   -66.4946 -66.3893 -66.3893 -66.3892 -66.3718 -66.3718 -66.3718 -66.3707
   -66.3707 -66.3707 -66.3702 -66.3702 -66.3701 -66.3623 -66.3621 -66.2820
   -32.8025 -32.8024 -32.8024 -32.7993 -32.7993 -32.7993 -32.6270 -32.6270
   -32.6202 -32.5481 -32.5447 -32.5447 -32.5446 -32.5219 -32.5219 -32.5080
   -32.5080 -32.5080 -32.4694 -32.4694 -32.4440 -32.4258 -32.4258 -32.4258
   -32.4138 -32.4138 -32.4138 -32.4000 -32.4000 -32.3999 -32.3965 -32.3965
   -32.3965 -32.3883 -32.3883 -32.3883 -32.3770 -32.3770 -32.3770 -32.2066
   -32.2052 -32.2052 -32.2052 -32.2018 -32.2017 -32.2017 -32.2003 -32.2003
    11.7026  15.6151  15.6151  15.6152  15.7068  15.7068  15.7068  15.7325
    15.7325  15.7326  15.9645  15.9645  16.1252  16.1252  16.1252  17.4939
    17.5858  17.5858  17.5891  17.5891  17.5891  17.6033  17.6033  17.6033
    17.7318  17.7318  17.7805  18.0262  18.0262  18.0262  18.4284  18.4284
    18.4284  18.9271  18.9271  18.9762  19.2616  19.2616  19.2616  19.3676
    19.3676  19.3676  19.4572  19.4572  19.4572  19.5541  19.5541  19.5541
    20.3165  20.3165  20.3166  20.5447  20.5447  20.5447  20.5718  20.5718
    20.5718  20.7154  20.7155  20.7155  20.7166  20.7166  20.7166  20.7480
    20.7480  21.0065  21.0065  21.0065  21.0181  21.0181  21.0181  21.0652
    21.0652  21.0652  21.0652  21.5612  21.5612  21.5612  21.7930  21.8484
    21.8485  21.8485  21.8731  21.8731  22.3097  22.3097  22.3098  22.3402
    22.3402  22.3402

          k = 0.0568 0.0568 0.1705 ( 11961 PWs)   bands (ev):

   -66.4907 -66.4081 -66.3884 -66.3884 -66.3740 -66.3739 -66.3712 -66.3704
   -66.3704 -66.3697 -66.3691 -66.3691 -66.3630 -66.3626 -66.3529 -66.2848
   -32.7941 -32.7941 -32.7930 -32.7902 -32.7849 -32.7849 -32.6308 -32.6202
   -32.6101 -32.5867 -32.5771 -32.5771 -32.5751 -32.5741 -32.5420 -32.5420
   -32.5056 -32.4766 -32.4656 -32.4631 -32.4506 -32.4255 -32.4255 -32.4183
   -32.4063 -32.4044 -32.4039 -32.4038 -32.4024 -32.3939 -32.3939 -32.3887
   -32.3887 -32.3842 -32.3842 -32.3518 -32.3487 -32.3487 -32.3412 -32.2221
   -32.2147 -32.2147 -32.2133 -32.2105 -32.2056 -32.2050 -32.2050 -32.2024
    11.8420  14.9832  15.6712  15.6712  15.7192  15.7192  15.7986  15.7986
    15.8092  15.8336  16.0287  16.0305  16.1684  16.1684  16.4549  17.3826
    17.4942  17.5063  17.5707  17.5835  17.6222  17.6270  17.6404  17.6404
    17.6828  17.6829  17.9259  17.9373  17.9813  17.9813  18.3288  18.3288
    18.7897  18.9016  18.9236  19.0406  19.0430  19.0430  19.1098  19.2267
    19.2267  19.2701  19.5473  19.5473  19.6664  19.6665  19.6971  19.7997
    20.0009  20.0010  20.0673  20.3007  20.3011  20.3011  20.4653  20.5511
    20.5511  20.6531  20.6531  20.6730  20.7370  20.7388  20.7388  20.7638
    20.7790  20.7994  20.7994  20.8254  21.0210  21.0428  21.0430  21.0624
    21.0628  21.2420  21.3543  21.3544  21.5278  21.6148  21.7309  21.8569
    21.8569  21.8653  21.9032  21.9032  22.2110  22.2110  22.3860  22.3860
    22.4751  22.4751

          k = 0.0568 0.0568 0.2841 ( 11976 PWs)   bands (ev):

   -66.4835 -66.4265 -66.3869 -66.3869 -66.3766 -66.3765 -66.3703 -66.3700
   -66.3699 -66.3688 -66.3686 -66.3686 -66.3641 -66.3634 -66.3363 -66.2902
   -32.7750 -32.7750 -32.7744 -32.7722 -32.7601 -32.7601 -32.6314 -32.6305
   -32.6242 -32.6213 -32.6213 -32.6068 -32.5979 -32.5945 -32.5882 -32.5882
   -32.4986 -32.4892 -32.4859 -32.4709 -32.4235 -32.4235 -32.4197 -32.4182
   -32.4134 -32.4081 -32.4081 -32.3921 -32.3920 -32.3890 -32.3890 -32.3697
   -32.3614 -32.3475 -32.3475 -32.3173 -32.3141 -32.3140 -32.3076 -32.2484
   -32.2304 -32.2304 -32.2297 -32.2279 -32.2177 -32.2149 -32.2149 -32.2122
    12.1167  14.3030  15.7565  15.7565  15.7602  15.7602  15.8997  15.8997
    16.0059  16.0274  16.1487  16.1610  16.2167  16.2167  16.5927  17.2192
    17.2491  17.2677  17.4499  17.5014  17.5378  17.5488  17.7550  17.7550
    17.8252  17.8252  17.9745  17.9746  18.1844  18.2060  18.2613  18.2613
    18.7472  18.7472  18.8850  18.9122  18.9122  18.9168  18.9513  19.0001
    19.1356  19.4032  19.4279  19.4279  19.6503  19.6504  19.8114  19.8114
    19.8312  19.8504  19.8504  19.8620  19.9105  19.9824  20.0951  20.5251
    20.5515  20.5515  20.6512  20.6512  20.7750  20.7897  20.8379  20.8605
    20.8605  21.0023  21.0032  21.0263  21.0571  21.0594  21.0702  21.0983
    21.0984  21.1104  21.3119  21.3462  21.4754  21.5534  21.5535  21.7916
    21.8718  21.8719  21.9588  21.9588  22.0811  22.0811  22.4684  22.4684
    22.6115  22.6115

          k = 0.0568 0.0568 0.3978 ( 11969 PWs)   bands (ev):

[...]
   -32.6613 -32.6603 -32.6603 -32.6603 -32.6588 -32.6588 -32.6588 -32.6523
   -32.6523 -32.6209 -32.6208 -32.6208 -32.5830 -32.5662 -32.5662 -32.5662
   -32.5411 -32.5411 -32.5411 -32.5233 -32.5233 -32.5233 -32.5176 -32.5176
    12.6545  14.6045  14.6045  14.6045  15.5648  15.5648  15.5648  16.2447
    16.2447  16.2447  16.2842  16.2842  16.6506  16.6506  16.6506  16.8587
    17.0658  17.0658  17.0658  17.0770  17.2850  17.2850  17.4801  17.4801
    17.4801  17.6499  17.6499  17.6828  17.6828  17.6828  18.0217  18.0217
    18.0217  18.1752  18.1752  18.1752  18.2822  18.2822  18.2822  18.3404
    18.3404  18.4796  18.4796  18.4796  18.6164  18.6164  18.6164  19.5367
    19.7233  19.8169  19.8169  19.8169  20.0412  20.0412  20.0412  20.1848
    20.1848  20.1848  20.3515  20.3515  20.3836  20.3836  20.3836  20.5226
    20.5226  20.5226  20.6469  20.6469  20.6472  20.6472  20.6472  20.6753
    20.6753  20.9251  20.9251  20.9251  21.1595  21.1595  21.1595  21.2234
    21.2234  21.2873  21.2874  21.2874  22.0397  22.0397  22.0397  24.3329
    24.4594  24.4594

          k = 0.2829 0.2829 0.3961 ( 11342 PWs)   bands (ev):

   -66.7430 -66.7196 -66.7011 -66.7011 -66.6885 -66.6885 -66.6785 -66.6712
   -66.6504 -66.6487 -66.6438 -66.6437 -66.6370 -66.6370 -66.6234 -66.6056
   -33.0090 -33.0090 -32.9980 -32.9713 -32.9713 -32.9684 -32.9600 -32.9566
   -32.9397 -32.9397 -32.9365 -32.9285 -32.8978 -32.8666 -32.8666 -32.8584
   -32.8414 -32.8099 -32.8099 -32.7964 -32.7891 -32.7873 -32.7872 -32.7487
   -32.7010 -32.6880 -32.6631 -32.6605 -32.6451 -32.6451 -32.6316 -32.6316
   -32.6256 -32.6256 -32.6120 -32.5883 -32.5848 -32.5848 -32.5728 -32.5644
   -32.5465 -32.5359 -32.5336 -32.5336 -32.5276 -32.5242 -32.5242 -32.5156
    13.0234  14.0282  14.8560  14.8560  15.3740  15.3740  15.8846  16.4117
    16.4117  16.4301  16.4461  16.4772  16.6789  16.6789  16.6898  16.6993
    16.8310  16.8487  17.1946  17.1946  17.3140  17.4226  17.4829  17.4844
    17.5426  17.5787  17.5787  17.7565  17.7565  17.8162  17.8688  17.8688
    18.0112  18.0112  18.0732  18.0732  18.1158  18.1231  18.1372  18.1503
    18.2227  18.2227  18.2285  18.2809  18.3563  18.3563  18.7688  19.3527
    19.7756  19.9547  19.9898  19.9898  20.0943  20.0943  20.1350  20.1350
    20.2395  20.2962  20.3009  20.3053  20.3053  20.3307  20.4368  20.4505
    20.5781  20.5889  20.6510  20.6512  20.6533  20.6533  20.6874  20.6874
    20.7088  20.7434  20.9213  21.0421  21.0553  21.0553  21.1970  21.1970
    21.2637  21.3029  21.3029  21.3094  21.6854  21.6854  22.5825  23.7336
    24.7946  24.7946

          k = 0.2829 0.2829-0.5093 ( 11350 PWs)   bands (ev):

   -66.7323 -66.7322 -66.6952 -66.6952 -66.6952 -66.6952 -66.6751 -66.6751
   -66.6494 -66.6493 -66.6400 -66.6400 -66.6399 -66.6399 -66.6136 -66.6135
   -32.9905 -32.9905 -32.9905 -32.9905 -32.9663 -32.9662 -32.9642 -32.9641
   -32.9497 -32.9497 -32.9036 -32.9036 -32.9036 -32.9036 -32.8721 -32.8720
   -32.8279 -32.8278 -32.8024 -32.8024 -32.8024 -32.8024 -32.7449 -32.7449
   -32.7180 -32.7180 -32.6638 -32.6637 -32.6335 -32.6335 -32.6335 -32.6335
   -32.6067 -32.6067 -32.6067 -32.6067 -32.5764 -32.5764 -32.5665 -32.5665
   -32.5597 -32.5597 -32.5276 -32.5276 -32.5276 -32.5276 -32.5191 -32.5191
    13.4896  13.4897  15.1281  15.1281  15.1282  15.1282  16.2747  16.2749
    16.5699  16.5699  16.5701  16.5701  16.6011  16.6013  16.6151  16.6154
    16.7122  16.7123  17.3633  17.3634  17.4479  17.4480  17.4836  17.4836
    17.4837  17.4837  17.7136  17.7136  17.7137  17.7137  17.7757  17.7758
    17.9891  17.9892  18.0794  18.0794  18.0795  18.0795  18.1274  18.1274
    18.1275  18.1275  18.1564  18.1566  18.2079  18.2079  19.0222  19.0223
    20.0326  20.0327  20.1025  20.1027  20.1106  20.1106  20.1107  20.1107
    20.1629  20.1629  20.1630  20.1630  20.4706  20.4708  20.5049  20.5051
    20.5672  20.5673  20.6025  20.6026  20.6525  20.6525  20.6889  20.6889
    20.6890  20.6890  20.8613  20.8613  21.2611  21.2612  21.2612  21.2612
    21.3193  21.3193  21.3493  21.3493  21.3493  21.3494  23.1517  23.1518
    25.0671  25.0672

          k = 0.2829 0.3961 0.3961 ( 11367 PWs)   bands (ev):

   -66.7352 -66.7137 -66.7137 -66.6979 -66.6968 -66.6851 -66.6851 -66.6762
   -66.6479 -66.6447 -66.6447 -66.6388 -66.6370 -66.6268 -66.6268 -66.6110
   -32.9987 -32.9865 -32.9865 -32.9703 -32.9677 -32.9677 -32.9550 -32.9437
   -32.9437 -32.9430 -32.9330 -32.9044 -32.8945 -32.8902 -32.8676 -32.8436
   -32.8436 -32.8257 -32.8257 -32.8256 -32.8176 -32.8176 -32.8128 -32.7404
   -32.7178 -32.6589 -32.6589 -32.6457 -32.6457 -32.6451 -32.6285 -32.6233
   -32.6098 -32.6068 -32.5979 -32.5939 -32.5939 -32.5759 -32.5759 -32.5697
   -32.5456 -32.5448 -32.5448 -32.5377 -32.5247 -32.5247 -32.5221 -32.5189
    13.3784  14.3277  14.3277  15.0434  15.1294  15.6941  15.6942  16.4538
    16.5424  16.5572  16.6283  16.6463  16.6463  16.7264  16.7264  16.8633
    16.9302  17.0186  17.0186  17.1482  17.3866  17.4535  17.4537  17.5111
    17.5111  17.5650  17.5650  17.6399  17.6582  17.7494  17.7523  17.9173
    17.9176  17.9177  17.9251  17.9251  17.9385  17.9385  17.9714  18.0661
    18.0661  18.0928  18.1106  18.1400  18.1902  18.4509  18.4510  18.9841
    20.0441  20.0962  20.0962  20.1138  20.1582  20.2277  20.2745  20.3002
    20.3002  20.3092  20.3100  20.3100  20.3691  20.3691  20.4355  20.5289
    20.5690  20.5724  20.5724  20.5868  20.6357  20.6480  20.6480  20.6991
    20.7067  20.7067  20.7605  20.8073  21.0603  21.0603  21.0942  21.2723
    21.2723  21.2751  21.3189  21.3382  21.3880  22.1659  22.1659  23.1923
    25.2162  25.7871

          k = 0.2829 0.3961-0.5093 ( 11348 PWs)   bands (ev):

   -66.7253 -66.7252 -66.7064 -66.7063 -66.6913 -66.6913 -66.6810 -66.6809
   -66.6460 -66.6459 -66.6414 -66.6413 -66.6314 -66.6313 -66.6181 -66.6180
   -32.9834 -32.9834 -32.9756 -32.9755 -32.9590 -32.9589 -32.9570 -32.9570
   -32.9491 -32.9491 -32.9168 -32.9168 -32.8728 -32.8727 -32.8652 -32.8652
   -32.8469 -32.8469 -32.8328 -32.8327 -32.8285 -32.8285 -32.7829 -32.7829
   -32.6877 -32.6877 -32.6450 -32.6449 -32.6343 -32.6343 -32.6315 -32.6315
   -32.6057 -32.6057 -32.5911 -32.5911 -32.5707 -32.5706 -32.5706 -32.5706
   -32.5666 -32.5666 -32.5416 -32.5415 -32.5225 -32.5225 -32.5201 -32.5201
    13.8225  13.8226  14.6802  14.6803  15.4282  15.4283  16.0751  16.0752
    16.6558  16.6561  16.6658  16.6660  16.8095  16.8096  16.8301  16.8303
    16.8705  16.8707  17.3193  17.3195  17.3461  17.3463  17.4251  17.4253
    17.4432  17.4433  17.6280  17.6281  17.6436  17.6437  17.7787  17.7788
    17.8270  17.8272  17.8493  17.8494  17.9677  17.9678  18.0087  18.0088
    18.0428  18.0429  18.1176  18.1176  18.1784  18.1785  18.6684  18.6685
    20.2031  20.2032  20.2259  20.2260  20.2302  20.2303  20.2499  20.2500
    20.2888  20.2889  20.3308  20.3309  20.4487  20.4489  20.4642  20.4643
    20.5228  20.5230  20.5528  20.5528  20.5890  20.5890  20.6413  20.6413
    20.6751  20.6751  20.8731  20.8731  20.9792  20.9793  21.0604  21.0605
    21.2967  21.2967  21.3174  21.3175  21.7691  21.7692  22.6721  22.6722
    25.5994  25.5995

          k = 0.2829-0.5093-0.5093 ( 11348 PWs)   bands (ev):

   -66.7166 -66.7165 -66.7165 -66.7164 -66.6865 -66.6864 -66.6864 -66.6864
   -66.6434 -66.6433 -66.6433 -66.6433 -66.6241 -66.6240 -66.6240 -66.6240
   -32.9709 -32.9709 -32.9709 -32.9709 -32.9624 -32.9624 -32.9624 -32.9623
   -32.9326 -32.9326 -32.9326 -32.9325 -32.8577 -32.8577 -32.8577 -32.8576
   -32.8466 -32.8466 -32.8466 -32.8466 -32.8239 -32.8239 -32.8239 -32.8239
   -32.6588 -32.6587 -32.6587 -32.6587 -32.6367 -32.6367 -32.6367 -32.6367
   -32.5827 -32.5827 -32.5827 -32.5827 -32.5789 -32.5788 -32.5788 -32.5788
   -32.5573 -32.5573 -32.5573 -32.5572 -32.5204 -32.5204 -32.5204 -32.5204
    14.2307  14.2309  14.2309  14.2310  15.7675  15.7677  15.7677  15.7678
    16.6849  16.6852  16.6852  16.6854  16.9775  16.9776  16.9776  16.9777
    17.0828  17.0830  17.0830  17.0832  17.2790  17.2792  17.2792  17.2793
    17.5404  17.5405  17.5405  17.5406  17.6765  17.6765  17.6765  17.6766
    17.8501  17.8502  17.8502  17.8504  17.8746  17.8747  17.8747  17.8748
    18.0610  18.0611  18.0611  18.0611  18.3717  18.3718  18.3718  18.3718
    20.2621  20.2621  20.2621  20.2622  20.3527  20.3529  20.3529  20.3530
    20.3905  20.3906  20.3906  20.3906  20.4133  20.4135  20.4135  20.4136
    20.5155  20.5156  20.5156  20.5156  20.6465  20.6467  20.6467  20.6468
    20.6568  20.6568  20.6568  20.6569  20.9259  20.9259  20.9259  20.9260
    21.3212  21.3212  21.3212  21.3212  22.2139  22.2140  22.2140  22.2141
    26.1286  26.1287

          k = 0.3961 0.3961 0.3961 ( 11365 PWs)   bands (ev):

   -66.7280 -66.7084 -66.7084 -66.7083 -66.6937 -66.6937 -66.6937 -66.6825
   -66.6440 -66.6387 -66.6387 -66.6387 -66.6297 -66.6297 -66.6296 -66.6156
   -32.9748 -32.9748 -32.9748 -32.9610 -32.9610 -32.9610 -32.9430 -32.9213
   -32.9213 -32.9157 -32.9157 -32.9157 -32.9081 -32.9081 -32.8617 -32.8617
   -32.8617 -32.8538 -32.8538 -32.8538 -32.8459 -32.8459 -32.8459 -32.7761
   -32.6877 -32.6334 -32.6334 -32.6334 -32.6196 -32.6196 -32.6196 -32.6064
   -32.6064 -32.5939 -32.5939 -32.5939 -32.5916 -32.5916 -32.5916 -32.5728
   -32.5442 -32.5442 -32.5442 -32.5383 -32.5383 -32.5341 -32.5341 -32.5341
    13.7247  14.6364  14.6364  14.6364  15.3700  15.3700  15.3700  16.1558
    16.7315  16.7315  16.8041  16.8041  16.8041  16.9747  16.9747  16.9747
    17.0006  17.0007  17.0007  17.0925  17.4423  17.4423  17.5121  17.5121
    17.5882  17.5882  17.5882  17.6095  17.6095  17.6095  17.6989  17.6989
    17.6989  17.8209  17.8209  17.8209  17.8506  17.8506  17.8506  17.8831
    17.8831  17.8831  18.0346  18.0346  18.1382  18.1382  18.1382  18.6124
    20.2031  20.2031  20.2031  20.3405  20.3701  20.3701  20.3701  20.3725
    20.3725  20.3773  20.3773  20.3773  20.4369  20.4369  20.4369  20.5512
    20.5512  20.5806  20.5806  20.5806  20.5987  20.5987  20.5987  20.6810
    20.6810  20.9885  20.9885  21.0008  21.0008  21.0008  21.0768  21.0768
    21.0768  21.1243  21.1243  21.1243  21.7523  21.7523  21.7523  22.6889
    26.4580  26.4580

          k = 0.3961 0.3961-0.5093 ( 11380 PWs)   bands (ev):

   -66.7189 -66.7189 -66.7016 -66.7016 -66.7015 -66.7015 -66.6886 -66.6885
   -66.6411 -66.6410 -66.6337 -66.6337 -66.6336 -66.6336 -66.6220 -66.6219
   -32.9635 -32.9635 -32.9635 -32.9635 -32.9446 -32.9445 -32.9443 -32.9443
   -32.9292 -32.9291 -32.8942 -32.8941 -32.8848 -32.8848 -32.8848 -32.8848
   -32.8785 -32.8784 -32.8628 -32.8628 -32.8628 -32.8628 -32.8147 -32.8147
   -32.6598 -32.6597 -32.6141 -32.6140 -32.6109 -32.6109 -32.6109 -32.6109
   -32.6017 -32.6017 -32.6017 -32.6017 -32.5802 -32.5801 -32.5725 -32.5725
   -32.5637 -32.5637 -32.5411 -32.5411 -32.5411 -32.5411 -32.5345 -32.5345
    14.1545  14.1547  14.9997  14.9997  14.9999  14.9999  15.7601  15.7603
    16.8582  16.8585  16.9073  16.9075  16.9217  16.9217  16.9219  16.9219
    17.0639  17.0640  17.2943  17.2943  17.2945  17.2945  17.4701  17.4702
    17.5126  17.5126  17.5660  17.5662  17.5879  17.5881  17.7029  17.7029
    17.7030  17.7030  17.8163  17.8163  17.8163  17.8163  17.8773  17.8773
    17.8774  17.8774  17.9254  17.9256  17.9458  17.9458  18.3059  18.3059
    20.2928  20.2929  20.3118  20.3118  20.3119  20.3119  20.4398  20.4398
    20.4399  20.4399  20.4615  20.4617  20.4853  20.4855  20.5493  20.5494
    20.5687  20.5688  20.5740  20.5740  20.5740  20.5740  20.6582  20.6583
    20.6977  20.6977  20.8510  20.8511  21.0735  21.0735  21.0735  21.0735
    21.0930  21.0931  21.3675  21.3676  21.3676  21.3677  22.2123  22.2124
    26.7693  26.7694

          k = 0.3961-0.5093-0.5093 ( 11368 PWs)   bands (ev):

   -66.7109 -66.7109 -66.7109 -66.7108 -66.6955 -66.6955 -66.6955 -66.6954
   -66.6369 -66.6369 -66.6369 -66.6368 -66.6272 -66.6272 -66.6272 -66.6271
   -32.9482 -32.9482 -32.9482 -32.9482 -32.9443 -32.9442 -32.9442 -32.9441
   -32.9069 -32.9068 -32.9068 -32.9068 -32.8895 -32.8895 -32.8895 -32.8894
   -32.8850 -32.8850 -32.8850 -32.8849 -32.8498 -32.8498 -32.8498 -32.8498
   -32.6339 -32.6339 -32.6339 -32.6339 -32.6001 -32.6001 -32.6001 -32.6001
   -32.5935 -32.5935 -32.5935 -32.5935 -32.5753 -32.5753 -32.5753 -32.5753
   -32.5618 -32.5618 -32.5618 -32.5618 -32.5413 -32.5413 -32.5413 -32.5413
    14.5593  14.5595  14.5595  14.5596  15.3778  15.3779  15.3779  15.3781
    16.9242  16.9244  16.9244  16.9247  17.1281  17.1283  17.1283  17.1285
    17.2116  17.2118  17.2118  17.2119  17.2309  17.2311  17.2311  17.2313
    17.6211  17.6212  17.6212  17.6214  17.6363  17.6365  17.6365  17.6366
    17.6394  17.6394  17.6394  17.6395  17.7966  17.7967  17.7967  17.7968
    17.8606  17.8607  17.8607  17.8607  18.0084  18.0085  18.0085  18.0085
    20.3479  20.3479  20.3479  20.3480  20.4032  20.4033  20.4033  20.4034
    20.4877  20.4878  20.4878  20.4879  20.5564  20.5564  20.5564  20.5564
    20.5721  20.5722  20.5722  20.5723  20.6207  20.6208  20.6208  20.6208
    20.8892  20.8893  20.8893  20.8894  21.0029  21.0030  21.0030  21.0031
    21.0483  21.0484  21.0484  21.0484  21.7817  21.7818  21.7818  21.7819
    27.3215  27.3215

          k =-0.5093-0.5093-0.5093 ( 11296 PWs)   bands (ev):

   -66.7038 -66.7038 -66.7038 -66.7038 -66.7037 -66.7037 -66.7037 -66.7036
   -66.6314 -66.6313 -66.6313 -66.6313 -66.6313 -66.6313 -66.6313 -66.6312
   -32.9189 -32.9189 -32.9189 -32.9189 -32.9189 -32.9189 -32.9188 -32.9188
   -32.9187 -32.9187 -32.9187 -32.9187 -32.9187 -32.9187 -32.9187 -32.9187
   -32.8784 -32.8783 -32.8783 -32.8783 -32.8783 -32.8783 -32.8783 -32.8783
   -32.6114 -32.6114 -32.6114 -32.6114 -32.6114 -32.6114 -32.6114 -32.6114
   -32.5682 -32.5682 -32.5682 -32.5682 -32.5682 -32.5682 -32.5682 -32.5682
   -32.5682 -32.5682 -32.5682 -32.5681 -32.5681 -32.5681 -32.5681 -32.5681
    14.9561  14.9562  14.9562  14.9562  14.9564  14.9564  14.9564  14.9565
    17.1793  17.1793  17.1795  17.1795  17.1795  17.1795  17.1795  17.1795
    17.1797  17.1797  17.1797  17.1797  17.1797  17.1797  17.1799  17.1799
    17.6913  17.6913  17.6913  17.6913  17.6914  17.6914  17.6914  17.6914
    17.7089  17.7089  17.7089  17.7089  17.7089  17.7090  17.7090  17.7090
    17.7090  17.7090  17.7090  17.7091  17.7091  17.7091  17.7091  17.7091
    20.4496  20.4496  20.4496  20.4496  20.4496  20.4496  20.4497  20.4497
    20.4498  20.4498  20.4498  20.4498  20.4498  20.4499  20.4499  20.4499
    20.7893  20.7893  20.7894  20.7894  20.7894  20.7894  20.7894  20.7894
    20.7895  20.7895  20.7895  20.7895  20.7895  20.7895  20.7896  20.7896
    21.3829  21.3830  21.3830  21.3830  21.3831  21.3831  21.3831  21.3832
    28.4899  28.4899

     the Fermi energy is    20.5164 ev

!    total energy              =   -5267.70721439 Ry
     Harris-Foulkes estimate   =   -5267.70721434 Ry
     estimated scf accuracy    <       0.00000005 Ry

     total all-electron energy =    -40728.451743 Ry

     The total energy is the sum of the following terms:

     one-electron contribution =   -1620.04061424 Ry
     hartree contribution      =     989.15613679 Ry
     xc contribution           =    -442.98196833 Ry
     ewald contribution        =   -2868.94983243 Ry
     one-center paw contrib.   =   -1324.76013378 Ry
     smearing contrib. (-TS)   =      -0.13080240 Ry

     convergence has been achieved in  14 iterations

     Forces acting on atoms (cartesian axes, Ry/au):

     atom    1 type  1   force =     0.00000000    0.00000000    0.00000000
     atom    2 type  1   force =     0.00000340    0.00000340    0.00000340
     atom    3 type  1   force =     0.00000000    0.00000000    0.00000000
     atom    4 type  1   force =     0.00000340    0.00000340   -0.00000340
     atom    5 type  1   force =     0.00000000    0.00000000    0.00000000
     atom    6 type  1   force =     0.00000340   -0.00000340    0.00000340
     atom    7 type  1   force =     0.00000000    0.00000000    0.00000000
     atom    8 type  1   force =     0.00000340   -0.00000340   -0.00000340
     atom    9 type  1   force =     0.00000000    0.00000000    0.00000000
     atom   10 type  1   force =    -0.00000340    0.00000340    0.00000340
     atom   11 type  1   force =     0.00000000   -0.00000000   -0.00000000
     atom   12 type  1   force =    -0.00000340    0.00000340   -0.00000340
     atom   13 type  1   force =     0.00000000    0.00000000    0.00000000
     atom   14 type  1   force =    -0.00000340   -0.00000340    0.00000340
     atom   15 type  1   force =     0.00000000    0.00000000    0.00000000
     atom   16 type  1   force =    -0.00000340   -0.00000340   -0.00000340

     Total force =     0.000017     Total SCF correction =     0.000481
     SCF correction compared to forces is large: reduce conv_thr to get better values


     Computing stress (Cartesian axis) and pressure

          total   stress  (Ry/bohr**3)                   (kbar)     P=    3.00
   0.00002041   0.00000000   0.00000000          3.00      0.00      0.00
   0.00000000   0.00002041   0.00000000          0.00      3.00      0.00
   0.00000000   0.00000000   0.00002041          0.00      0.00      3.00


     Writing output data file ncQSmVIrhrxsUiFA.save/
 
     init_run     :      7.41s CPU      7.78s WALL (       2 calls)
     electrons    :   1659.50s CPU   1698.29s WALL (       7 calls)
     update_pot   :      1.59s CPU      1.62s WALL (       5 calls)
     forces       :      8.78s CPU      9.33s WALL (       7 calls)
     stress       :     33.93s CPU     34.23s WALL (       7 calls)

     Called by init_run:
     wfcinit      :      6.53s CPU      6.77s WALL (       2 calls)
     potinit      :      0.36s CPU      0.39s WALL (       2 calls)
     hinit0       :      0.22s CPU      0.25s WALL (       2 calls)

     Called by electrons:
     c_bands      :   1509.25s CPU   1541.06s WALL (     117 calls)
     sum_band     :    132.35s CPU    137.86s WALL (     117 calls)
     v_of_rho     :      1.31s CPU      1.42s WALL (     123 calls)
     newd         :      2.84s CPU      3.66s WALL (     123 calls)
     PAW_pot      :     14.64s CPU     15.14s WALL (     128 calls)
     mix_rho      :      0.38s CPU      0.41s WALL (     117 calls)

     Called by c_bands:
     init_us_2    :      8.81s CPU      8.92s WALL (    8925 calls)
     cegterg      :   1461.81s CPU   1493.26s WALL (    4095 calls)

     Called by sum_band:
     sum_band:bec :      1.53s CPU      1.55s WALL (    4270 calls)
     addusdens    :      3.13s CPU      3.91s WALL (     117 calls)

     Called by *egterg:
     h_psi        :    593.63s CPU    612.83s WALL (   14185 calls)
     s_psi        :     42.95s CPU     43.13s WALL (   14185 calls)
     g_psi        :      2.34s CPU      2.37s WALL (   10020 calls)
     cdiaghg      :    641.39s CPU    643.13s WALL (   13905 calls)

     Called by h_psi:
     h_psi:pot    :    589.37s CPU    608.52s WALL (   14185 calls)
     h_psi:calbec :     49.34s CPU     54.63s WALL (   14185 calls)
     vloc_psi     :    496.06s CPU    509.75s WALL (   14185 calls)
     add_vuspsi   :     43.86s CPU     44.06s WALL (   14185 calls)

     General routines
     calbec       :     74.67s CPU     82.60s WALL (   19680 calls)
     fft          :      1.26s CPU      1.40s WALL (    1773 calls)
     ffts         :      0.11s CPU      0.13s WALL (     240 calls)
     fftw         :    555.12s CPU    570.17s WALL ( 3865584 calls)
     interpolate  :      0.16s CPU      0.18s WALL (     123 calls)
 
     Parallel routines
     fft_scatt_xy :     46.52s CPU     47.78s WALL ( 3867597 calls)
     fft_scatt_yz :    311.08s CPU    319.82s WALL ( 3867597 calls)
 
     PWSCF        : 28m35.09s CPU    29m18.83s WALL

 
   This run was terminated on:   1:40:11  11Jun2020            

=------------------------------------------------------------------------------=
   JOB DONE.
=------------------------------------------------------------------------------=
