
     Program PWSCF v.6.3 starts on 15Jun2020 at  3: 3:30 

     This program is part of the open-source Quantum ESPRESSO suite
     for quantum simulation of materials; please cite
         "P. Giannozzi et al., J. Phys.:Condens. Matter 21 395502 (2009);
         "P. Giannozzi et al., J. Phys.:Condens. Matter 29 465901 (2017);
          URL http://www.quantum-espresso.org", 
     in publications or presentations arising from this work. More details at
     http://www.quantum-espresso.org/quote

     Parallel version (MPI & OpenMP), running on      20 processor cores
     Number of MPI processes:                20
     Threads/MPI process:                     1

     MPI processes distributed on     1 nodes
     R & G space division:  proc/nbgrp/npool/nimage =      20
     Reading input from wd/relax/relax.in

     Current dimensions of program PWSCF are:
     Max number of different atomic species (ntypx) = 10
     Max number of k-points (npk) =  40000
     Max angular momentum in pseudopotentials (lmaxx) =  3
     Message from routine read_upf::
     Pseudo file /rds/homes/b/bxp912/pp/Cr.pbe-spn-kjpaw_psl.1.0.0.UPF has been successfully fixed on the fly.
To avoid this message in the future you can permanently fix 
 your pseudo files following instructions given in: 
https://gitlab.com/QEF/q-e/blob/master/upftools/how_to_fix_upf.md
               file Cr.pbe-spn-kjpaw_psl.1.0.0.UPF: wavefunction(s)  3S 3P 3D renormalized
     Message from routine read_upf::
     Pseudo file /rds/homes/b/bxp912/pp/Cr.pbe-spn-kjpaw_psl.1.0.0.UPF has been successfully fixed on the fly.
To avoid this message in the future you can permanently fix 
 your pseudo files following instructions given in: 
https://gitlab.com/QEF/q-e/blob/master/upftools/how_to_fix_upf.md
               file Cr.pbe-spn-kjpaw_psl.1.0.0.UPF: wavefunction(s)  3S 3P 3D renormalized

     Subspace diagonalization in iterative solution of the eigenvalue problem:
     a serial algorithm will be used

     Found symmetry operation: I + (  0.0000  0.0000 -0.5000)
     This is a supercell, fractional translations are disabled
 
     Parallelization info
     --------------------
     sticks:   dense  smooth     PW     G-vecs:    dense   smooth      PW
     Min         191     126     35                 8926     4786     711
     Max         193     127     36                 8929     4789     714
     Sum        3833    2537    717               178541    95769   14243
 


     bravais-lattice index     =            0
     lattice parameter (alat)  =      10.5840  a.u.
     unit-cell volume          =    1185.6309 (a.u.)^3
     number of atoms/cell      =           16
     number of atomic types    =            2
     number of electrons       =       224.00
     number of Kohn-Sham states=          134
     kinetic-energy cutoff     =      71.0000  Ry
     charge density cutoff     =     430.0000  Ry
     convergence threshold     =      1.0E-06
     mixing beta               =       0.1000
     number of iterations used =           10  plain     mixing
     Exchange-correlation      = SLA PW PBX PBC ( 1  4  3  4 0 0)
     nstep                     =           40


     celldm(1)=  10.584000  celldm(2)=   0.000000  celldm(3)=   0.000000
     celldm(4)=   0.000000  celldm(5)=   0.000000  celldm(6)=   0.000000

     crystal axes: (cart. coord. in units of alat)
               a(1) = (   1.000000   0.000000   0.000000 )  
               a(2) = (   0.000000   1.000000   0.000000 )  
               a(3) = (   0.000000   0.000000   1.000000 )  

     reciprocal axes: (cart. coord. in units 2 pi/alat)
               b(1) = (  1.000000  0.000000  0.000000 )  
               b(2) = (  0.000000  1.000000  0.000000 )  
               b(3) = (  0.000000  0.000000  1.000000 )  


     PseudoPot. # 1 for Cr read from file:
     /rds/homes/b/bxp912/pp/Cr.pbe-spn-kjpaw_psl.1.0.0.UPF
     MD5 check sum: cb1c17117da000fe5e03c4f1a6841d9c
     Pseudo is Projector augmented-wave + core cor, Zval = 14.0
     Generated using "atomic" code by A. Dal Corso v.5.1
     Shape of augmentation charge: PSQ
     Using radial grid of 1183 points,  6 beta functions with: 
                l(1) =   0
                l(2) =   0
                l(3) =   1
                l(4) =   1
                l(5) =   2
                l(6) =   2
     Q(r) pseudized with 0 coefficients 


     PseudoPot. # 2 for Cr read from file:
     /rds/homes/b/bxp912/pp/Cr.pbe-spn-kjpaw_psl.1.0.0.UPF
     MD5 check sum: cb1c17117da000fe5e03c4f1a6841d9c
     Pseudo is Projector augmented-wave + core cor, Zval = 14.0
     Generated using "atomic" code by A. Dal Corso v.5.1
     Shape of augmentation charge: PSQ
     Using radial grid of 1183 points,  6 beta functions with: 
                l(1) =   0
                l(2) =   0
                l(3) =   1
                l(4) =   1
                l(5) =   2
                l(6) =   2
     Q(r) pseudized with 0 coefficients 


     atomic species   valence    mass     pseudopotential
        Cr1           14.00    55.84500     Cr( 1.00)
        Cr2           14.00    55.84500     Cr( 1.00)

     Starting magnetic structure 
     atomic species   magnetization
        Cr1          0.100
        Cr2          0.100

     48 Sym. Ops., with inversion, found



   Cartesian axes

     site n.     atom                  positions (alat units)
         1           Cr1 tau(   1) = (   0.0000000   0.0000000   0.0000000  )
         2           Cr2 tau(   2) = (   0.2500000   0.2500000   0.2500000  )
         3           Cr1 tau(   3) = (   0.0000000   0.0000000   0.5000000  )
         4           Cr2 tau(   4) = (   0.2500000   0.2500000   0.7500000  )
         5           Cr1 tau(   5) = (   0.0000000   0.5000000   0.0000000  )
         6           Cr2 tau(   6) = (   0.2500000   0.7500000   0.2500000  )
         7           Cr1 tau(   7) = (   0.0000000   0.5000000   0.5000000  )
         8           Cr2 tau(   8) = (   0.2500000   0.7500000   0.7500000  )
         9           Cr1 tau(   9) = (   0.5000000   0.0000000   0.0000000  )
        10           Cr2 tau(  10) = (   0.7500000   0.2500000   0.2500000  )
        11           Cr1 tau(  11) = (   0.5000000   0.0000000   0.5000000  )
        12           Cr2 tau(  12) = (   0.7500000   0.2500000   0.7500000  )
        13           Cr1 tau(  13) = (   0.5000000   0.5000000   0.0000000  )
        14           Cr2 tau(  14) = (   0.7500000   0.7500000   0.2500000  )
        15           Cr1 tau(  15) = (   0.5000000   0.5000000   0.5000000  )
        16           Cr2 tau(  16) = (   0.7500000   0.7500000   0.7500000  )

     number of k points=    35  Marzari-Vanderbilt smearing, width (Ry)=  0.0400
                       cart. coord. in units 2pi/alat
        k(    1) = (   0.0555556   0.0555556   0.0555556), wk =   0.0109739
        k(    2) = (   0.0555556   0.0555556   0.1666667), wk =   0.0329218
        k(    3) = (   0.0555556   0.0555556   0.2777778), wk =   0.0329218
        k(    4) = (   0.0555556   0.0555556   0.3888889), wk =   0.0329218
        k(    5) = (   0.0555556   0.0555556  -0.5000000), wk =   0.0164609
        k(    6) = (   0.0555556   0.1666667   0.1666667), wk =   0.0329218
        k(    7) = (   0.0555556   0.1666667   0.2777778), wk =   0.0658436
        k(    8) = (   0.0555556   0.1666667   0.3888889), wk =   0.0658436
        k(    9) = (   0.0555556   0.1666667  -0.5000000), wk =   0.0329218
        k(   10) = (   0.0555556   0.2777778   0.2777778), wk =   0.0329218
        k(   11) = (   0.0555556   0.2777778   0.3888889), wk =   0.0658436
        k(   12) = (   0.0555556   0.2777778  -0.5000000), wk =   0.0329218
        k(   13) = (   0.0555556   0.3888889   0.3888889), wk =   0.0329218
        k(   14) = (   0.0555556   0.3888889  -0.5000000), wk =   0.0329218
        k(   15) = (   0.0555556  -0.5000000  -0.5000000), wk =   0.0082305
        k(   16) = (   0.1666667   0.1666667   0.1666667), wk =   0.0109739
        k(   17) = (   0.1666667   0.1666667   0.2777778), wk =   0.0329218
        k(   18) = (   0.1666667   0.1666667   0.3888889), wk =   0.0329218
        k(   19) = (   0.1666667   0.1666667  -0.5000000), wk =   0.0164609
        k(   20) = (   0.1666667   0.2777778   0.2777778), wk =   0.0329218
        k(   21) = (   0.1666667   0.2777778   0.3888889), wk =   0.0658436
        k(   22) = (   0.1666667   0.2777778  -0.5000000), wk =   0.0329218
        k(   23) = (   0.1666667   0.3888889   0.3888889), wk =   0.0329218
        k(   24) = (   0.1666667   0.3888889  -0.5000000), wk =   0.0329218
        k(   25) = (   0.1666667  -0.5000000  -0.5000000), wk =   0.0082305
        k(   26) = (   0.2777778   0.2777778   0.2777778), wk =   0.0109739
        k(   27) = (   0.2777778   0.2777778   0.3888889), wk =   0.0329218
        k(   28) = (   0.2777778   0.2777778  -0.5000000), wk =   0.0164609
        k(   29) = (   0.2777778   0.3888889   0.3888889), wk =   0.0329218
        k(   30) = (   0.2777778   0.3888889  -0.5000000), wk =   0.0329218
        k(   31) = (   0.2777778  -0.5000000  -0.5000000), wk =   0.0082305
        k(   32) = (   0.3888889   0.3888889   0.3888889), wk =   0.0109739
        k(   33) = (   0.3888889   0.3888889  -0.5000000), wk =   0.0164609
        k(   34) = (   0.3888889  -0.5000000  -0.5000000), wk =   0.0082305
        k(   35) = (  -0.5000000  -0.5000000  -0.5000000), wk =   0.0013717

     Dense  grid:   178541 G-vectors     FFT dimensions: (  72,  72,  72)

     Smooth grid:    95769 G-vectors     FFT dimensions: (  60,  60,  60)

     Estimated max dynamical RAM per process >     142.49 MB

     Estimated total dynamical RAM >       2.78 GB
     Generating pointlists ...
     new r_m :   0.1786 (alat units)  1.8905 (a.u.) for type    1
     new r_m :   0.1786 (alat units)  1.8905 (a.u.) for type    2

     Check: negative/imaginary core charge=   -0.000009    0.000000

     Initial potential from superposition of free atoms

     starting charge  223.98764, renormalised to  224.00000
     Starting wfcs are  160 randomized atomic wfcs
     Checking if some PAW data can be deallocated... 

     total cpu time spent up to now is       12.4 secs

     Self-consistent Calculation

     iteration #  1     ecut=    71.00 Ry     beta= 0.10
     Davidson diagonalization with overlap
     ethr =  1.00E-02,  avg # of iterations =  3.1

     Threshold (ethr) on eigenvalues was too large:
     Diagonalizing with lowered threshold

     Davidson diagonalization with overlap
     ethr =  7.94E-04,  avg # of iterations =  3.4

     total cpu time spent up to now is       70.3 secs

     total energy              =   -3971.36717693 Ry
     Harris-Foulkes estimate   =   -3971.53847488 Ry
     estimated scf accuracy    <       1.92010701 Ry

     total magnetization       =     4.43 Bohr mag/cell
     absolute magnetization    =     4.60 Bohr mag/cell

     iteration #  2     ecut=    71.00 Ry     beta= 0.10
     Davidson diagonalization with overlap
     ethr =  8.57E-04,  avg # of iterations =  1.1

     total cpu time spent up to now is       90.0 secs

     total energy              =   -3971.07181665 Ry
     Harris-Foulkes estimate   =   -3971.38947211 Ry
     estimated scf accuracy    <       1.25282012 Ry

     total magnetization       =     4.30 Bohr mag/cell
     absolute magnetization    =     4.44 Bohr mag/cell

     iteration #  3     ecut=    71.00 Ry     beta= 0.10
     Davidson diagonalization with overlap
     ethr =  5.59E-04,  avg # of iterations =  3.1

     total cpu time spent up to now is      121.6 secs

     total energy              =   -3971.35637735 Ry
     Harris-Foulkes estimate   =   -3971.40942033 Ry
     estimated scf accuracy    <       0.28462967 Ry

     total magnetization       =     3.51 Bohr mag/cell
     absolute magnetization    =     3.62 Bohr mag/cell

     iteration #  4     ecut=    71.00 Ry     beta= 0.10
     Davidson diagonalization with overlap
     ethr =  1.27E-04,  avg # of iterations =  2.0

     total cpu time spent up to now is      144.0 secs

     total energy              =   -3971.40800252 Ry
     Harris-Foulkes estimate   =   -3971.36789096 Ry
     estimated scf accuracy    <       0.18636890 Ry

     total magnetization       =     3.41 Bohr mag/cell
     absolute magnetization    =     3.54 Bohr mag/cell

     iteration #  5     ecut=    71.00 Ry     beta= 0.10
     Davidson diagonalization with overlap
     ethr =  8.32E-05,  avg # of iterations =  2.9

     total cpu time spent up to now is      173.3 secs

     total energy              =   -3971.47198944 Ry
     Harris-Foulkes estimate   =   -3971.44964910 Ry
     estimated scf accuracy    <       0.14956268 Ry

     total magnetization       =     2.26 Bohr mag/cell
     absolute magnetization    =     2.43 Bohr mag/cell

     iteration #  6     ecut=    71.00 Ry     beta= 0.10
     Davidson diagonalization with overlap
     ethr =  6.68E-05,  avg # of iterations =  2.5

     total cpu time spent up to now is      203.5 secs

     total energy              =   -3971.50815312 Ry
     Harris-Foulkes estimate   =   -3971.50822743 Ry
     estimated scf accuracy    <       0.00652853 Ry

     total magnetization       =     0.26 Bohr mag/cell
     absolute magnetization    =     0.39 Bohr mag/cell

     iteration #  7     ecut=    71.00 Ry     beta= 0.10
     Davidson diagonalization with overlap
     c_bands:  1 eigenvalues not converged
     c_bands:  1 eigenvalues not converged
     ethr =  2.91E-06,  avg # of iterations =  6.2

     total cpu time spent up to now is      248.8 secs

     total energy              =   -3971.50742193 Ry
     Harris-Foulkes estimate   =   -3971.50948848 Ry
     estimated scf accuracy    <       0.00559337 Ry

     total magnetization       =     0.16 Bohr mag/cell
     absolute magnetization    =     0.42 Bohr mag/cell

     iteration #  8     ecut=    71.00 Ry     beta= 0.10
     Davidson diagonalization with overlap
     ethr =  2.50E-06,  avg # of iterations =  4.2

     total cpu time spent up to now is      295.9 secs

     total energy              =   -3971.50903940 Ry
     Harris-Foulkes estimate   =   -3971.51143921 Ry
     estimated scf accuracy    <       0.01099616 Ry

     total magnetization       =     0.09 Bohr mag/cell
     absolute magnetization    =     0.27 Bohr mag/cell

     iteration #  9     ecut=    71.00 Ry     beta= 0.10
     Davidson diagonalization with overlap
     ethr =  2.50E-06,  avg # of iterations =  2.9

     total cpu time spent up to now is      325.5 secs

     total energy              =   -3971.50987336 Ry
     Harris-Foulkes estimate   =   -3971.50998886 Ry
     estimated scf accuracy    <       0.00092609 Ry

     total magnetization       =     0.07 Bohr mag/cell
     absolute magnetization    =     0.15 Bohr mag/cell

     iteration # 10     ecut=    71.00 Ry     beta= 0.10
     Davidson diagonalization with overlap
     ethr =  4.13E-07,  avg # of iterations =  3.8

     total cpu time spent up to now is      356.7 secs

     total energy              =   -3971.50999290 Ry
     Harris-Foulkes estimate   =   -3971.50998378 Ry
     estimated scf accuracy    <       0.00010764 Ry

     total magnetization       =     0.04 Bohr mag/cell
     absolute magnetization    =     0.10 Bohr mag/cell

     iteration # 11     ecut=    71.00 Ry     beta= 0.10
     Davidson diagonalization with overlap
     ethr =  4.81E-08,  avg # of iterations =  5.2

     total cpu time spent up to now is      397.6 secs

     total energy              =   -3971.51001153 Ry
     Harris-Foulkes estimate   =   -3971.51001250 Ry
     estimated scf accuracy    <       0.00013632 Ry

     total magnetization       =     0.03 Bohr mag/cell
     absolute magnetization    =     0.11 Bohr mag/cell

     iteration # 12     ecut=    71.00 Ry     beta= 0.10
     Davidson diagonalization with overlap
     ethr =  4.81E-08,  avg # of iterations =  3.3

     total cpu time spent up to now is      424.2 secs

     total energy              =   -3971.50996885 Ry
     Harris-Foulkes estimate   =   -3971.51002186 Ry
     estimated scf accuracy    <       0.00046298 Ry

     total magnetization       =     0.04 Bohr mag/cell
     absolute magnetization    =     0.12 Bohr mag/cell

     iteration # 13     ecut=    71.00 Ry     beta= 0.10
     Davidson diagonalization with overlap
     ethr =  4.81E-08,  avg # of iterations =  4.8

     total cpu time spent up to now is      468.1 secs

     total energy              =   -3971.51009584 Ry
     Harris-Foulkes estimate   =   -3971.51009529 Ry
     estimated scf accuracy    <       0.00022007 Ry

     total magnetization       =    -0.05 Bohr mag/cell
     absolute magnetization    =     0.06 Bohr mag/cell

     iteration # 14     ecut=    71.00 Ry     beta= 0.10
     Davidson diagonalization with overlap
     ethr =  4.81E-08,  avg # of iterations =  3.0

     total cpu time spent up to now is      498.6 secs

     total energy              =   -3971.51012075 Ry
     Harris-Foulkes estimate   =   -3971.51013302 Ry
     estimated scf accuracy    <       0.00028274 Ry

     total magnetization       =     0.00 Bohr mag/cell
     absolute magnetization    =     0.05 Bohr mag/cell

     iteration # 15     ecut=    71.00 Ry     beta= 0.10
     Davidson diagonalization with overlap
     ethr =  4.81E-08,  avg # of iterations =  1.0

     total cpu time spent up to now is      518.1 secs

     total energy              =   -3971.51012208 Ry
     Harris-Foulkes estimate   =   -3971.51012266 Ry
     estimated scf accuracy    <       0.00015422 Ry

     total magnetization       =     0.00 Bohr mag/cell
     absolute magnetization    =     0.05 Bohr mag/cell

     iteration # 16     ecut=    71.00 Ry     beta= 0.10
     Davidson diagonalization with overlap
     ethr =  4.81E-08,  avg # of iterations =  1.0

     total cpu time spent up to now is      537.6 secs

     total energy              =   -3971.51012742 Ry
     Harris-Foulkes estimate   =   -3971.51012448 Ry
     estimated scf accuracy    <       0.00005032 Ry

     total magnetization       =     0.00 Bohr mag/cell
     absolute magnetization    =     0.05 Bohr mag/cell

     iteration # 17     ecut=    71.00 Ry     beta= 0.10
     Davidson diagonalization with overlap
     ethr =  2.25E-08,  avg # of iterations =  1.2

     total cpu time spent up to now is      557.8 secs

     total energy              =   -3971.51013125 Ry
     Harris-Foulkes estimate   =   -3971.51012830 Ry
     estimated scf accuracy    <       0.00002793 Ry

     total magnetization       =     0.00 Bohr mag/cell
     absolute magnetization    =     0.05 Bohr mag/cell

     iteration # 18     ecut=    71.00 Ry     beta= 0.10
     Davidson diagonalization with overlap
     ethr =  1.25E-08,  avg # of iterations =  1.7

     total cpu time spent up to now is      579.6 secs

     total energy              =   -3971.51013421 Ry
     Harris-Foulkes estimate   =   -3971.51013197 Ry
     estimated scf accuracy    <       0.00002661 Ry

     total magnetization       =     0.00 Bohr mag/cell
     absolute magnetization    =     0.05 Bohr mag/cell

     iteration # 19     ecut=    71.00 Ry     beta= 0.10
     Davidson diagonalization with overlap
     ethr =  1.19E-08,  avg # of iterations =  1.0

     total cpu time spent up to now is      599.2 secs

     total energy              =   -3971.51013525 Ry
     Harris-Foulkes estimate   =   -3971.51013447 Ry
     estimated scf accuracy    <       0.00003635 Ry

     total magnetization       =     0.00 Bohr mag/cell
     absolute magnetization    =     0.05 Bohr mag/cell

     iteration # 20     ecut=    71.00 Ry     beta= 0.10
     Davidson diagonalization with overlap
     ethr =  1.19E-08,  avg # of iterations =  1.0

     total cpu time spent up to now is      618.7 secs

     total energy              =   -3971.51013562 Ry
     Harris-Foulkes estimate   =   -3971.51013540 Ry
     estimated scf accuracy    <       0.00003012 Ry

     total magnetization       =     0.00 Bohr mag/cell
     absolute magnetization    =     0.05 Bohr mag/cell

     iteration # 21     ecut=    71.00 Ry     beta= 0.10
     Davidson diagonalization with overlap
     ethr =  1.19E-08,  avg # of iterations =  1.0

     total cpu time spent up to now is      638.2 secs

     total energy              =   -3971.51013477 Ry
     Harris-Foulkes estimate   =   -3971.51013588 Ry
     estimated scf accuracy    <       0.00001710 Ry

     total magnetization       =     0.00 Bohr mag/cell
     absolute magnetization    =     0.05 Bohr mag/cell

     iteration # 22     ecut=    71.00 Ry     beta= 0.10
     Davidson diagonalization with overlap
     ethr =  7.63E-09,  avg # of iterations =  4.0

     total cpu time spent up to now is      670.7 secs

     total energy              =   -3971.51013707 Ry
     Harris-Foulkes estimate   =   -3971.51013650 Ry
     estimated scf accuracy    <       0.00000160 Ry

     total magnetization       =    -0.00 Bohr mag/cell
     absolute magnetization    =     0.05 Bohr mag/cell

     iteration # 23     ecut=    71.00 Ry     beta= 0.10
     Davidson diagonalization with overlap
     ethr =  7.15E-10,  avg # of iterations =  4.7

     total cpu time spent up to now is      713.8 secs

     total energy              =   -3971.51013706 Ry
     Harris-Foulkes estimate   =   -3971.51013748 Ry
     estimated scf accuracy    <       0.00000794 Ry

     total magnetization       =    -0.00 Bohr mag/cell
     absolute magnetization    =     0.05 Bohr mag/cell

     iteration # 24     ecut=    71.00 Ry     beta= 0.10
     Davidson diagonalization with overlap
     ethr =  7.15E-10,  avg # of iterations =  4.2
 
     Magnetic moment per site:
     atom:    1    charge:   12.1844    magn:    0.0048    constr:    0.0000
     atom:    2    charge:   12.1848    magn:   -0.0030    constr:    0.0000
     atom:    3    charge:   12.1844    magn:    0.0032    constr:    0.0000
     atom:    4    charge:   12.1848    magn:   -0.0030    constr:    0.0000
     atom:    5    charge:   12.1844    magn:    0.0032    constr:    0.0000
     atom:    6    charge:   12.1848    magn:   -0.0030    constr:    0.0000
     atom:    7    charge:   12.1848    magn:    0.0026    constr:    0.0000
     atom:    8    charge:   12.1848    magn:   -0.0030    constr:    0.0000
     atom:    9    charge:   12.1844    magn:    0.0032    constr:    0.0000
     atom:   10    charge:   12.1848    magn:   -0.0030    constr:    0.0000
     atom:   11    charge:   12.1848    magn:    0.0026    constr:    0.0000
     atom:   12    charge:   12.1848    magn:   -0.0030    constr:    0.0000
     atom:   13    charge:   12.1848    magn:    0.0026    constr:    0.0000
     atom:   14    charge:   12.1848    magn:   -0.0030    constr:    0.0000
     atom:   15    charge:   12.1849    magn:    0.0022    constr:    0.0000
     atom:   16    charge:   12.1848    magn:   -0.0030    constr:    0.0000

     total cpu time spent up to now is      751.3 secs

     End of self-consistent calculation

 ------ SPIN UP ------------


          k = 0.0556 0.0556 0.0556 ( 11954 PWs)   bands (ev):

   -51.2135 -51.0021 -51.0018 -51.0018 -50.9650 -50.9645 -50.9645 -50.9642
   -50.9641 -50.9641 -50.9597 -50.9596 -50.9596 -50.9433 -50.9400 -50.7896
   -22.9625 -22.9625 -22.9624 -22.9573 -22.9572 -22.9572 -22.6221 -22.6221
   -22.6102 -22.5132 -22.5077 -22.5076 -22.5076 -22.4671 -22.4671 -22.4447
   -22.4447 -22.4446 -22.3735 -22.3735 -22.3276 -22.2749 -22.2749 -22.2748
   -22.2554 -22.2553 -22.2553 -22.2261 -22.2260 -22.2260 -22.2194 -22.2194
   -22.2194 -22.2101 -22.2101 -22.2100 -22.1919 -22.1917 -22.1917 -21.9000
   -21.8999 -21.8999 -21.8971 -21.8941 -21.8941 -21.8940 -21.8850 -21.8850
    12.6908  16.0215  16.0215  16.0216  16.0418  16.0418  16.0418  16.0923
    16.0923  16.4277  16.4277  16.4277  16.8429  16.8429  16.8429  18.0623
    18.0856  18.0856  18.0856  18.1026  18.1027  18.1027  18.1765  18.1765
    18.3651  18.3651  18.4341  18.4768  18.4768  18.4769  18.9658  18.9658
    18.9659  19.7353  19.7353  19.7947  20.1068  20.1069  20.1069  20.2311
    20.2311  20.2312  20.3409  20.3409  20.3409  20.4581  20.4581  20.4582
    21.4028  21.4028  21.4029  21.5167  21.5167  21.5167  21.7160  21.7161
    21.7161  21.7786  21.7786  21.7786  21.9395  21.9395  21.9396  21.9458
    21.9458  22.0088  22.0088  22.0089  22.3319  22.3319

          k = 0.0556 0.0556 0.1667 ( 11961 PWs)   bands (ev):

   -51.2060 -51.0396 -51.0001 -51.0000 -50.9684 -50.9682 -50.9639 -50.9638
   -50.9629 -50.9584 -50.9581 -50.9580 -50.9445 -50.9412 -50.9291 -50.7949
   -22.9472 -22.9471 -22.9459 -22.9411 -22.9316 -22.9315 -22.6299 -22.6104
   -22.5925 -22.5817 -22.5622 -22.5621 -22.5598 -22.5577 -22.5018 -22.5018
   -22.4365 -22.3848 -22.3703 -22.3392 -22.3186 -22.2820 -22.2745 -22.2745
   -22.2566 -22.2388 -22.2328 -22.2328 -22.2313 -22.2154 -22.2153 -22.2109
   -22.2109 -22.2066 -22.2065 -22.1471 -22.1452 -22.1451 -22.1300 -21.9260
   -21.9165 -21.9164 -21.9145 -21.9097 -21.8996 -21.8995 -21.8949 -21.8894
    12.8331  15.8734  16.0590  16.0590  16.1208  16.1209  16.1389  16.1579
    16.1664  16.1794  16.4647  16.4647  16.8709  16.8709  17.0713  17.9223
    18.0015  18.0498  18.0658  18.0813  18.0896  18.1469  18.1470  18.1979
    18.1980  18.2265  18.4409  18.4410  18.6136  18.6192  18.8680  18.8680
    19.4279  19.7008  19.7269  19.8402  19.8403  19.8714  19.9260  20.0597
    20.0598  20.0994  20.4414  20.4414  20.5896  20.5896  20.6296  20.7551
    20.9182  20.9182  21.0995  21.2263  21.2263  21.2369  21.3783  21.6943
    21.6943  21.8431  21.8497  21.8498  21.9555  21.9556  21.9654  21.9869
    21.9966  22.0001  22.0002  22.0299  22.3360  22.3660

          k = 0.0556 0.0556 0.2778 ( 11976 PWs)   bands (ev):

   -51.1913 -51.0766 -50.9966 -50.9965 -50.9738 -50.9736 -50.9626 -50.9625
   -50.9606 -50.9576 -50.9575 -50.9562 -50.9469 -50.9434 -50.8963 -50.8054
   -22.9132 -22.9125 -22.9124 -22.9094 -22.8870 -22.8869 -22.6593 -22.6486
   -22.6385 -22.6385 -22.6342 -22.5939 -22.5872 -22.5822 -22.5821 -22.5661
   -22.4052 -22.4009 -22.3796 -22.3722 -22.2881 -22.2705 -22.2704 -22.2629
   -22.2536 -22.2406 -22.2406 -22.2126 -22.2126 -22.2107 -22.2107 -22.1950
   -22.1797 -22.1445 -22.1444 -22.0875 -22.0866 -22.0864 -22.0720 -21.9744
   -21.9437 -21.9436 -21.9436 -21.9409 -21.9163 -21.9162 -21.9157 -21.9068
    13.1117  15.2478  16.1464  16.1464  16.2534  16.2534  16.3133  16.3424
    16.3645  16.3807  16.4999  16.4999  16.8707  16.8707  17.1090  17.5582
    17.7402  17.8160  17.9782  18.0316  18.0446  18.0569  18.2842  18.2842
    18.3684  18.3685  18.4744  18.4744  18.8229  18.8229  18.9200  18.9403
    19.4808  19.4809  19.6762  19.6781  19.6781  19.7014  19.7144  19.7969
    19.9842  20.2035  20.2733  20.2734  20.5234  20.5234  20.7619  20.7619
    20.7754  20.8101  20.8102  20.8142  20.8258  20.9743  21.1130  21.6425
    21.7094  21.7095  21.8432  21.8433  22.0142  22.0345  22.0660  22.0813
    22.0813  22.3106  22.3131  22.3349  22.3437  22.3757

          k = 0.0556 0.0556 0.3889 ( 11969 PWs)   bands (ev):

   -51.1700 -51.1115 -50.9918 -50.9916 -50.9798 -50.9797 -50.9610 -50.9608
   -50.9581 -50.9580 -50.9574 -50.9532 -50.9501 -50.9464 -50.8669 -50.8211
   -22.8653 -22.8632 -22.8605 -22.8604 -22.8257 -22.8256 -22.7352 -22.7308
   -22.7187 -22.7186 -22.6682 -22.6681 -22.6351 -22.6176 -22.5533 -22.5310
   -22.4586 -22.4364 -22.3699 -22.3470 -22.2951 -22.2827 -22.2645 -22.2645
   -22.2489 -22.2489 -22.2110 -22.2110 -22.2103 -22.2103 -22.2020 -22.1151
   -22.1063 -22.0832 -22.0831 -22.0395 -22.0332 -22.0306 -22.0304 -22.0192
   -21.9862 -21.9860 -21.9811 -21.9811 -21.9462 -21.9440 -21.9439 -21.9351
    13.5151  14.6149  16.2671  16.2671  16.4267  16.4267  16.4807  16.4807
    16.5306  16.5586  16.6795  16.6905  16.7822  16.7822  16.9959  17.1593
    17.4310  17.4505  17.9528  17.9798  17.9928  18.0042  18.4915  18.4916
    18.6069  18.6070  18.6795  18.6796  18.9197  18.9197  19.1588  19.1589
    19.2983  19.2983  19.3063  19.3264  19.6548  19.6548  19.6650  19.7050
    19.7156  19.7212  19.8713  19.8713  20.1361  20.2643  20.2724  20.5547
    20.5836  21.0603  21.0604  21.0989  21.0990  21.3538  21.3704  21.5214
    21.5252  21.5253  21.6598  21.6598  22.0809  22.0944  22.1782  22.2382
    22.2425  22.2480  22.3539  22.3767  22.3843  22.3949

          k = 0.0556 0.0556-0.5000 ( 11990 PWs)   bands (ev):

   -51.1432 -51.1429 -50.9862 -50.9859 -50.9858 -50.9858 -50.9595 -50.9593
   -50.9592 -50.9592 -50.9540 -50.9535 -50.9498 -50.9498 -50.8418 -50.8416
   -22.8045 -22.8042 -22.8040 -22.8037 -22.7945 -22.7945 -22.7945 -22.7944
   -22.7513 -22.7513 -22.7513 -22.7512 -22.6308 -22.6306 -22.5102 -22.5100
   -22.4875 -22.4873 -22.3324 -22.3321 -22.3155 -22.3153 -22.2573 -22.2572
   -22.2570 -22.2570 -22.2105 -22.2105 -22.2103 -22.2102 -22.1170 -22.1168
   -22.0449 -22.0447 -22.0410 -22.0408 -22.0282 -22.0281 -22.0280 -22.0280
   -21.9859 -21.9856 -21.9824 -21.9824 -21.9823 -21.9823 -21.9731 -21.9729
    14.0250  14.0250  16.3923  16.3923  16.3923  16.3923  16.6167  16.6167
    16.6167  16.6167  16.7926  16.7927  16.8143  16.8145  17.0545  17.0547
    17.0562  17.0563  17.9619  17.9621  17.9753  17.9755  18.7555  18.7556
    18.7556  18.7556  18.8756  18.8757  18.8757  18.8757  19.1494  19.1495
    19.1495  19.1495  19.3480  19.3481  19.3481  19.3481  19.6748  19.6749
    19.7066  19.7069  19.7602  19.7603  19.7718  19.7720  20.3270  20.3272
    20.9922  20.9923  21.3051  21.3052  21.3052  21.3052  21.4070  21.4070
    21.4070  21.4071  21.8033  21.8035  21.9634  21.9637  22.1583  22.1586
    22.1664  22.1667  22.3182  22.3184  22.3654  22.3656

          k = 0.0556 0.1667 0.1667 ( 11981 PWs)   bands (ev):

   -51.1986 -51.0367 -51.0365 -50.9982 -50.9790 -50.9671 -50.9669 -50.9631
   -50.9571 -50.9570 -50.9500 -50.9462 -50.9421 -50.9296 -50.9294 -50.8000
   -22.9424 -22.9312 -22.9311 -22.9172 -22.9172 -22.8962 -22.6434 -22.6249
   -22.6091 -22.6090 -22.6038 -22.5969 -22.5872 -22.5642 -22.5400 -22.4559
   -22.4291 -22.4290 -22.3639 -22.3377 -22.3376 -22.2866 -22.2686 -22.2686
   -22.2508 -22.2476 -22.2476 -22.2449 -22.2271 -22.2271 -22.2200 -22.2032
   -22.2000 -22.1654 -22.1492 -22.1491 -22.1092 -22.0862 -22.0861 -21.9650
   -21.9437 -21.9279 -21.9279 -21.9141 -21.9141 -21.9038 -21.8937 -21.8851
    12.9728  15.9303  15.9303  16.0438  16.1772  16.1772  16.2326  16.2355
    16.2355  16.2427  16.2622  16.5139  16.9157  17.1039  17.1039  17.7938
    17.9352  18.0068  18.0069  18.1235  18.1235  18.1575  18.1691  18.1692
    18.1737  18.3156  18.3262  18.3793  18.6100  18.6369  18.7525  19.2364
    19.2364  19.6216  19.6745  19.6747  19.7049  19.7358  19.9070  19.9995
    20.3307  20.3308  20.3942  20.3944  20.4362  20.5376  20.6712  20.7426
    20.7426  20.8094  20.8095  20.9558  20.9558  21.0885  21.3914  21.3915
    21.7007  21.8264  21.8790  21.8791  21.9201  21.9568  21.9584  21.9584
    21.9742  22.1824  22.2938  22.3020  22.3021  22.3445

          k = 0.0556 0.1667 0.2778 ( 11967 PWs)   bands (ev):

   -51.1843 -51.0726 -51.0310 -50.9948 -50.9904 -50.9722 -50.9644 -50.9618
   -50.9565 -50.9550 -50.9490 -50.9438 -50.9433 -50.9304 -50.8977 -50.8101
   -22.9181 -22.8998 -22.8983 -22.8889 -22.8754 -22.8422 -22.6800 -22.6798
   -22.6572 -22.6549 -22.6548 -22.6417 -22.6027 -22.5816 -22.5290 -22.5125
   -22.4327 -22.3985 -22.3547 -22.3477 -22.3301 -22.3291 -22.2904 -22.2749
   -22.2694 -22.2577 -22.2488 -22.2249 -22.2246 -22.2047 -22.1863 -22.1745
   -22.1527 -22.1423 -22.1144 -22.0910 -22.0636 -22.0326 -22.0317 -22.0222
   -21.9805 -21.9508 -21.9498 -21.9427 -21.9273 -21.9238 -21.8988 -21.8919
    13.2466  15.3274  16.0174  16.0641  16.2646  16.3666  16.3836  16.3903
    16.4041  16.4268  16.4545  16.5715  16.9450  17.0938  17.1525  17.5941
    17.6556  17.7723  18.0666  18.0831  18.1057  18.1205  18.1896  18.2500
    18.2761  18.3227  18.3641  18.5282  18.6636  18.8051  18.8654  19.1045
    19.3497  19.4648  19.4860  19.5471  19.5697  19.6274  19.6786  19.8860
    19.9327  20.1592  20.1623  20.3444  20.4201  20.5116  20.5156  20.5199
    20.6536  20.7675  20.7974  20.8652  20.9009  21.0992  21.1016  21.5288
    21.6739  21.7426  21.7800  21.8467  21.8909  21.9371  21.9913  22.0163
    22.2229  22.2865  22.2902  22.3232  22.3742  22.3804

          k = 0.0556 0.1667 0.3889 ( 11978 PWs)   bands (ev):

   -51.1636 -51.1066 -51.0229 -51.0020 -50.9900 -50.9782 -50.9609 -50.9601
   -50.9571 -50.9528 -50.9522 -50.9463 -50.9382 -50.9320 -50.8694 -50.8252
   -22.8762 -22.8541 -22.8499 -22.8482 -22.8184 -22.7726 -22.7526 -22.7398
   -22.7282 -22.7223 -22.6760 -22.6663 -22.6610 -22.6026 -22.5484 -22.4877
   -22.4552 -22.3954 -22.3869 -22.3352 -22.3184 -22.3116 -22.2874 -22.2869
   -22.2770 -22.2686 -22.2615 -22.2255 -22.2245 -22.1748 -22.1581 -22.1399
   -22.1033 -22.0934 -22.0829 -22.0641 -22.0382 -22.0261 -22.0190 -21.9849
   -21.9848 -21.9837 -21.9832 -21.9802 -21.9534 -21.9494 -21.9156 -21.9116
    13.6421  14.7146  16.0909  16.0987  16.3836  16.5382  16.5761  16.5830
    16.5865  16.6493  16.7201  16.7558  16.8806  16.9784  17.0448  17.2220
    17.4282  17.4723  17.9996  18.0373  18.0647  18.0684  18.3760  18.4320
    18.4495  18.4992  18.5199  18.6782  18.7938  18.9589  19.1441  19.2035
    19.2163  19.2561  19.3329  19.3347  19.4850  19.4950  19.5260  19.5854
    19.6014  19.6492  19.7581  19.9229  20.0164  20.0287  20.3545  20.7843
    20.8267  21.0269  21.0284  21.1060  21.1110  21.1359  21.3507  21.4241
    21.4627  21.5624  21.6616  21.7210  21.8883  22.0180  22.0527  22.1310
    22.1783  22.2045  22.2139  22.3035  22.3698  22.3733

          k = 0.0556 0.1667-0.5000 ( 11984 PWs)   bands (ev):

   -51.1374 -51.1372 -51.0132 -51.0129 -50.9844 -50.9841 -50.9586 -50.9583
   -50.9570 -50.9567 -50.9493 -50.9492 -50.9346 -50.9344 -50.8452 -50.8450
   -22.8198 -22.8198 -22.7975 -22.7973 -22.7962 -22.7959 -22.7896 -22.7895
   -22.7503 -22.7502 -22.6914 -22.6914 -22.6684 -22.6683 -22.5059 -22.5056
   -22.4402 -22.4401 -22.3534 -22.3532 -22.3077 -22.3075 -22.3041 -22.3039
   -22.2790 -22.2788 -22.2251 -22.2249 -22.1748 -22.1747 -22.1655 -22.1653
   -22.0798 -22.0797 -22.0391 -22.0388 -22.0297 -22.0295 -22.0188 -22.0188
   -21.9919 -21.9916 -21.9803 -21.9803 -21.9442 -21.9442 -21.9426 -21.9425
    14.1405  14.1405  16.1172  16.1172  16.5026  16.5026  16.7250  16.7250
    16.7905  16.7905  16.8309  16.8310  16.9091  16.9092  17.0928  17.0930
    17.1014  17.1015  18.0021  18.0024  18.0371  18.0372  18.6238  18.6239
    18.6521  18.6522  18.6849  18.6849  18.7859  18.7860  19.1572  19.1572
    19.2361  19.2361  19.3271  19.3271  19.4619  19.4619  19.4726  19.4727
    19.5608  19.5609  19.5967  19.5968  19.6206  19.6208  20.5758  20.5759
    21.1148  21.1149  21.1798  21.1798  21.3462  21.3463  21.4103  21.4103
    21.4466  21.4467  21.4630  21.4630  21.8736  21.8738  22.1109  22.1111
    22.1308  22.1310  22.2758  22.2760  22.3677  22.3678

          k = 0.0556 0.2778 0.2778 ( 11991 PWs)   bands (ev):

   -51.1707 -51.0649 -51.0648 -51.0076 -50.9914 -50.9696 -50.9694 -50.9604
   -50.9548 -50.9546 -50.9524 -50.9450 -50.9309 -50.9008 -50.9007 -50.8195
   -22.9045 -22.8712 -22.8711 -22.8531 -22.8530 -22.7802 -22.7094 -22.7058
   -22.7056 -22.6869 -22.6852 -22.6825 -22.6414 -22.5610 -22.4847 -22.4342
   -22.4321 -22.4320 -22.3877 -22.3876 -22.3453 -22.3085 -22.2979 -22.2891
   -22.2890 -22.2654 -22.2653 -22.2475 -22.2474 -22.2385 -22.1625 -22.1282
   -22.0983 -22.0982 -22.0980 -22.0892 -22.0758 -22.0329 -22.0254 -21.9846
   -21.9844 -21.9634 -21.9634 -21.9493 -21.9493 -21.9423 -21.8924 -21.8860
    13.5100  15.4682  15.4682  15.9921  16.4905  16.4905  16.5076  16.5535
    16.5810  16.5811  16.5983  16.6753  17.0385  17.1508  17.1508  17.5761
    17.6723  17.7476  17.7476  18.1364  18.1917  18.1917  18.2396  18.2463
    18.2464  18.2566  18.3426  18.5080  18.7481  18.7599  18.8433  19.2155
    19.2156  19.3541  19.3542  19.3766  19.4141  19.4255  19.4838  19.6294
    19.9383  19.9383  20.0264  20.0265  20.2075  20.2415  20.2416  20.3831
    20.8674  20.8675  20.9541  21.0100  21.0626  21.0627  21.3446  21.4763
    21.4764  21.6686  21.8105  21.8105  21.8593  21.8785  21.8786  21.9006
    21.9808  22.2254  22.2282  22.2294  22.3705  22.3814

          k = 0.0556 0.2778 0.3889 ( 11985 PWs)   bands (ev):

   -51.1510 -51.0970 -51.0539 -51.0245 -50.9867 -50.9752 -50.9657 -50.9586
   -50.9567 -50.9554 -50.9522 -50.9470 -50.9204 -50.9054 -50.8744 -50.8334
   -22.8732 -22.8323 -22.8301 -22.8219 -22.8051 -22.7699 -22.7457 -22.7326
   -22.7312 -22.7168 -22.7037 -22.7027 -22.6927 -22.5296 -22.5244 -22.4412
   -22.4354 -22.4101 -22.3710 -22.3450 -22.3298 -22.3292 -22.3250 -22.3246
   -22.3158 -22.3027 -22.2759 -22.2482 -22.2464 -22.1995 -22.1684 -22.1414
   -22.1091 -22.0777 -22.0750 -22.0543 -22.0489 -22.0388 -22.0036 -21.9853
   -21.9822 -21.9820 -21.9698 -21.9613 -21.9444 -21.9441 -21.8977 -21.8932
    13.8887  14.9012  15.6357  15.9080  16.6033  16.6788  16.7321  16.7370
    16.7467  16.8009  16.8354  16.8702  17.0432  17.0584  17.0587  17.4167
    17.4384  17.4744  18.0528  18.0904  18.1271  18.1560  18.1660  18.2860
    18.3331  18.3819  18.4534  18.4792  18.9296  18.9302  18.9321  19.0255
    19.0666  19.2082  19.2251  19.2986  19.3073  19.3206  19.4477  19.4779
    19.5431  19.5725  19.6418  19.6427  19.7907  19.8174  20.6028  20.6280
    21.0492  21.0613  21.1806  21.1908  21.2001  21.2113  21.2173  21.3178
    21.4518  21.5283  21.6412  21.6984  21.7377  21.8710  21.9078  21.9473
    22.0358  22.0557  22.1319  22.1403  22.2625  22.3739

          k = 0.0556 0.2778-0.5000 ( 11998 PWs)   bands (ev):

   -51.1262 -51.1260 -51.0403 -51.0400 -50.9813 -50.9810 -50.9614 -50.9611
   -50.9569 -50.9567 -50.9496 -50.9495 -50.9120 -50.9118 -50.8519 -50.8517
   -22.8273 -22.8272 -22.7849 -22.7847 -22.7845 -22.7843 -22.7815 -22.7814
   -22.7497 -22.7496 -22.7152 -22.7152 -22.6170 -22.6170 -22.4892 -22.4890
   -22.3818 -22.3818 -22.3720 -22.3719 -22.3499 -22.3496 -22.3129 -22.3127
   -22.3054 -22.3052 -22.2555 -22.2554 -22.2488 -22.2486 -22.1362 -22.1362
   -22.1237 -22.1235 -22.0249 -22.0247 -22.0159 -22.0157 -22.0072 -22.0072
   -22.0057 -22.0055 -21.9794 -21.9794 -21.9151 -21.9151 -21.9131 -21.9130
    14.3620  14.3620  15.7904  15.7904  16.7041  16.7041  16.8776  16.8777
    16.9083  16.9083  16.9215  16.9215  17.1131  17.1132  17.1539  17.1540
    17.1839  17.1840  18.0818  18.0820  18.1198  18.1200  18.4087  18.4088
    18.4405  18.4405  18.4638  18.4639  18.6793  18.6793  19.2286  19.2287
    19.2329  19.2330  19.2365  19.2365  19.2585  19.2586  19.3196  19.3197
    19.4174  19.4174  19.4690  19.4691  19.5142  19.5144  20.8934  20.8935
    21.0110  21.0111  21.0894  21.0895  21.3046  21.3047  21.4382  21.4382
    21.4635  21.4636  21.5116  21.5117  21.6545  21.6547  22.0204  22.0206
    22.0403  22.0405  22.1986  22.1988  22.2463  22.2463

          k = 0.0556 0.3889 0.3889 ( 12008 PWs)   bands (ev):

   -51.1329 -51.0833 -51.0832 -51.0461 -50.9822 -50.9712 -50.9711 -50.9614
   -50.9568 -50.9532 -50.9531 -50.9486 -50.9049 -50.8820 -50.8819 -50.8457
   -22.8531 -22.8034 -22.8034 -22.7881 -22.7881 -22.7714 -22.7712 -22.7558
   -22.7484 -22.7482 -22.7349 -22.7185 -22.6221 -22.5007 -22.4376 -22.4375
   -22.4199 -22.4198 -22.4048 -22.3789 -22.3606 -22.3428 -22.3427 -22.3381
   -22.3204 -22.2764 -22.2762 -22.2637 -22.2600 -22.2599 -22.2544 -22.1347
   -22.1115 -22.0650 -22.0648 -22.0407 -22.0267 -22.0161 -21.9944 -21.9907
   -21.9894 -21.9893 -21.9810 -21.9810 -21.9143 -21.9141 -21.8907 -21.8875
    14.2393  15.1486  15.1487  15.6819  16.8002  16.8635  16.8920  16.8952
    16.8952  17.0169  17.0169  17.0303  17.0304  17.0936  17.1735  17.4047
    17.4170  17.7237  17.7238  18.1397  18.1688  18.1708  18.2278  18.2278
    18.2430  18.2430  18.3146  18.5204  18.5772  18.8519  18.9518  18.9519
    18.9649  19.1188  19.1460  19.1970  19.2693  19.2694  19.2918  19.2919
    19.3765  19.3812  19.3812  19.4944  19.5799  20.1655  20.1657  20.9232
    20.9993  21.0943  21.1734  21.1735  21.3424  21.3425  21.3730  21.3859
    21.5535  21.5536  21.5809  21.7119  21.7198  21.7570  21.7570  21.7844
    21.7844  22.0210  22.0231  22.0301  22.1514  22.2768

          k = 0.0556 0.3889-0.5000 ( 11996 PWs)   bands (ev):

   -51.1101 -51.1098 -51.0661 -51.0659 -50.9770 -50.9767 -50.9665 -50.9662
   -50.9549 -50.9547 -50.9509 -50.9507 -50.8922 -50.8920 -50.8620 -50.8618
   -22.8180 -22.8179 -22.7741 -22.7739 -22.7735 -22.7734 -22.7706 -22.7705
   -22.7587 -22.7587 -22.7519 -22.7519 -22.5316 -22.5316 -22.4638 -22.4636
   -22.3928 -22.3925 -22.3799 -22.3798 -22.3470 -22.3469 -22.3461 -22.3461
   -22.3200 -22.3200 -22.3021 -22.3020 -22.2733 -22.2732 -22.1961 -22.1961
   -22.0859 -22.0857 -22.0264 -22.0262 -22.0080 -22.0079 -22.0044 -22.0043
   -21.9994 -21.9994 -21.9833 -21.9832 -21.8962 -21.8962 -21.8947 -21.8947
    14.6701  14.6701  15.4212  15.4212  16.9292  16.9293  16.9484  16.9484
    16.9651  16.9651  17.1507  17.1508  17.1964  17.1965  17.2754  17.2755
    17.3982  17.3983  18.1034  18.1035  18.1566  18.1567  18.1613  18.1614
    18.2130  18.2131  18.2782  18.2783  18.7375  18.7376  19.0050  19.0051
    19.0247  19.0248  19.0803  19.0804  19.0906  19.0907  19.1398  19.1399
    19.4238  19.4239  19.4308  19.4310  19.7502  19.7503  20.5636  20.5636
    21.0886  21.0887  21.2314  21.2315  21.4054  21.4056  21.4975  21.4976
    21.5764  21.5765  21.5815  21.5816  21.5827  21.5828  21.8916  21.8918
    21.9034  21.9036  21.9258  21.9258  22.1102  22.1104

          k = 0.0556-0.5000-0.5000 ( 11996 PWs)   bands (ev):

   -51.0899 -51.0895 -51.0895 -51.0894 -50.9721 -50.9717 -50.9717 -50.9715
   -50.9529 -50.9526 -50.9526 -50.9525 -50.8757 -50.8753 -50.8753 -50.8752
   -22.7941 -22.7941 -22.7940 -22.7940 -22.7701 -22.7700 -22.7700 -22.7698
   -22.7589 -22.7588 -22.7588 -22.7587 -22.4398 -22.4398 -22.4397 -22.4397
   -22.4314 -22.4310 -22.4310 -22.4309 -22.3715 -22.3715 -22.3713 -22.3713
   -22.2922 -22.2922 -22.2920 -22.2920 -22.2577 -22.2577 -22.2576 -22.2576
   -22.0535 -22.0531 -22.0531 -22.0530 -21.9985 -21.9984 -21.9984 -21.9983
   -21.9932 -21.9931 -21.9931 -21.9930 -21.8892 -21.8892 -21.8891 -21.8891
    15.0354  15.0354  15.0354  15.0354  16.9660  16.9662  16.9662  16.9662
    17.1411  17.1411  17.1412  17.1412  17.2950  17.2950  17.2950  17.2950
    17.7382  17.7384  17.7384  17.7384  18.1407  18.1407  18.1407  18.1408
    18.1931  18.1931  18.1931  18.1932  18.8550  18.8550  18.8551  18.8551
    18.9576  18.9578  18.9578  18.9579  19.0494  19.0496  19.0496  19.0496
    19.3993  19.3995  19.3995  19.3996  20.1368  20.1368  20.1369  20.1369
    21.1999  21.2002  21.2002  21.2002  21.5681  21.5681  21.5682  21.5683
    21.6194  21.6195  21.6195  21.6195  21.7367  21.7369  21.7369  21.7370
    21.7412  21.7413  21.7413  21.7414  22.0791  22.0792

          k = 0.1667 0.1667 0.1667 ( 12005 PWs)   bands (ev):

   -51.1915 -51.0339 -51.0337 -51.0337 -50.9775 -50.9772 -50.9772 -50.9496
   -50.9491 -50.9491 -50.9491 -50.9413 -50.9300 -50.9298 -50.9298 -50.8049
   -22.9261 -22.9261 -22.9260 -22.8844 -22.8843 -22.8843 -22.6626 -22.6399
   -22.6397 -22.6397 -22.6312 -22.6312 -22.5468 -22.5468 -22.5284 -22.4703
   -22.4703 -22.4702 -22.3528 -22.3528 -22.3527 -22.2739 -22.2739 -22.2693
   -22.2692 -22.2692 -22.2233 -22.2233 -22.2233 -22.2097 -22.2096 -22.2096
   -22.1552 -22.1552 -22.1551 -22.1545 -22.0565 -22.0563 -22.0563 -22.0044
   -21.9500 -21.9499 -21.9499 -21.9091 -21.9091 -21.9090 -21.8959 -21.8959
    13.1107  15.9956  15.9956  15.9956  16.1656  16.1656  16.1656  16.3311
    16.3311  16.3444  16.3444  16.3444  17.1595  17.1595  17.1595  17.6847
    17.9846  17.9846  17.9846  18.0550  18.0550  18.1503  18.1503  18.1504
    18.2852  18.2853  18.2853  18.5100  18.5303  18.5303  19.0611  19.0611
    19.0612  19.5828  19.5830  19.5830  19.6026  19.6026  20.0987  20.0987
    20.0988  20.1428  20.3189  20.3189  20.3190  20.5332  20.5332  20.5333
    20.7699  20.7699  20.7699  20.9065  20.9065  20.9065  21.6435  21.6435
    21.6436  21.7492  21.7492  21.7493  21.8740  21.8740  21.9617  21.9617
    21.9617  22.2985  22.2986  22.2986  22.3479  22.3513

          k = 0.1667 0.1667 0.2778 ( 11953 PWs)   bands (ev):

   -51.1775 -51.0687 -51.0283 -51.0281 -50.9886 -50.9884 -50.9741 -50.9540
   -50.9477 -50.9429 -50.9427 -50.9413 -50.9307 -50.9306 -50.8991 -50.8146
   -22.9026 -22.9025 -22.8938 -22.8612 -22.8339 -22.8339 -22.7030 -22.6915
   -22.6914 -22.6676 -22.6549 -22.6338 -22.6073 -22.5369 -22.5369 -22.5014
   -22.4867 -22.4162 -22.3907 -22.3558 -22.3557 -22.3033 -22.2918 -22.2917
   -22.2870 -22.2810 -22.2268 -22.1946 -22.1946 -22.1884 -22.1683 -22.1683
   -22.1607 -22.1607 -22.1048 -22.0940 -22.0638 -22.0171 -22.0169 -22.0085
   -21.9803 -21.9803 -21.9640 -21.9390 -21.9171 -21.9128 -21.9127 -21.8969
    13.3802  15.4125  16.0988  16.0988  16.1883  16.1883  16.4002  16.4676
    16.4963  16.5005  16.5005  16.5566  17.1858  17.1858  17.2267  17.5856
    17.5990  17.9046  18.0034  18.0364  18.0365  18.1093  18.2170  18.2472
    18.2472  18.3360  18.4630  18.4630  18.6204  18.7983  18.9040  18.9040
    19.2698  19.3609  19.3611  19.4661  19.5001  19.5677  19.7793  19.7793
    19.8112  19.8113  20.0945  20.2721  20.2722  20.3016  20.3332  20.3398
    20.6734  20.8224  20.8224  21.0175  21.0176  21.2221  21.3546  21.5946
    21.5946  21.7135  21.8371  21.8825  21.8825  21.9241  21.9641  21.9887
    21.9905  21.9906  22.2793  22.2851  22.3071  22.3437

          k = 0.1667 0.1667 0.3889 ( 11970 PWs)   bands (ev):

   -51.1573 -51.1018 -51.0204 -51.0202 -50.9999 -50.9997 -50.9698 -50.9592
   -50.9459 -50.9423 -50.9380 -50.9379 -50.9321 -50.9320 -50.8718 -50.8292
   -22.8632 -22.8631 -22.8467 -22.8287 -22.7694 -22.7694 -22.7519 -22.7518
   -22.7461 -22.7146 -22.6813 -22.6726 -22.6150 -22.6150 -22.5726 -22.4754
   -22.4515 -22.4411 -22.3483 -22.3480 -22.3479 -22.3374 -22.3136 -22.3136
   -22.3054 -22.2840 -22.2483 -22.1827 -22.1827 -22.1666 -22.1665 -22.1369
   -22.1135 -22.1135 -22.1100 -22.0584 -22.0380 -22.0180 -22.0180 -21.9866
   -21.9837 -21.9797 -21.9795 -21.9669 -21.9485 -21.9260 -21.9259 -21.9096
    13.7689  14.8175  16.1918  16.1918  16.2222  16.2222  16.6686  16.6931
    16.6932  16.7139  16.7290  16.8438  17.0881  17.0881  17.1372  17.2426
    17.4276  17.5377  17.9947  18.0609  18.1462  18.1645  18.2679  18.2680
    18.4061  18.4061  18.6651  18.6651  18.7884  18.7884  18.9381  19.1106
    19.2104  19.2105  19.3206  19.3206  19.3903  19.4001  19.4243  19.4449
    19.4449  19.5213  19.7434  19.7435  19.7913  19.8085  20.5527  20.6550
    20.9223  21.0684  21.1400  21.1400  21.1513  21.1514  21.4336  21.4336
    21.4752  21.4861  21.6003  21.7112  21.7113  21.9493  22.0474  22.0883
    22.1838  22.2070  22.3077  22.3077  22.3178  22.3376

          k = 0.1667 0.1667-0.5000 ( 11958 PWs)   bands (ev):

   -51.1318 -51.1316 -51.0109 -51.0106 -51.0105 -51.0105 -50.9648 -50.9645
   -50.9440 -50.9438 -50.9347 -50.9344 -50.9343 -50.9343 -50.8484 -50.8482
   -22.8113 -22.8113 -22.8113 -22.8112 -22.7892 -22.7890 -22.7864 -22.7862
   -22.6947 -22.6947 -22.6946 -22.6946 -22.6822 -22.6821 -22.5282 -22.5279
   -22.3992 -22.3990 -22.3911 -22.3910 -22.3331 -22.3330 -22.3328 -22.3328
   -22.2694 -22.2692 -22.2191 -22.2191 -22.1738 -22.1738 -22.1736 -22.1735
   -22.0627 -22.0627 -22.0626 -22.0626 -22.0411 -22.0409 -22.0184 -22.0183
   -21.9893 -21.9891 -21.9486 -21.9485 -21.9484 -21.9484 -21.9335 -21.9335
    14.2573  14.2573  16.2336  16.2336  16.2336  16.2336  16.9017  16.9017
    16.9017  16.9018  16.9292  16.9293  16.9452  16.9453  17.1226  17.1227
    17.1599  17.1600  18.0180  18.0182  18.1100  18.1102  18.6067  18.6068
    18.6068  18.6068  18.6104  18.6105  18.6106  18.6106  19.1743  19.1743
    19.1744  19.1744  19.3447  19.3448  19.3488  19.3489  19.3489  19.3490
    19.3878  19.3878  19.4506  19.4506  19.4648  19.4650  20.7987  20.7988
    21.0413  21.0414  21.2112  21.2114  21.2794  21.2794  21.2794  21.2795
    21.4592  21.4592  21.4592  21.4593  22.0205  22.0208  22.0697  22.0699
    22.1239  22.1241  22.2385  22.2388  22.3285  22.3286

          k = 0.1667 0.2778 0.2778 ( 11979 PWs)   bands (ev):

   -51.1642 -51.0612 -51.0611 -51.0228 -51.0052 -50.9849 -50.9847 -50.9601
   -50.9420 -50.9418 -50.9398 -50.9313 -50.9308 -50.9021 -50.9019 -50.8236
   -22.8886 -22.8721 -22.8721 -22.8184 -22.8184 -22.7761 -22.7254 -22.7162
   -22.7124 -22.7123 -22.6697 -22.6508 -22.6024 -22.5814 -22.5219 -22.4600
   -22.4599 -22.4386 -22.4189 -22.4188 -22.3778 -22.3319 -22.3318 -22.3256
   -22.2586 -22.2238 -22.2238 -22.2096 -22.2096 -22.1704 -22.1677 -22.1554
   -22.1276 -22.1228 -22.1007 -22.1006 -22.0680 -22.0177 -21.9953 -21.9830
   -21.9830 -21.9765 -21.9764 -21.9405 -21.9404 -21.9304 -21.9070 -21.8975
    13.6408  15.5639  15.5640  16.1211  16.2346  16.4276  16.4276  16.6002
    16.6570  16.6634  16.7081  16.7081  17.2637  17.2637  17.3028  17.5424
    17.7120  17.7120  17.8378  17.9769  18.0778  18.1963  18.1964  18.3131
    18.3557  18.3558  18.3841  18.4834  18.6632  18.7183  18.7658  19.0655
    19.0656  19.2418  19.2810  19.2811  19.3766  19.3821  19.4900  19.5520
    19.6624  19.6624  19.8808  19.8808  19.9554  19.9701  19.9701  20.5657
    20.9460  20.9461  20.9983  21.1677  21.2562  21.2563  21.4448  21.4727
    21.7114  21.7114  21.7162  21.7163  21.7220  21.8611  21.9088  21.9089
    21.9270  22.2328  22.2369  22.2392  22.2493  22.3239

          k = 0.1667 0.2778 0.3889 ( 11972 PWs)   bands (ev):

   -51.1450 -51.0924 -51.0504 -51.0216 -51.0152 -50.9956 -50.9796 -50.9667
   -50.9408 -50.9394 -50.9375 -50.9324 -50.9207 -50.9064 -50.8765 -50.8370
   -22.8584 -22.8379 -22.8280 -22.7974 -22.7648 -22.7639 -22.7530 -22.7486
   -22.7181 -22.7096 -22.7052 -22.6932 -22.6390 -22.5722 -22.5410 -22.4879
   -22.4774 -22.4072 -22.3878 -22.3847 -22.3824 -22.3758 -22.3575 -22.3574
   -22.2794 -22.2526 -22.2271 -22.2044 -22.1968 -22.1789 -22.1661 -22.1448
   -22.1112 -22.0935 -22.0790 -22.0616 -22.0460 -22.0354 -22.0085 -21.9922
   -21.9810 -21.9743 -21.9593 -21.9466 -21.9465 -21.9429 -21.9109 -21.9025
    14.0149  15.0101  15.7455  16.0375  16.3711  16.4583  16.7626  16.7751
    16.8440  16.8856  16.8990  16.9834  17.1760  17.1773  17.2791  17.4149
    17.4644  17.5610  18.0066  18.0622  18.1007  18.1363  18.2453  18.2488
    18.3314  18.4431  18.4752  18.5957  18.6789  18.8166  18.8477  18.9479
    19.0091  19.1076  19.1423  19.1981  19.2588  19.2668  19.2845  19.3117
    19.4208  19.4427  19.4477  19.4502  19.5773  19.6019  20.2390  20.8277
    21.0175  21.1426  21.2457  21.2482  21.2502  21.3098  21.3274  21.4153
    21.5746  21.5772  21.5820  21.7422  21.7428  21.8561  21.9731  22.0199
    22.0908  22.1382  22.1546  22.2510  22.3201  22.3210

          k = 0.1667 0.2778-0.5000 ( 11982 PWs)   bands (ev):

   -51.1209 -51.1206 -51.0371 -51.0368 -51.0061 -51.0058 -50.9736 -50.9733
   -50.9400 -50.9398 -50.9345 -50.9343 -50.9127 -50.9125 -50.8549 -50.8546
   -22.8158 -22.8158 -22.7961 -22.7961 -22.7733 -22.7731 -22.7727 -22.7725
   -22.7109 -22.7108 -22.7021 -22.7020 -22.6251 -22.6250 -22.5294 -22.5292
   -22.4370 -22.4369 -22.3858 -22.3856 -22.3766 -22.3765 -22.3345 -22.3344
   -22.2890 -22.2890 -22.2429 -22.2427 -22.1871 -22.1869 -22.1261 -22.1259
   -22.1114 -22.1114 -22.0406 -22.0405 -22.0329 -22.0327 -22.0096 -22.0094
   -21.9985 -21.9982 -21.9578 -21.9578 -21.9242 -21.9242 -21.9178 -21.9178
    14.4811  14.4811  15.9131  15.9131  16.4506  16.4506  16.9829  16.9830
    17.0238  17.0238  17.1068  17.1068  17.1443  17.1444  17.1602  17.1603
    17.2674  17.2675  18.0839  18.0841  18.1864  18.1865  18.3732  18.3733
    18.4106  18.4107  18.4811  18.4811  18.6277  18.6277  19.0332  19.0333
    19.1394  19.1395  19.1482  19.1483  19.1882  19.1882  19.1998  19.1998
    19.2596  19.2596  19.3001  19.3002  19.3484  19.3485  20.5952  20.5953
    21.1110  21.1110  21.2619  21.2620  21.3724  21.3725  21.4436  21.4436
    21.5128  21.5129  21.5235  21.5236  21.9499  21.9501  22.0050  22.0052
    22.0601  22.0604  22.1705  22.1707  22.2954  22.2955

          k = 0.1667 0.3889 0.3889 ( 11988 PWs)   bands (ev):

   -51.1273 -51.0790 -51.0789 -51.0427 -51.0081 -50.9898 -50.9896 -50.9747
   -50.9378 -50.9372 -50.9371 -50.9332 -50.9058 -50.8838 -50.8837 -50.8488
   -22.8379 -22.8031 -22.8030 -22.7624 -22.7622 -22.7609 -22.7578 -22.7577
   -22.7501 -22.7267 -22.7214 -22.6733 -22.6288 -22.5484 -22.4884 -22.4620
   -22.4619 -22.4584 -22.4583 -22.4119 -22.4086 -22.4085 -22.3987 -22.3325
   -22.2848 -22.2380 -22.2209 -22.2208 -22.2126 -22.2125 -22.1910 -22.1116
   -22.1106 -22.0616 -22.0614 -22.0570 -22.0473 -22.0171 -22.0035 -22.0035
   -21.9840 -21.9767 -21.9767 -21.9717 -21.9217 -21.9215 -21.9049 -21.8997
    14.3641  15.2660  15.2660  15.8125  16.5764  16.7819  16.7819  16.9020
    16.9781  17.1369  17.1475  17.1475  17.1640  17.1640  17.4339  17.4409
    17.4944  17.7244  17.7244  18.0077  18.1381  18.2251  18.2461  18.2461
    18.2905  18.2905  18.4476  18.5131  18.5410  18.5854  18.8923  18.9003
    18.9004  18.9662  19.0981  19.0982  19.1060  19.1408  19.1409  19.1610
    19.1642  19.2171  19.2172  19.3368  19.3736  19.8369  19.8370  20.5684
    21.1329  21.2892  21.3865  21.3866  21.4256  21.4525  21.4526  21.4801
    21.6304  21.7360  21.7481  21.7481  21.7939  21.7940  21.8247  21.8247
    21.9939  22.0492  22.0550  22.0620  22.1526  22.2659

          k = 0.1667 0.3889-0.5000 ( 11980 PWs)   bands (ev):

   -51.1051 -51.1049 -51.0623 -51.0620 -50.9995 -50.9992 -50.9827 -50.9824
   -50.9372 -50.9370 -50.9348 -50.9346 -50.8936 -50.8934 -50.8646 -50.8643
   -22.8043 -22.8043 -22.7784 -22.7783 -22.7629 -22.7627 -22.7529 -22.7528
   -22.7465 -22.7465 -22.7147 -22.7146 -22.5448 -22.5448 -22.5100 -22.5098
   -22.4566 -22.4565 -22.4345 -22.4343 -22.4201 -22.4200 -22.3714 -22.3714
   -22.2765 -22.2764 -22.2266 -22.2265 -22.2016 -22.2015 -22.1640 -22.1640
   -22.0837 -22.0835 -22.0219 -22.0218 -22.0188 -22.0186 -22.0149 -22.0147
   -22.0062 -22.0060 -21.9729 -21.9728 -21.9084 -21.9084 -21.9056 -21.9056
    14.7923  14.7923  15.5469  15.5469  16.7297  16.7297  17.0382  17.0383
    17.0816  17.0817  17.1430  17.1431  17.3534  17.3534  17.4045  17.4046
    17.4274  17.4275  18.1039  18.1041  18.1573  18.1574  18.1770  18.1771
    18.1859  18.1860  18.3515  18.3516  18.6957  18.6958  18.7795  18.7796
    18.9191  18.9192  18.9819  18.9819  18.9953  18.9953  19.0558  19.0558
    19.2409  19.2410  19.2655  19.2656  19.4737  19.4737  20.1645  20.1646
    21.3370  21.3371  21.4467  21.4468  21.5534  21.5534  21.6061  21.6062
    21.6256  21.6256  21.6309  21.6311  21.7384  21.7386  21.9139  21.9141
    21.9366  21.9368  22.0928  22.0930  22.1412  22.1412

          k = 0.1667-0.5000-0.5000 ( 12000 PWs)   bands (ev):

   -51.0855 -51.0851 -51.0851 -51.0850 -50.9917 -50.9913 -50.9913 -50.9912
   -50.9358 -50.9354 -50.9354 -50.9353 -50.8777 -50.8773 -50.8773 -50.8772
   -22.7800 -22.7800 -22.7798 -22.7798 -22.7650 -22.7648 -22.7648 -22.7647
   -22.7324 -22.7322 -22.7322 -22.7321 -22.4770 -22.4767 -22.4767 -22.4766
   -22.4586 -22.4586 -22.4586 -22.4585 -22.4502 -22.4502 -22.4500 -22.4500
   -22.2194 -22.2194 -22.2194 -22.2193 -22.2147 -22.2147 -22.2145 -22.2145
   -22.0478 -22.0475 -22.0475 -22.0474 -22.0101 -22.0100 -22.0100 -22.0099
   -21.9931 -21.9930 -21.9930 -21.9929 -21.9023 -21.9023 -21.9022 -21.9022
    15.1603  15.1604  15.1604  15.1604  16.9942  16.9942  16.9942  16.9942
    17.0795  17.0797  17.0797  17.0797  17.4884  17.4884  17.4884  17.4884
    17.7600  17.7602  17.7602  17.7602  18.0918  18.0919  18.0919  18.0920
    18.2563  18.2563  18.2563  18.2563  18.7506  18.7508  18.7508  18.7509
    18.8142  18.8142  18.8143  18.8144  18.9721  18.9723  18.9723  18.9723
    19.2247  19.2249  19.2249  19.2250  19.7823  19.7823  19.7823  19.7824
    21.5084  21.5086  21.5086  21.5086  21.6347  21.6349  21.6349  21.6349
    21.7832  21.7834  21.7834  21.7835  21.7882  21.7883  21.7883  21.7884
    21.8255  21.8255  21.8256  21.8256  22.0703  22.0705

          k = 0.2778 0.2778 0.2778 ( 11965 PWs)   bands (ev):

   -51.1516 -51.0541 -51.0538 -51.0538 -51.0008 -51.0005 -51.0005 -50.9687
   -50.9359 -50.9309 -50.9307 -50.9307 -50.9047 -50.9045 -50.9045 -50.8319
   -22.8574 -22.8574 -22.8573 -22.7690 -22.7690 -22.7690 -22.7356 -22.7294
   -22.7292 -22.7292 -22.6445 -22.6445 -22.6062 -22.6062 -22.5097 -22.5097
   -22.5096 -22.4448 -22.4448 -22.4447 -22.3863 -22.3733 -22.3732 -22.3732
   -22.1892 -22.1768 -22.1768 -22.1768 -22.1761 -22.1761 -22.1730 -22.1730
   -22.1730 -22.1061 -22.1061 -22.1060 -22.0415 -22.0088 -22.0088 -22.0088
   -21.9640 -21.9638 -21.9638 -21.9362 -21.9362 -21.9361 -21.9198 -21.9198
    13.8954  15.7369  15.7369  15.7369  16.3710  16.3710  16.3710  16.7727
    16.7727  16.8698  16.8698  16.8698  17.4318  17.4318  17.4318  17.5511
    17.6882  17.6882  17.6883  18.0620  18.0620  18.1022  18.2603  18.2603
    18.2604  18.5067  18.5067  18.5067  18.5617  18.5617  18.8870  18.8870
    18.8871  19.1280  19.1282  19.1282  19.2789  19.2789  19.2790  19.3219
    19.3219  19.5682  19.5682  19.5682  19.6383  19.6383  19.6384  20.8267
    21.0013  21.1242  21.1242  21.1243  21.4175  21.4175  21.4176  21.6129
    21.6129  21.6129  21.8224  21.8224  21.8968  21.8968  21.8969  22.0518
    22.0518  22.0519  22.2404  22.2405  22.2460  22.2481

          k = 0.2778 0.2778 0.3889 ( 11979 PWs)   bands (ev):

   -51.1334 -51.0835 -51.0437 -51.0435 -51.0163 -51.0162 -50.9942 -50.9776
   -50.9333 -50.9309 -50.9215 -50.9214 -50.9086 -50.9084 -50.8808 -50.8443
   -22.8297 -22.8297 -22.8118 -22.7604 -22.7580 -22.7579 -22.7436 -22.7263
   -22.7086 -22.7085 -22.6842 -22.6816 -22.6084 -22.5725 -22.5725 -22.5526
   -22.5067 -22.4511 -22.4511 -22.4314 -22.4297 -22.4099 -22.4098 -22.3329
   -22.2642 -22.2253 -22.1882 -22.1860 -22.1503 -22.1502 -22.1238 -22.1237
   -22.1154 -22.1154 -22.1008 -22.0473 -22.0408 -22.0408 -22.0211 -22.0048
   -21.9792 -21.9530 -21.9517 -21.9515 -21.9398 -21.9370 -21.9369 -21.9172
    14.2592  15.2150  15.9485  15.9486  16.2874  16.2874  16.7250  16.9412
    16.9973  17.0547  17.0548  17.1408  17.3969  17.4020  17.4021  17.4095
    17.5440  17.6275  17.9130  17.9131  18.0831  18.1953  18.3363  18.3450
    18.3779  18.3786  18.3786  18.6053  18.6054  18.7146  18.7146  18.7586
    18.9390  18.9390  19.0062  19.0063  19.0238  19.0743  19.1356  19.1453
    19.1812  19.2392  19.2421  19.2421  19.3216  19.3217  19.8241  20.5419
    21.1217  21.3005  21.3556  21.3557  21.4863  21.4864  21.5426  21.5426
    21.6736  21.7435  21.7632  21.7870  21.7870  21.8078  21.9585  21.9656
    22.1542  22.1571  22.2461  22.2461  22.2482  22.2533

          k = 0.2778 0.2778-0.5000 ( 11978 PWs)   bands (ev):

   -51.1105 -51.1102 -51.0311 -51.0308 -51.0307 -51.0307 -50.9864 -50.9862
   -50.9318 -50.9316 -50.9143 -50.9141 -50.9140 -50.9140 -50.8608 -50.8605
   -22.7942 -22.7942 -22.7942 -22.7941 -22.7536 -22.7533 -22.7517 -22.7516
   -22.7097 -22.7096 -22.6411 -22.6410 -22.6410 -22.6409 -22.5620 -22.5618
   -22.4931 -22.4930 -22.4378 -22.4376 -22.4376 -22.4375 -22.3464 -22.3464
   -22.2788 -22.2787 -22.1911 -22.1909 -22.1301 -22.1300 -22.1299 -22.1298
   -22.0794 -22.0793 -22.0792 -22.0792 -22.0347 -22.0344 -22.0085 -22.0084
   -21.9960 -21.9957 -21.9422 -21.9422 -21.9421 -21.9420 -21.9240 -21.9240
    14.7095  14.7095  16.1460  16.1460  16.1460  16.1460  17.1563  17.1564
    17.1564  17.1565  17.2278  17.2279  17.2427  17.2428  17.2428  17.2428
    17.4060  17.4060  18.1315  18.1317  18.2533  18.2535  18.2944  18.2946
    18.2946  18.2946  18.5384  18.5385  18.5386  18.5386  18.7394  18.7395
    18.9566  18.9566  19.0342  19.0343  19.0344  19.0344  19.0494  19.0495
    19.0495  19.0495  19.0936  19.0937  19.1394  19.1395  20.1353  20.1354
    21.4381  21.4381  21.4930  21.4931  21.5084  21.5084  21.5084  21.5084
    21.5903  21.5904  21.5905  21.5905  21.9964  21.9966  22.0556  22.0558
    22.1186  22.1188  22.1240  22.1242  22.2531  22.2532

          k = 0.2778 0.3889 0.3889 ( 11986 PWs)   bands (ev):

   -51.1165 -51.0707 -51.0706 -51.0362 -51.0340 -51.0086 -51.0085 -50.9886
   -50.9285 -50.9229 -50.9228 -50.9118 -50.9077 -50.8875 -50.8874 -50.8551
   -22.8081 -22.7886 -22.7886 -22.7564 -22.7476 -22.7475 -22.7340 -22.7146
   -22.7146 -22.6950 -22.6911 -22.6424 -22.6153 -22.6038 -22.5687 -22.5122
   -22.5121 -22.4969 -22.4968 -22.4828 -22.4700 -22.4699 -22.4566 -22.3376
   -22.2776 -22.1724 -22.1724 -22.1598 -22.1550 -22.1549 -22.1225 -22.1107
   -22.0840 -22.0792 -22.0733 -22.0581 -22.0580 -22.0239 -22.0239 -22.0136
   -21.9749 -21.9749 -21.9704 -21.9590 -21.9356 -21.9355 -21.9326 -21.9236
    14.6051  15.4882  15.4882  16.0647  16.2074  16.6381  16.6381  17.0925
    17.1967  17.2210  17.3317  17.3317  17.3723  17.3724  17.4506  17.6358
    17.6479  17.7192  17.7192  17.8348  18.1677  18.2918  18.2924  18.2998
    18.2999  18.3753  18.3753  18.4752  18.4963  18.5734  18.6639  18.8121
    18.8122  18.8248  18.8498  18.8499  18.8511  18.8741  18.8742  18.9782
    18.9782  19.0316  19.0561  19.0632  19.1243  19.4348  19.4348  20.0884
    21.4535  21.4934  21.4935  21.5217  21.5680  21.6613  21.7258  21.7446
    21.7447  21.7752  21.7753  21.7910  21.8705  21.8706  21.9394  22.0859
    22.1233  22.1234  22.1245  22.1526  22.2307  22.2423

          k = 0.2778 0.3889-0.5000 ( 11978 PWs)   bands (ev):

   -51.0955 -51.0952 -51.0548 -51.0545 -51.0222 -51.0220 -50.9993 -50.9990
   -50.9253 -50.9250 -50.9167 -50.9164 -50.8965 -50.8962 -50.8697 -50.8694
   -22.7781 -22.7781 -22.7669 -22.7668 -22.7386 -22.7383 -22.7242 -22.7242
   -22.7235 -22.7233 -22.6644 -22.6644 -22.5700 -22.5700 -22.5650 -22.5648
   -22.5280 -22.5279 -22.4931 -22.4929 -22.4897 -22.4896 -22.4170 -22.4170
   -22.2239 -22.2238 -22.1569 -22.1568 -22.1345 -22.1344 -22.1233 -22.1233
   -22.0796 -22.0794 -22.0503 -22.0502 -22.0227 -22.0225 -22.0146 -22.0145
   -22.0088 -22.0085 -21.9676 -21.9675 -21.9323 -21.9323 -21.9268 -21.9268
    15.0266  15.0266  15.7876  15.7876  16.4598  16.4598  17.0530  17.0531
    17.2434  17.2435  17.3054  17.3055  17.4838  17.4839  17.5321  17.5321
    17.5865  17.5866  18.0990  18.0991  18.1226  18.1227  18.2246  18.2248
    18.2255  18.2255  18.4345  18.4346  18.5329  18.5329  18.6207  18.6208
    18.7449  18.7449  18.7554  18.7555  18.8685  18.8685  18.9046  18.9047
    18.9648  18.9649  19.0326  19.0327  19.1028  19.1028  19.7020  19.7020
    21.6326  21.6327  21.6518  21.6519  21.6787  21.6789  21.7060  21.7061
    21.7436  21.7436  21.8075  21.8076  21.9769  21.9771  21.9817  21.9818
    22.0592  22.0594  22.0625  22.0627  22.1551  22.1552

          k = 0.2778-0.5000-0.5000 ( 11972 PWs)   bands (ev):

   -51.0768 -51.0764 -51.0764 -51.0763 -51.0116 -51.0112 -51.0112 -51.0111
   -50.9204 -50.9201 -50.9201 -50.9200 -50.8818 -50.8814 -50.8814 -50.8813
   -22.7519 -22.7519 -22.7518 -22.7518 -22.7434 -22.7432 -22.7432 -22.7431
   -22.6931 -22.6930 -22.6930 -22.6928 -22.5382 -22.5379 -22.5379 -22.5378
   -22.5258 -22.5258 -22.5256 -22.5256 -22.4933 -22.4933 -22.4933 -22.4932
   -22.1718 -22.1718 -22.1718 -22.1716 -22.1412 -22.1412 -22.1410 -22.1410
   -22.0383 -22.0379 -22.0379 -22.0378 -22.0284 -22.0284 -22.0284 -22.0283
   -21.9973 -21.9971 -21.9971 -21.9970 -21.9281 -21.9281 -21.9280 -21.9280
    15.4001  15.4002  15.4002  15.4002  16.7956  16.7956  16.7956  16.7956
    17.2964  17.2965  17.2965  17.2965  17.7306  17.7306  17.7307  17.7307
    17.8011  17.8012  17.8012  17.8013  18.0400  18.0401  18.0401  18.0401
    18.3347  18.3347  18.3348  18.3348  18.5470  18.5472  18.5472  18.5473
    18.7393  18.7393  18.7394  18.7394  18.7461  18.7462  18.7462  18.7462
    18.9697  18.9698  18.9698  18.9699  19.3397  19.3397  19.3397  19.3398
    21.7181  21.7184  21.7184  21.7184  21.8448  21.8451  21.8451  21.8452
    21.8581  21.8583  21.8583  21.8584  21.9101  21.9101  21.9101  21.9102
    22.0507  22.0510  22.0510  22.0511  22.1934  22.1934

          k = 0.3889 0.3889 0.3889 ( 11968 PWs)   bands (ev):

   -51.1010 -51.0589 -51.0587 -51.0587 -51.0271 -51.0269 -51.0269 -51.0024
   -50.9210 -50.9109 -50.9107 -50.9107 -50.8932 -50.8930 -50.8930 -50.8646
   -22.7648 -22.7648 -22.7647 -22.7359 -22.7357 -22.7357 -22.7111 -22.6620
   -22.6620 -22.6620 -22.6564 -22.6564 -22.6430 -22.6430 -22.5486 -22.5486
   -22.5485 -22.5476 -22.5476 -22.5476 -22.5214 -22.5212 -22.5212 -22.4034
   -22.2236 -22.1260 -22.1260 -22.1260 -22.1073 -22.1071 -22.1071 -22.0881
   -22.0881 -22.0598 -22.0598 -22.0597 -22.0510 -22.0510 -22.0510 -22.0177
   -21.9730 -21.9730 -21.9729 -21.9591 -21.9591 -21.9527 -21.9525 -21.9525
    14.9440  15.7881  15.7881  15.7881  16.4190  16.4190  16.4190  17.2419
    17.3412  17.3412  17.4944  17.4944  17.4945  17.6585  17.6585  17.6585
    17.7218  17.7218  17.7218  17.8140  18.2255  18.2255  18.3611  18.3611
    18.3915  18.3915  18.3916  18.4664  18.4664  18.4665  18.5246  18.5246
    18.5246  18.6965  18.6965  18.6966  18.7163  18.7164  18.7164  18.7629
    18.7630  18.7630  18.9321  18.9321  19.0548  19.0548  19.0549  19.6347
    21.6381  21.6381  21.6382  21.8191  21.8476  21.8477  21.8477  21.8585
    21.8585  21.8804  21.8804  21.8804  21.9243  21.9243  21.9243  22.1145
    22.1145  22.1480  22.1480  22.1486  22.1710  22.1710

          k = 0.3889 0.3889-0.5000 ( 11970 PWs)   bands (ev):

   -51.0816 -51.0813 -51.0442 -51.0439 -51.0438 -51.0438 -51.0156 -51.0153
   -50.9152 -50.9150 -50.9011 -50.9008 -50.9007 -50.9007 -50.8774 -50.8772
   -22.7419 -22.7419 -22.7418 -22.7418 -22.7093 -22.7090 -22.7017 -22.7016
   -22.6861 -22.6860 -22.6072 -22.6070 -22.6046 -22.6045 -22.6044 -22.6044
   -22.5852 -22.5851 -22.5524 -22.5523 -22.5523 -22.5522 -22.4753 -22.4753
   -22.1728 -22.1728 -22.0998 -22.0997 -22.0852 -22.0851 -22.0850 -22.0850
   -22.0745 -22.0744 -22.0744 -22.0743 -22.0302 -22.0301 -22.0255 -22.0253
   -22.0050 -22.0047 -21.9666 -21.9666 -21.9665 -21.9664 -21.9528 -21.9528
    15.3517  15.3517  16.1192  16.1192  16.1193  16.1193  16.8383  16.8384
    17.4902  17.4903  17.5879  17.5880  17.6170  17.6171  17.6171  17.6171
    17.8014  17.8015  18.0723  18.0725  18.0725  18.0725  18.2664  18.2665
    18.3037  18.3039  18.4154  18.4155  18.4211  18.4211  18.5274  18.5275
    18.5275  18.5275  18.6824  18.6826  18.6826  18.6826  18.7414  18.7415
    18.7415  18.7415  18.8025  18.8026  18.8175  18.8177  19.2620  19.2620
    21.7552  21.7553  21.7875  21.7875  21.7876  21.7877  21.9325  21.9325
    21.9326  21.9326  21.9926  21.9928  22.0138  22.0140  22.0861  22.0863
    22.1356  22.1358  22.1380  22.1380  22.1382  22.1382

          k = 0.3889-0.5000-0.5000 ( 11932 PWs)   bands (ev):

   -51.0644 -51.0640 -51.0640 -51.0639 -51.0310 -51.0306 -51.0306 -51.0305
   -50.9073 -50.9069 -50.9069 -50.9068 -50.8880 -50.8876 -50.8876 -50.8875
   -22.7108 -22.7108 -22.7106 -22.7106 -22.7071 -22.7069 -22.7069 -22.7068
   -22.6449 -22.6448 -22.6448 -22.6447 -22.6006 -22.6004 -22.6004 -22.6003
   -22.5959 -22.5959 -22.5958 -22.5958 -22.5396 -22.5396 -22.5396 -22.5394
   -22.1262 -22.1262 -22.1262 -22.1261 -22.0740 -22.0740 -22.0738 -22.0738
   -22.0538 -22.0538 -22.0538 -22.0537 -22.0267 -22.0265 -22.0265 -22.0263
   -22.0049 -22.0047 -22.0047 -22.0046 -21.9660 -21.9660 -21.9658 -21.9658
    15.7325  15.7325  15.7325  15.7325  16.4961  16.4962  16.4962  16.4962
    17.5938  17.5940  17.5940  17.5940  17.8563  17.8564  17.8564  17.8565
    17.9819  17.9820  17.9820  17.9820  17.9867  17.9867  17.9867  17.9868
    18.4289  18.4289  18.4289  18.4290  18.4638  18.4641  18.4641  18.4643
    18.4646  18.4646  18.4646  18.4647  18.6416  18.6416  18.6417  18.6417
    18.7197  18.7198  18.7198  18.7199  18.9020  18.9020  18.9021  18.9021
    21.8331  21.8334  21.8334  21.8334  21.9110  21.9112  21.9112  21.9113
    22.0180  22.0183  22.0183  22.0184  22.1092  22.1092  22.1092  22.1094
    22.1171  22.1174  22.1174  22.1175  22.1590  22.1590

          k =-0.5000-0.5000-0.5000 ( 11992 PWs)   bands (ev):

   -51.0492 -51.0485 -51.0485 -51.0485 -51.0484 -51.0484 -51.0484 -51.0483
   -50.8968 -50.8962 -50.8962 -50.8962 -50.8961 -50.8961 -50.8961 -50.8960
   -22.6586 -22.6586 -22.6586 -22.6581 -22.6581 -22.6581 -22.6581 -22.6581
   -22.6580 -22.6580 -22.6580 -22.6580 -22.6580 -22.6580 -22.6580 -22.6580
   -22.5924 -22.5924 -22.5924 -22.5922 -22.5921 -22.5921 -22.5921 -22.5921
   -22.0864 -22.0864 -22.0864 -22.0863 -22.0862 -22.0862 -22.0862 -22.0862
   -22.0156 -22.0156 -22.0156 -22.0152 -22.0152 -22.0152 -22.0152 -22.0152
   -22.0151 -22.0151 -22.0151 -22.0151 -22.0151 -22.0151 -22.0151 -22.0151
    16.1182  16.1182  16.1182  16.1182  16.1182  16.1182  16.1182  16.1182
    17.9187  17.9187  17.9190  17.9190  17.9190  17.9190  17.9190  17.9190
    17.9190  17.9190  17.9190  17.9190  17.9190  17.9190  17.9191  17.9191
    18.5237  18.5237  18.5237  18.5238  18.5238  18.5238  18.5238  18.5239
    18.5339  18.5339  18.5339  18.5341  18.5341  18.5341  18.5342  18.5342
    18.5342  18.5342  18.5342  18.5342  18.5342  18.5343  18.5343  18.5343
    21.9705  21.9705  21.9710  21.9710  21.9710  21.9710  21.9710  21.9710
    21.9711  21.9711  21.9711  21.9711  21.9711  21.9711  21.9712  21.9712
    22.3811  22.3812  22.3813  22.3814  22.3814  22.3815

 ------ SPIN DOWN ----------


          k = 0.0556 0.0556 0.0556 ( 11954 PWs)   bands (ev):

   -51.2133 -51.0017 -51.0017 -51.0016 -50.9645 -50.9645 -50.9645 -50.9641
   -50.9641 -50.9639 -50.9593 -50.9593 -50.9590 -50.9432 -50.9396 -50.7894
   -22.9624 -22.9624 -22.9624 -22.9571 -22.9571 -22.9571 -22.6220 -22.6220
   -22.6100 -22.5131 -22.5075 -22.5075 -22.5075 -22.4670 -22.4670 -22.4446
   -22.4445 -22.4445 -22.3734 -22.3734 -22.3275 -22.2748 -22.2748 -22.2748
   -22.2553 -22.2552 -22.2552 -22.2261 -22.2260 -22.2260 -22.2192 -22.2192
   -22.2192 -22.2100 -22.2099 -22.2099 -22.1917 -22.1917 -22.1916 -21.8998
   -21.8998 -21.8997 -21.8970 -21.8939 -21.8939 -21.8939 -21.8848 -21.8848
    12.6904  16.0214  16.0214  16.0214  16.0417  16.0417  16.0417  16.0923
    16.0923  16.4274  16.4274  16.4275  16.8427  16.8427  16.8427  18.0621
    18.0854  18.0855  18.0855  18.1025  18.1025  18.1025  18.1763  18.1763
    18.3649  18.3649  18.4339  18.4769  18.4770  18.4770  18.9660  18.9660
    18.9660  19.7351  19.7351  19.7946  20.1067  20.1067  20.1068  20.2310
    20.2311  20.2311  20.3408  20.3408  20.3408  20.4580  20.4580  20.4580
    21.4027  21.4028  21.4028  21.5165  21.5166  21.5166  21.7160  21.7160
    21.7160  21.7784  21.7784  21.7784  21.9397  21.9398  21.9398  21.9461
    21.9461  22.0089  22.0089  22.0089  22.3322  22.3323

          k = 0.0556 0.0556 0.1667 ( 11961 PWs)   bands (ev):

   -51.2058 -51.0394 -50.9999 -50.9998 -50.9682 -50.9681 -50.9637 -50.9636
   -50.9628 -50.9581 -50.9579 -50.9577 -50.9445 -50.9408 -50.9289 -50.7947
   -22.9471 -22.9470 -22.9457 -22.9410 -22.9315 -22.9314 -22.6298 -22.6103
   -22.5924 -22.5816 -22.5620 -22.5620 -22.5597 -22.5576 -22.5017 -22.5017
   -22.4364 -22.3846 -22.3702 -22.3391 -22.3185 -22.2819 -22.2744 -22.2744
   -22.2564 -22.2388 -22.2327 -22.2327 -22.2311 -22.2152 -22.2152 -22.2108
   -22.2107 -22.2064 -22.2064 -22.1469 -22.1451 -22.1450 -22.1299 -21.9259
   -21.9163 -21.9163 -21.9144 -21.9096 -21.8994 -21.8994 -21.8947 -21.8893
    12.8327  15.8731  16.0588  16.0588  16.1207  16.1207  16.1388  16.1578
    16.1664  16.1794  16.4645  16.4645  16.8707  16.8707  17.0712  17.9221
    18.0016  18.0496  18.0656  18.0811  18.0894  18.1468  18.1468  18.1978
    18.1978  18.2263  18.4410  18.4410  18.6134  18.6191  18.8681  18.8681
    19.4280  19.7007  19.7268  19.8401  19.8402  19.8713  19.9259  20.0596
    20.0596  20.0993  20.4413  20.4413  20.5895  20.5895  20.6295  20.7550
    20.9181  20.9181  21.0994  21.2261  21.2262  21.2368  21.3780  21.6942
    21.6943  21.8434  21.8499  21.8499  21.9557  21.9557  21.9655  21.9871
    21.9968  22.0001  22.0001  22.0298  22.3363  22.3661

          k = 0.0556 0.0556 0.2778 ( 11976 PWs)   bands (ev):

   -51.1911 -51.0764 -50.9964 -50.9963 -50.9736 -50.9735 -50.9624 -50.9623
   -50.9605 -50.9573 -50.9572 -50.9558 -50.9469 -50.9430 -50.8960 -50.8052
   -22.9130 -22.9123 -22.9123 -22.9093 -22.8869 -22.8869 -22.6592 -22.6485
   -22.6384 -22.6384 -22.6341 -22.5938 -22.5871 -22.5820 -22.5820 -22.5660
   -22.4051 -22.4008 -22.3795 -22.3721 -22.2880 -22.2703 -22.2703 -22.2628
   -22.2534 -22.2405 -22.2405 -22.2125 -22.2124 -22.2106 -22.2105 -22.1949
   -22.1795 -22.1443 -22.1443 -22.0874 -22.0864 -22.0863 -22.0718 -21.9743
   -21.9435 -21.9435 -21.9435 -21.9407 -21.9162 -21.9161 -21.9155 -21.9067
    13.1114  15.2475  16.1462  16.1462  16.2532  16.2533  16.3133  16.3425
    16.3643  16.3805  16.4997  16.4997  16.8705  16.8705  17.1089  17.5583
    17.7400  17.8159  17.9781  18.0314  18.0445  18.0567  18.2840  18.2841
    18.3683  18.3683  18.4744  18.4745  18.8230  18.8230  18.9198  18.9401
    19.4807  19.4808  19.6761  19.6779  19.6780  19.7014  19.7143  19.7967
    19.9841  20.2036  20.2733  20.2733  20.5233  20.5233  20.7619  20.7619
    20.7752  20.8101  20.8101  20.8141  20.8256  20.9742  21.1129  21.6428
    21.7096  21.7096  21.8433  21.8434  22.0144  22.0347  22.0663  22.0812
    22.0812  22.3108  22.3134  22.3348  22.3441  22.3756

          k = 0.0556 0.0556 0.3889 ( 11969 PWs)   bands (ev):

   -51.1698 -51.1113 -50.9915 -50.9915 -50.9796 -50.9795 -50.9607 -50.9607
   -50.9578 -50.9577 -50.9573 -50.9529 -50.9501 -50.9460 -50.8667 -50.8209
   -22.8652 -22.8631 -22.8604 -22.8603 -22.8255 -22.8255 -22.7351 -22.7307
   -22.7186 -22.7186 -22.6681 -22.6680 -22.6349 -22.6175 -22.5532 -22.5309
   -22.4584 -22.4363 -22.3698 -22.3468 -22.2950 -22.2825 -22.2644 -22.2644
   -22.2488 -22.2488 -22.2109 -22.2109 -22.2101 -22.2101 -22.2019 -22.1150
   -22.1062 -22.0830 -22.0830 -22.0394 -22.0331 -22.0304 -22.0303 -22.0191
   -21.9861 -21.9859 -21.9810 -21.9809 -21.9461 -21.9438 -21.9438 -21.9350
    13.5148  14.6146  16.2670  16.2670  16.4266  16.4266  16.4805  16.4805
    16.5307  16.5587  16.6793  16.6903  16.7820  16.7821  16.9959  17.1594
    17.4308  17.4503  17.9526  17.9796  17.9926  18.0040  18.4914  18.4915
    18.6068  18.6068  18.6796  18.6796  18.9197  18.9197  19.1587  19.1588
    19.2982  19.2982  19.3061  19.3262  19.6548  19.6548  19.6649  19.7049
    19.7155  19.7211  19.8712  19.8713  20.1360  20.2641  20.2721  20.5546
    20.5838  21.0603  21.0604  21.0990  21.0990  21.3540  21.3703  21.5213
    21.5253  21.5254  21.6599  21.6599  22.0811  22.0946  22.1785  22.2384
    22.2428  22.2479  22.3542  22.3770  22.3846  22.3951

          k = 0.0556 0.0556-0.5000 ( 11990 PWs)   bands (ev):

   -51.1431 -51.1426 -50.9860 -50.9859 -50.9856 -50.9855 -50.9594 -50.9593
   -50.9588 -50.9587 -50.9538 -50.9537 -50.9499 -50.9489 -50.8418 -50.8412
   -22.8045 -22.8040 -22.8040 -22.8035 -22.7944 -22.7944 -22.7944 -22.7943
   -22.7512 -22.7512 -22.7511 -22.7511 -22.6308 -22.6304 -22.5102 -22.5097
   -22.4875 -22.4871 -22.3324 -22.3320 -22.3155 -22.3150 -22.2573 -22.2572
   -22.2568 -22.2568 -22.2105 -22.2105 -22.2100 -22.2099 -22.1170 -22.1166
   -22.0449 -22.0444 -22.0410 -22.0405 -22.0280 -22.0279 -22.0279 -22.0279
   -21.9859 -21.9854 -21.9823 -21.9822 -21.9822 -21.9821 -21.9730 -21.9727
    14.0246  14.0247  16.3921  16.3921  16.3922  16.3922  16.6166  16.6166
    16.6166  16.6166  16.7925  16.7928  16.8143  16.8146  17.0543  17.0545
    17.0560  17.0563  17.9616  17.9620  17.9751  17.9754  18.7554  18.7554
    18.7555  18.7555  18.8755  18.8755  18.8756  18.8756  19.1493  19.1494
    19.1495  19.1495  19.3479  19.3480  19.3481  19.3481  19.6746  19.6749
    19.7064  19.7068  19.7600  19.7601  19.7716  19.7718  20.3268  20.3272
    20.9923  20.9927  21.3052  21.3052  21.3052  21.3053  21.4070  21.4071
    21.4071  21.4071  21.8031  21.8035  21.9632  21.9637  22.1584  22.1589
    22.1665  22.1670  22.3184  22.3188  22.3656  22.3660

          k = 0.0556 0.1667 0.1667 ( 11981 PWs)   bands (ev):

   -51.1984 -51.0365 -51.0364 -50.9980 -50.9788 -50.9668 -50.9668 -50.9629
   -50.9568 -50.9567 -50.9498 -50.9461 -50.9417 -50.9293 -50.9292 -50.7998
   -22.9423 -22.9311 -22.9311 -22.9171 -22.9171 -22.8961 -22.6433 -22.6248
   -22.6090 -22.6089 -22.6037 -22.5968 -22.5871 -22.5641 -22.5399 -22.4557
   -22.4290 -22.4289 -22.3638 -22.3376 -22.3375 -22.2864 -22.2685 -22.2684
   -22.2507 -22.2475 -22.2475 -22.2447 -22.2270 -22.2270 -22.2199 -22.2031
   -22.1998 -22.1653 -22.1491 -22.1490 -22.1091 -22.0861 -22.0860 -21.9649
   -21.9435 -21.9278 -21.9278 -21.9140 -21.9139 -21.9036 -21.8935 -21.8850
    12.9725  15.9300  15.9300  16.0436  16.1770  16.1770  16.2324  16.2354
    16.2354  16.2427  16.2622  16.5137  16.9156  17.1038  17.1038  17.7936
    17.9350  18.0069  18.0070  18.1234  18.1234  18.1573  18.1690  18.1691
    18.1736  18.3154  18.3260  18.3794  18.6098  18.6367  18.7526  19.2365
    19.2365  19.6215  19.6745  19.6745  19.7047  19.7357  19.9069  19.9994
    20.3306  20.3307  20.3943  20.3943  20.4362  20.5375  20.6712  20.7425
    20.7425  20.8093  20.8094  20.9556  20.9556  21.0883  21.3913  21.3914
    21.7008  21.8267  21.8792  21.8792  21.9201  21.9570  21.9585  21.9586
    21.9743  22.1824  22.2941  22.3020  22.3020  22.3447

          k = 0.0556 0.1667 0.2778 ( 11967 PWs)   bands (ev):

   -51.1841 -51.0724 -51.0308 -50.9946 -50.9902 -50.9721 -50.9643 -50.9615
   -50.9563 -50.9547 -50.9489 -50.9437 -50.9429 -50.9302 -50.8975 -50.8099
   -22.9179 -22.8997 -22.8982 -22.8888 -22.8753 -22.8421 -22.6798 -22.6797
   -22.6571 -22.6548 -22.6547 -22.6416 -22.6026 -22.5814 -22.5289 -22.5123
   -22.4326 -22.3984 -22.3546 -22.3476 -22.3300 -22.3290 -22.2903 -22.2748
   -22.2693 -22.2576 -22.2486 -22.2248 -22.2243 -22.2045 -22.1862 -22.1744
   -22.1526 -22.1421 -22.1143 -22.0909 -22.0634 -22.0325 -22.0316 -22.0221
   -21.9804 -21.9506 -21.9497 -21.9426 -21.9272 -21.9236 -21.8987 -21.8918
    13.2463  15.3271  16.0171  16.0639  16.2644  16.3664  16.3836  16.3902
    16.4040  16.4268  16.4544  16.5713  16.9449  17.0937  17.1525  17.5942
    17.6554  17.7722  18.0664  18.0829  18.1058  18.1204  18.1895  18.2499
    18.2760  18.3226  18.3641  18.5281  18.6637  18.8048  18.8652  19.1045
    19.3496  19.4648  19.4859  19.5470  19.5696  19.6273  19.6785  19.8860
    19.9326  20.1591  20.1622  20.3443  20.4199  20.5117  20.5154  20.5197
    20.6535  20.7676  20.7974  20.8652  20.9009  21.0991  21.1015  21.5289
    21.6741  21.7427  21.7799  21.8468  21.8910  21.9373  21.9914  22.0166
    22.2229  22.2866  22.2905  22.3231  22.3744  22.3807

          k = 0.0556 0.1667 0.3889 ( 11978 PWs)   bands (ev):

   -51.1634 -51.1064 -51.0227 -51.0018 -50.9898 -50.9780 -50.9608 -50.9598
   -50.9569 -50.9527 -50.9519 -50.9460 -50.9380 -50.9317 -50.8692 -50.8250
   -22.8761 -22.8540 -22.8498 -22.8481 -22.8183 -22.7725 -22.7525 -22.7396
   -22.7281 -22.7221 -22.6759 -22.6662 -22.6608 -22.6025 -22.5483 -22.4876
   -22.4551 -22.3953 -22.3868 -22.3351 -22.3183 -22.3115 -22.2873 -22.2867
   -22.2769 -22.2685 -22.2614 -22.2254 -22.2243 -22.1747 -22.1580 -22.1398
   -22.1031 -22.0933 -22.0828 -22.0640 -22.0380 -22.0260 -22.0188 -21.9848
   -21.9847 -21.9836 -21.9831 -21.9801 -21.9532 -21.9493 -21.9155 -21.9114
    13.6418  14.7143  16.0906  16.0985  16.3834  16.5381  16.5759  16.5829
    16.5865  16.6494  16.7199  16.7556  16.8804  16.9783  17.0448  17.2221
    17.4281  17.4722  17.9995  18.0372  18.0645  18.0683  18.3760  18.4318
    18.4493  18.4992  18.5198  18.6781  18.7937  18.9588  19.1439  19.2033
    19.2163  19.2560  19.3329  19.3346  19.4849  19.4949  19.5259  19.5853
    19.6013  19.6491  19.7580  19.9227  20.0163  20.0284  20.3544  20.7844
    20.8266  21.0269  21.0283  21.1060  21.1110  21.1360  21.3507  21.4243
    21.4626  21.5625  21.6617  21.7211  21.8882  22.0181  22.0529  22.1313
    22.1782  22.2047  22.2142  22.3034  22.3701  22.3736

[...]
    20.8163  20.8164  20.9654  20.9654  21.0052  21.0052

          k = 0.1642-0.4925-0.4925 ( 12516 PWs)   bands (ev):

   -52.1384 -52.1384 -52.1384 -52.1383 -52.0601 -52.0601 -52.0600 -52.0600
   -52.0129 -52.0129 -52.0128 -52.0127 -51.9637 -51.9637 -51.9636 -51.9636
   -23.7809 -23.7809 -23.7809 -23.7809 -23.7660 -23.7660 -23.7660 -23.7660
   -23.7373 -23.7373 -23.7373 -23.7372 -23.5186 -23.5186 -23.5186 -23.5185
   -23.4996 -23.4996 -23.4995 -23.4995 -23.4931 -23.4931 -23.4931 -23.4931
   -23.2934 -23.2934 -23.2933 -23.2933 -23.2880 -23.2880 -23.2879 -23.2879
   -23.1442 -23.1442 -23.1442 -23.1441 -23.1110 -23.1110 -23.1110 -23.1110
   -23.0951 -23.0951 -23.0951 -23.0951 -23.0169 -23.0169 -23.0168 -23.0168
    14.1982  14.1982  14.1982  14.1982  16.0514  16.0514  16.0514  16.0514
    16.2386  16.2386  16.2386  16.2386  16.5886  16.5886  16.5886  16.5886
    16.8698  16.8698  16.8698  16.8698  17.1829  17.1829  17.1829  17.1829
    17.3447  17.3447  17.3447  17.3447  17.7806  17.7806  17.7806  17.7806
    17.8806  17.8806  17.8806  17.8806  17.9961  17.9961  17.9961  17.9962
    18.2537  18.2537  18.2538  18.2538  18.7856  18.7856  18.7856  18.7856
    20.4088  20.4088  20.4088  20.4088  20.5361  20.5361  20.5362  20.5362
    20.6738  20.6738  20.6738  20.6739  20.6758  20.6758  20.6758  20.6758
    20.7036  20.7037  20.7037  20.7037  20.9448  20.9449

          k = 0.2736 0.2736 0.2736 ( 12551 PWs)   bands (ev):

   -52.1941 -52.1122 -52.1122 -52.1121 -52.0678 -52.0678 -52.0677 -52.0413
   -52.0134 -52.0089 -52.0089 -52.0088 -51.9865 -51.9865 -51.9864 -51.9252
   -23.8467 -23.8466 -23.8466 -23.7690 -23.7690 -23.7690 -23.7401 -23.7356
   -23.7356 -23.7355 -23.6651 -23.6651 -23.6276 -23.6276 -23.5438 -23.5437
   -23.5437 -23.4903 -23.4902 -23.4902 -23.4403 -23.4278 -23.4278 -23.4277
   -23.2661 -23.2568 -23.2568 -23.2568 -23.2541 -23.2541 -23.2534 -23.2534
   -23.2534 -23.1946 -23.1946 -23.1946 -23.1377 -23.1097 -23.1097 -23.1097
   -23.0705 -23.0705 -23.0704 -23.0460 -23.0459 -23.0459 -23.0325 -23.0325
    12.9531  14.7644  14.7644  14.7644  15.4719  15.4719  15.4719  15.9602
    15.9602  16.0126  16.0126  16.0126  16.5200  16.5200  16.5200  16.6715
    16.8271  16.8271  16.8271  17.0981  17.1551  17.1551  17.3572  17.3573
    17.3573  17.5864  17.5864  17.5865  17.6012  17.6012  17.9511  17.9511
    17.9511  18.1658  18.1658  18.1659  18.2789  18.2790  18.2790  18.3572
    18.3572  18.5236  18.5236  18.5236  18.6509  18.6509  18.6509  19.7662
    19.9305  20.0609  20.0609  20.0609  20.3246  20.3246  20.3246  20.5110
    20.5110  20.5110  20.7150  20.7150  20.7770  20.7770  20.7770  20.9177
    20.9177  20.9177  21.1006  21.1006  21.1007  21.1061

          k = 0.2736 0.2736 0.3831 ( 12507 PWs)   bands (ev):

   -52.1788 -52.1369 -52.1036 -52.1035 -52.0808 -52.0807 -52.0624 -52.0487
   -52.0112 -52.0091 -52.0010 -52.0010 -51.9899 -51.9898 -51.9665 -51.9356
   -23.8229 -23.8229 -23.8069 -23.7616 -23.7607 -23.7606 -23.7472 -23.7339
   -23.7165 -23.7165 -23.6965 -23.6956 -23.6332 -23.5985 -23.5985 -23.5815
   -23.5442 -23.4952 -23.4952 -23.4772 -23.4743 -23.4595 -23.4595 -23.3933
   -23.3308 -23.2990 -23.2646 -23.2637 -23.2334 -23.2334 -23.2104 -23.2104
   -23.2027 -23.2027 -23.1887 -23.1434 -23.1379 -23.1379 -23.1201 -23.1062
   -23.0830 -23.0612 -23.0596 -23.0596 -23.0494 -23.0465 -23.0465 -23.0299
    13.3063  14.2441  14.9808  14.9808  15.3608  15.3608  15.8090  16.1202
    16.1639  16.1905  16.1905  16.2696  16.5102  16.5115  16.5115  16.5638
    16.6627  16.6710  17.0167  17.0167  17.1800  17.2935  17.3987  17.4188
    17.4300  17.4689  17.4689  17.6718  17.6718  17.7849  17.7864  17.7864
    17.9709  17.9709  18.0454  18.0454  18.0788  18.1197  18.1305  18.1415
    18.2248  18.2322  18.2322  18.2801  18.3518  18.3518  18.8244  19.4979
    20.0426  20.2270  20.2763  20.2763  20.3901  20.3901  20.4448  20.4448
    20.5762  20.6295  20.6447  20.6760  20.6760  20.6933  20.8409  20.8419
    21.0182  21.0202  21.1053  21.1053  21.1074  21.1113

          k = 0.2736 0.2736-0.4925 ( 12538 PWs)   bands (ev):

   -52.1595 -52.1595 -52.0929 -52.0929 -52.0929 -52.0928 -52.0559 -52.0559
   -52.0098 -52.0098 -51.9947 -51.9947 -51.9947 -51.9946 -51.9495 -51.9494
   -23.7922 -23.7922 -23.7922 -23.7922 -23.7561 -23.7561 -23.7541 -23.7541
   -23.7202 -23.7202 -23.6581 -23.6581 -23.6581 -23.6581 -23.5925 -23.5925
   -23.5303 -23.5303 -23.4835 -23.4835 -23.4835 -23.4835 -23.4022 -23.4022
   -23.3457 -23.3457 -23.2675 -23.2675 -23.2156 -23.2156 -23.2156 -23.2156
   -23.1716 -23.1716 -23.1716 -23.1716 -23.1312 -23.1312 -23.1094 -23.1094
   -23.0987 -23.0987 -23.0512 -23.0512 -23.0512 -23.0512 -23.0358 -23.0358
    13.7461  13.7461  15.1938  15.1938  15.1938  15.1938  16.2205  16.2205
    16.3242  16.3242  16.3681  16.3681  16.3682  16.3682  16.3688  16.3688
    16.5243  16.5243  17.2301  17.2301  17.3348  17.3348  17.3671  17.3671
    17.3671  17.3671  17.6196  17.6196  17.6196  17.6196  17.7536  17.7536
    17.9713  17.9713  18.0569  18.0569  18.0569  18.0569  18.0927  18.0927
    18.0927  18.0927  18.1411  18.1411  18.1869  18.1869  19.1156  19.1157
    20.3393  20.3393  20.4075  20.4075  20.4118  20.4118  20.4118  20.4118
    20.4942  20.4942  20.4942  20.4943  20.8697  20.8698  20.9265  20.9265
    20.9863  20.9863  20.9887  20.9887  21.1115  21.1115

          k = 0.2736 0.3831 0.3831 ( 12517 PWs)   bands (ev):

   -52.1647 -52.1263 -52.1262 -52.0975 -52.0956 -52.0744 -52.0744 -52.0579
   -52.0071 -52.0023 -52.0022 -51.9927 -51.9894 -51.9721 -51.9721 -51.9448
   -23.8046 -23.7870 -23.7869 -23.7592 -23.7523 -23.7522 -23.7390 -23.7219
   -23.7219 -23.7079 -23.7018 -23.6591 -23.6357 -23.6288 -23.5955 -23.5485
   -23.5485 -23.5330 -23.5330 -23.5223 -23.5108 -23.5108 -23.5000 -23.3947
   -23.3447 -23.2529 -23.2529 -23.2401 -23.2366 -23.2366 -23.2085 -23.1989
   -23.1758 -23.1715 -23.1650 -23.1528 -23.1527 -23.1231 -23.1231 -23.1139
   -23.0796 -23.0796 -23.0763 -23.0661 -23.0457 -23.0456 -23.0428 -23.0355
    13.6432  14.5157  14.5157  15.1139  15.2358  15.6942  15.6942  16.2582
    16.3325  16.3728  16.4520  16.4521  16.4725  16.5071  16.5072  16.7327
    16.7505  16.8301  16.8302  16.9527  17.2591  17.3583  17.3586  17.3923
    17.3923  17.4548  17.4548  17.5520  17.5604  17.6514  17.7010  17.8740
    17.8780  17.8781  17.8820  17.8820  17.8926  17.8926  17.9100  18.0266
    18.0266  18.0736  18.0848  18.1051  18.1713  18.4578  18.4578  19.0706
    20.3531  20.4059  20.4060  20.4312  20.4673  20.5545  20.6238  20.6309
    20.6310  20.6624  20.6624  20.6802  20.7546  20.7546  20.8231  20.9556
    20.9851  20.9851  20.9891  21.0199  21.0903  21.1016

          k = 0.2736 0.3831-0.4925 ( 12534 PWs)   bands (ev):

   -52.1469 -52.1469 -52.1129 -52.1129 -52.0857 -52.0856 -52.0666 -52.0666
   -52.0042 -52.0042 -51.9968 -51.9968 -51.9797 -51.9797 -51.9570 -51.9570
   -23.7787 -23.7787 -23.7683 -23.7683 -23.7433 -23.7433 -23.7328 -23.7328
   -23.7298 -23.7298 -23.6785 -23.6785 -23.5965 -23.5965 -23.5947 -23.5946
   -23.5606 -23.5606 -23.5317 -23.5316 -23.5280 -23.5280 -23.4636 -23.4636
   -23.2977 -23.2977 -23.2379 -23.2378 -23.2189 -23.2188 -23.2100 -23.2100
   -23.1717 -23.1717 -23.1463 -23.1463 -23.1210 -23.1210 -23.1149 -23.1149
   -23.1098 -23.1097 -23.0733 -23.0733 -23.0429 -23.0428 -23.0382 -23.0382
    14.0570  14.0570  14.8206  14.8206  15.4946  15.4946  16.0893  16.0893
    16.3966  16.3967  16.4409  16.4409  16.6136  16.6136  16.6393  16.6393
    16.6965  16.6965  17.1832  17.1832  17.2091  17.2091  17.3066  17.3066
    17.3178  17.3179  17.5191  17.5191  17.5795  17.5795  17.6977  17.6977
    17.7801  17.7801  17.7997  17.7997  17.9154  17.9154  17.9650  17.9650
    18.0039  18.0039  18.0831  18.0831  18.1457  18.1457  18.7074  18.7074
    20.5363  20.5363  20.5447  20.5447  20.5773  20.5773  20.6025  20.6025
    20.6322  20.6322  20.6850  20.6850  20.8540  20.8540  20.8557  20.8557
    20.9285  20.9286  20.9337  20.9337  21.0217  21.0218

          k = 0.2736-0.4925-0.4925 ( 12528 PWs)   bands (ev):

   -52.1312 -52.1312 -52.1312 -52.1311 -52.0767 -52.0767 -52.0767 -52.0766
   -52.0000 -52.0000 -51.9999 -51.9999 -51.9672 -51.9672 -51.9671 -51.9670
   -23.7565 -23.7564 -23.7564 -23.7564 -23.7478 -23.7477 -23.7477 -23.7477
   -23.7034 -23.7034 -23.7034 -23.7034 -23.5709 -23.5709 -23.5709 -23.5708
   -23.5590 -23.5590 -23.5590 -23.5590 -23.5302 -23.5302 -23.5301 -23.5301
   -23.2522 -23.2522 -23.2522 -23.2522 -23.2242 -23.2242 -23.2241 -23.2241
   -23.1354 -23.1354 -23.1354 -23.1353 -23.1273 -23.1272 -23.1272 -23.1272
   -23.0989 -23.0988 -23.0988 -23.0988 -23.0392 -23.0392 -23.0391 -23.0391
    14.4280  14.4280  14.4280  14.4280  15.8223  15.8223  15.8223  15.8223
    16.4411  16.4411  16.4411  16.4412  16.8271  16.8271  16.8271  16.8271
    16.9083  16.9083  16.9083  16.9083  17.1331  17.1331  17.1331  17.1331
    17.4215  17.4215  17.4215  17.4215  17.6056  17.6056  17.6056  17.6056
    17.7922  17.7922  17.7922  17.7922  17.8097  17.8097  17.8097  17.8097
    18.0184  18.0184  18.0184  18.0184  18.3670  18.3670  18.3670  18.3670
    20.6147  20.6147  20.6147  20.6148  20.7319  20.7319  20.7319  20.7319
    20.7372  20.7372  20.7372  20.7373  20.7883  20.7883  20.7883  20.7883
    20.9262  20.9262  20.9262  20.9262  21.0462  21.0462

          k = 0.3831 0.3831 0.3831 ( 12559 PWs)   bands (ev):

   -52.1517 -52.1164 -52.1164 -52.1163 -52.0898 -52.0898 -52.0897 -52.0694
   -52.0007 -51.9920 -51.9920 -51.9919 -51.9770 -51.9770 -51.9769 -51.9529
   -23.7668 -23.7667 -23.7667 -23.7422 -23.7422 -23.7421 -23.7192 -23.6764
   -23.6764 -23.6764 -23.6743 -23.6743 -23.6605 -23.6605 -23.5801 -23.5800
   -23.5800 -23.5772 -23.5772 -23.5772 -23.5556 -23.5556 -23.5555 -23.4519
   -23.2978 -23.2126 -23.2126 -23.2126 -23.1951 -23.1951 -23.1951 -23.1781
   -23.1781 -23.1540 -23.1539 -23.1539 -23.1470 -23.1470 -23.1470 -23.1176
   -23.0780 -23.0780 -23.0780 -23.0664 -23.0664 -23.0605 -23.0605 -23.0604
    13.9728  14.8082  14.8082  14.8082  15.4498  15.4499  15.4499  16.2361
    16.4865  16.4865  16.6121  16.6121  16.6121  16.7864  16.7864  16.7864
    16.8190  16.8190  16.8190  16.9229  17.3175  17.3175  17.4222  17.4222
    17.4798  17.4798  17.4798  17.5227  17.5227  17.5227  17.5996  17.5996
    17.5996  17.7623  17.7623  17.7623  17.7683  17.7683  17.7683  17.8249
    17.8249  17.8249  17.9911  17.9911  18.0986  18.0986  18.0986  18.6422
    20.5405  20.5406  20.5406  20.6950  20.7291  20.7291  20.7291  20.7472
    20.7472  20.7642  20.7642  20.7642  20.7997  20.7997  20.7997  20.9826
    20.9826  21.0150  21.0150  21.0150  21.0358  21.0358

          k = 0.3831 0.3831-0.4925 ( 12528 PWs)   bands (ev):

   -52.1353 -52.1353 -52.1040 -52.1040 -52.1040 -52.1039 -52.0802 -52.0802
   -51.9957 -51.9957 -51.9836 -51.9836 -51.9835 -51.9835 -51.9636 -51.9636
   -23.7471 -23.7471 -23.7470 -23.7470 -23.7181 -23.7180 -23.7129 -23.7129
   -23.6973 -23.6972 -23.6312 -23.6311 -23.6267 -23.6267 -23.6267 -23.6266
   -23.6105 -23.6105 -23.5827 -23.5827 -23.5827 -23.5826 -23.5143 -23.5143
   -23.2534 -23.2534 -23.1883 -23.1882 -23.1769 -23.1769 -23.1769 -23.1769
   -23.1666 -23.1666 -23.1666 -23.1665 -23.1290 -23.1290 -23.1235 -23.1235
   -23.1061 -23.1061 -23.0725 -23.0725 -23.0724 -23.0724 -23.0607 -23.0606
    14.3731  14.3731  15.1381  15.1381  15.1381  15.1381  15.8477  15.8477
    16.6274  16.6274  16.7087  16.7087  16.7328  16.7328  16.7328  16.7328
    16.9031  16.9031  17.1577  17.1577  17.1577  17.1577  17.3490  17.3490
    17.3946  17.3946  17.4790  17.4790  17.4892  17.4892  17.6082  17.6082
    17.6082  17.6083  17.7443  17.7443  17.7443  17.7444  17.8023  17.8023
    17.8023  17.8023  17.8675  17.8675  17.8829  17.8830  18.2916  18.2916
    20.6503  20.6503  20.6790  20.6790  20.6790  20.6790  20.8078  20.8078
    20.8078  20.8078  20.8692  20.8693  20.8910  20.8910  20.9522  20.9522
    21.0029  21.0029  21.0055  21.0055  21.0055  21.0056

          k = 0.3831-0.4925-0.4925 ( 12552 PWs)   bands (ev):

   -52.1208 -52.1208 -52.1208 -52.1207 -52.0929 -52.0929 -52.0929 -52.0928
   -51.9889 -51.9889 -51.9888 -51.9888 -51.9725 -51.9725 -51.9725 -51.9724
   -23.7206 -23.7206 -23.7205 -23.7205 -23.7165 -23.7165 -23.7165 -23.7164
   -23.6617 -23.6617 -23.6617 -23.6617 -23.6248 -23.6248 -23.6248 -23.6247
   -23.6203 -23.6203 -23.6202 -23.6202 -23.5704 -23.5704 -23.5703 -23.5703
   -23.2128 -23.2127 -23.2127 -23.2127 -23.1661 -23.1661 -23.1660 -23.1660
   -23.1495 -23.1495 -23.1495 -23.1495 -23.1250 -23.1250 -23.1250 -23.1249
   -23.1059 -23.1059 -23.1059 -23.1059 -23.0722 -23.0722 -23.0721 -23.0721
    14.7481  14.7481  14.7481  14.7481  15.5032  15.5032  15.5032  15.5032
    16.7183  16.7183  16.7183  16.7183  16.9600  16.9600  16.9600  16.9600
    17.0743  17.0744  17.0744  17.0744  17.0780  17.0780  17.0780  17.0780
    17.5128  17.5128  17.5128  17.5128  17.5355  17.5355  17.5355  17.5355
    17.5429  17.5429  17.5429  17.5429  17.7167  17.7168  17.7168  17.7168
    17.7872  17.7872  17.7872  17.7873  17.9524  17.9524  17.9524  17.9524
    20.7221  20.7221  20.7221  20.7222  20.7940  20.7940  20.7940  20.7941
    20.8950  20.8950  20.8950  20.8951  20.9733  20.9733  20.9733  20.9734
    20.9859  20.9859  20.9859  20.9860  21.0192  21.0192

          k =-0.4925-0.4925-0.4925 ( 12568 PWs)   bands (ev):

   -52.1078 -52.1078 -52.1078 -52.1078 -52.1078 -52.1078 -52.1078 -52.1076
   -51.9797 -51.9797 -51.9797 -51.9797 -51.9797 -51.9797 -51.9797 -51.9795
   -23.6748 -23.6748 -23.6748 -23.6748 -23.6748 -23.6748 -23.6748 -23.6748
   -23.6748 -23.6748 -23.6748 -23.6748 -23.6748 -23.6747 -23.6747 -23.6747
   -23.6158 -23.6158 -23.6158 -23.6158 -23.6158 -23.6157 -23.6157 -23.6157
   -23.1783 -23.1782 -23.1782 -23.1782 -23.1782 -23.1781 -23.1781 -23.1781
   -23.1147 -23.1147 -23.1147 -23.1147 -23.1147 -23.1147 -23.1147 -23.1147
   -23.1147 -23.1147 -23.1147 -23.1147 -23.1147 -23.1146 -23.1146 -23.1146
    15.1241  15.1242  15.1242  15.1242  15.1242  15.1242  15.1242  15.1242
    17.0187  17.0187  17.0187  17.0187  17.0187  17.0187  17.0187  17.0187
    17.0187  17.0187  17.0187  17.0187  17.0187  17.0187  17.0188  17.0188
    17.5939  17.5939  17.5939  17.5939  17.5939  17.5940  17.5940  17.5940
    17.6140  17.6140  17.6140  17.6140  17.6140  17.6140  17.6140  17.6140
    17.6140  17.6140  17.6140  17.6140  17.6140  17.6141  17.6141  17.6141
    20.8503  20.8503  20.8503  20.8503  20.8503  20.8503  20.8503  20.8503
    20.8503  20.8503  20.8503  20.8503  20.8503  20.8503  20.8504  20.8504
    21.2272  21.2272  21.2272  21.2272  21.2272  21.2272

     the Fermi energy is    19.6239 ev

!    total energy              =   -3971.54124124 Ry
     Harris-Foulkes estimate   =   -3971.54124077 Ry
     estimated scf accuracy    <          5.5E-09 Ry

     total all-electron energy =    -33628.064121 Ry

     The total energy is the sum of the following terms:

     one-electron contribution =    -881.11882202 Ry
     hartree contribution      =     578.55856494 Ry
     xc contribution           =    -356.59531741 Ry
     ewald contribution        =   -2124.42800954 Ry
     one-center paw contrib.   =   -1187.97764607 Ry
     smearing contrib. (-TS)   =       0.01998886 Ry

     total magnetization       =     0.00 Bohr mag/cell
     absolute magnetization    =     0.08 Bohr mag/cell

     convergence has been achieved in  17 iterations

     Forces acting on atoms (cartesian axes, Ry/au):

     atom    1 type  1   force =     0.00000000    0.00000000    0.00000000
     atom    2 type  2   force =    -0.00001052   -0.00001052   -0.00001052
     atom    3 type  1   force =     0.00000000   -0.00000000    0.00000000
     atom    4 type  2   force =    -0.00001052   -0.00001052    0.00001052
     atom    5 type  1   force =     0.00000000    0.00000000    0.00000000
     atom    6 type  2   force =    -0.00001052    0.00001052   -0.00001052
     atom    7 type  1   force =     0.00000000    0.00000000    0.00000000
     atom    8 type  2   force =    -0.00001052    0.00001052    0.00001052
     atom    9 type  1   force =     0.00000000    0.00000000    0.00000000
     atom   10 type  2   force =     0.00001052   -0.00001052   -0.00001052
     atom   11 type  1   force =     0.00000000   -0.00000000    0.00000000
     atom   12 type  2   force =     0.00001052   -0.00001052    0.00001052
     atom   13 type  1   force =     0.00000000    0.00000000    0.00000000
     atom   14 type  2   force =     0.00001052    0.00001052   -0.00001052
     atom   15 type  1   force =     0.00000000    0.00000000    0.00000000
     atom   16 type  2   force =     0.00001052    0.00001052    0.00001052

     Total force =     0.000052     Total SCF correction =     0.000128
     SCF correction compared to forces is large: reduce conv_thr to get better values


     Computing stress (Cartesian axis) and pressure

          total   stress  (Ry/bohr**3)                   (kbar)     P=    2.51
   0.00001706   0.00000000   0.00000000          2.51      0.00      0.00
   0.00000000   0.00001706   0.00000000          0.00      2.51      0.00
   0.00000000   0.00000000   0.00001706          0.00      0.00      2.51


     Writing output data file hizcNjkqwBgaxQql.save/
 
     init_run     :     18.74s CPU     19.46s WALL (       2 calls)
     electrons    :   4590.66s CPU   4696.35s WALL (       6 calls)
     update_pot   :      3.52s CPU      3.56s WALL (       4 calls)
     forces       :     21.05s CPU     22.21s WALL (       6 calls)
     stress       :     70.05s CPU     70.87s WALL (       6 calls)

     Called by init_run:
     wfcinit      :     16.86s CPU     17.46s WALL (       2 calls)
     potinit      :      0.85s CPU      0.87s WALL (       2 calls)
     hinit0       :      0.51s CPU      0.53s WALL (       2 calls)

     Called by electrons:
     c_bands      :   4174.52s CPU   4260.95s WALL (     135 calls)
     sum_band     :    363.21s CPU    379.44s WALL (     135 calls)
     v_of_rho     :      4.02s CPU      4.26s WALL (     139 calls)
     newd         :      9.15s CPU     10.82s WALL (     139 calls)
     PAW_pot      :     41.14s CPU     42.10s WALL (     143 calls)
     mix_rho      :      1.24s CPU      1.35s WALL (     135 calls)

     Called by c_bands:
     init_us_2    :     23.58s CPU     23.97s WALL (   20160 calls)
     cegterg      :   4032.86s CPU   4117.72s WALL (    9450 calls)

     Called by sum_band:
     sum_band:bec :      4.25s CPU      4.32s WALL (    9730 calls)
     addusdens    :     16.24s CPU     18.37s WALL (     135 calls)

     Called by *egterg:
     h_psi        :   1642.17s CPU   1700.89s WALL (   39942 calls)
     s_psi        :    157.42s CPU    157.97s WALL (   39942 calls)
     g_psi        :      9.56s CPU      9.64s WALL (   30352 calls)
     cdiaghg      :   1647.07s CPU   1649.94s WALL (   39382 calls)

     Called by h_psi:
     h_psi:pot    :   1633.07s CPU   1691.66s WALL (   39942 calls)
     h_psi:calbec :    173.59s CPU    187.81s WALL (   39942 calls)
     vloc_psi     :   1304.20s CPU   1347.98s WALL (   39942 calls)
     add_vuspsi   :    154.89s CPU    155.60s WALL (   39942 calls)

     General routines
     calbec       :    256.41s CPU    277.41s WALL (   51772 calls)
     fft          :      3.08s CPU      3.38s WALL (    3719 calls)
     ffts         :      0.28s CPU      0.30s WALL (     548 calls)
     fftw         :   1449.29s CPU   1497.27s WALL ( 7976170 calls)
     interpolate  :      0.41s CPU      0.45s WALL (     278 calls)
 
     Parallel routines
     fft_scatt_xy :    123.31s CPU    127.31s WALL ( 7980437 calls)
     fft_scatt_yz :    680.02s CPU    705.31s WALL ( 7980437 calls)
 
     PWSCF        :     1h18m CPU       18h 1m WALL

      20h
 
   This run was terminated on:   4:24: 2  15Jun2020            

=------------------------------------------------------------------------------=
   JOB DONE.
=------------------------------------------------------------------------------=
