
     Program PWSCF v.6.3 starts on 25Mar2020 at  4:43:24 

     This program is part of the open-source Quantum ESPRESSO suite
     for quantum simulation of materials; please cite
         "P. Giannozzi et al., J. Phys.:Condens. Matter 21 395502 (2009);
         "P. Giannozzi et al., J. Phys.:Condens. Matter 29 465901 (2017);
          URL http://www.quantum-espresso.org", 
     in publications or presentations arising from this work. More details at
     http://www.quantum-espresso.org/quote

     Parallel version (MPI & OpenMP), running on      20 processor cores
     Number of MPI processes:                20
     Threads/MPI process:                     1

     MPI processes distributed on     1 nodes
     R & G space division:  proc/nbgrp/npool/nimage =      20
     Reading input from /rds/homes/b/bxp912/jobs/20200324_al_eos_e/wd/pwscf_ec/ec_1_2.in
Warning: card &IONS ignored
Warning: card ION_DYNAMICS = 'BFGS', ignored
Warning: card / ignored
Warning: card &CELL ignored
Warning: card CELL_DYNAMICS = 'BFGS', ignored
Warning: card CELL_FACTOR = 2.0, ignored
Warning: card PRESS = 0.0, ignored
Warning: card / ignored

     Current dimensions of program PWSCF are:
     Max number of different atomic species (ntypx) = 10
     Max number of k-points (npk) =  40000
     Max angular momentum in pseudopotentials (lmaxx) =  3
     Message from routine read_upf::
     Pseudo file /rds/homes/b/bxp912/pp/Al.pbe-nl-kjpaw_psl.1.0.0.UPF has been successfully fixed on the fly.
To avoid this message in the future you can permanently fix 
 your pseudo files following instructions given in: 
https://gitlab.com/QEF/q-e/blob/master/upftools/how_to_fix_upf.md
               file Al.pbe-nl-kjpaw_psl.1.0.0.UPF: wavefunction(s)  3S 3P renormalized

     Subspace diagonalization in iterative solution of the eigenvalue problem:
     a serial algorithm will be used

     Found symmetry operation: I + (  0.2500  0.2500  0.0000)
     This is a supercell, fractional translations are disabled
 
     Parallelization info
     --------------------
     sticks:   dense  smooth     PW     G-vecs:    dense   smooth      PW
     Min         185     185     51                 8507     8507    1231
     Max         186     186     52                 8512     8512    1234
     Sum        3709    3709   1033               170173   170173   24645
 


     bravais-lattice index     =            0
     lattice parameter (alat)  =      15.2652  a.u.
     unit-cell volume          =    3561.1179 (a.u.)^3
     number of atoms/cell      =           32
     number of atomic types    =            1
     number of electrons       =        96.00
     number of Kohn-Sham states=           58
     kinetic-energy cutoff     =      50.0000  Ry
     charge density cutoff     =     200.0000  Ry
     convergence threshold     =      1.0E-06
     mixing beta               =       0.1000
     number of iterations used =           10  plain     mixing
     Exchange-correlation      = SLA PW PBX PBC ( 1  4  3  4 0 0)

     celldm(1)=  15.265160  celldm(2)=   0.000000  celldm(3)=   0.000000
     celldm(4)=   0.000000  celldm(5)=   0.000000  celldm(6)=   0.000000

     crystal axes: (cart. coord. in units of alat)
               a(1) = (   1.001111   0.000000   0.000000 )  
               a(2) = (   0.000000   1.000000   0.000000 )  
               a(3) = (   0.000000   0.000000   1.000000 )  

     reciprocal axes: (cart. coord. in units 2 pi/alat)
               b(1) = (  0.998890  0.000000  0.000000 )  
               b(2) = (  0.000000  1.000000  0.000000 )  
               b(3) = (  0.000000  0.000000  1.000000 )  


     PseudoPot. # 1 for Al read from file:
     /rds/homes/b/bxp912/pp/Al.pbe-nl-kjpaw_psl.1.0.0.UPF
     MD5 check sum: 339dbea23cf3ab9a065ad45c0f9085d7
     Pseudo is Projector augmented-wave + core cor, Zval =  3.0
     Generated using "atomic" code by A. Dal Corso v.5.1
     Shape of augmentation charge: PSQ
     Using radial grid of 1135 points,  4 beta functions with: 
                l(1) =   0
                l(2) =   0
                l(3) =   1
                l(4) =   1
     Q(r) pseudized with 0 coefficients 


     atomic species   valence    mass     pseudopotential
        Al             3.00    26.98200     Al( 1.00)

     16 Sym. Ops., with inversion, found



   Cartesian axes

     site n.     atom                  positions (alat units)
         1           Al  tau(   1) = (   0.0000000   0.0000000   0.0000000  )
         2           Al  tau(   2) = (   0.2502778   0.2500000   0.0000000  )
         3           Al  tau(   3) = (   0.2502778   0.0000000   0.2500000  )
         4           Al  tau(   4) = (   0.0000000   0.2500000   0.2500000  )
         5           Al  tau(   5) = (   0.0000000   0.0000000   0.5000000  )
         6           Al  tau(   6) = (   0.2502778   0.2500000   0.5000000  )
         7           Al  tau(   7) = (   0.2502778   0.0000000   0.7500000  )
         8           Al  tau(   8) = (   0.0000000   0.2500000   0.7500000  )
         9           Al  tau(   9) = (   0.0000000   0.5000000   0.0000000  )
        10           Al  tau(  10) = (   0.2502778   0.7500000   0.0000000  )
        11           Al  tau(  11) = (   0.2502778   0.5000000   0.2500000  )
        12           Al  tau(  12) = (   0.0000000   0.7500000   0.2500000  )
        13           Al  tau(  13) = (   0.0000000   0.5000000   0.5000000  )
        14           Al  tau(  14) = (   0.2502778   0.7500000   0.5000000  )
        15           Al  tau(  15) = (   0.2502778   0.5000000   0.7500000  )
        16           Al  tau(  16) = (   0.0000000   0.7500000   0.7500000  )
        17           Al  tau(  17) = (   0.5005556   0.0000000   0.0000000  )
        18           Al  tau(  18) = (   0.7508333   0.2500000   0.0000000  )
        19           Al  tau(  19) = (   0.7508333   0.0000000   0.2500000  )
        20           Al  tau(  20) = (   0.5005556   0.2500000   0.2500000  )
        21           Al  tau(  21) = (   0.5005556   0.0000000   0.5000000  )
        22           Al  tau(  22) = (   0.7508333   0.2500000   0.5000000  )
        23           Al  tau(  23) = (   0.7508333   0.0000000   0.7500000  )
        24           Al  tau(  24) = (   0.5005556   0.2500000   0.7500000  )
        25           Al  tau(  25) = (   0.5005556   0.5000000   0.0000000  )
        26           Al  tau(  26) = (   0.7508333   0.7500000   0.0000000  )
        27           Al  tau(  27) = (   0.7508333   0.5000000   0.2500000  )
        28           Al  tau(  28) = (   0.5005556   0.7500000   0.2500000  )
        29           Al  tau(  29) = (   0.5005556   0.5000000   0.5000000  )
        30           Al  tau(  30) = (   0.7508333   0.7500000   0.5000000  )
        31           Al  tau(  31) = (   0.7508333   0.5000000   0.7500000  )
        32           Al  tau(  32) = (   0.5005556   0.7500000   0.7500000  )

     number of k points=   126  Marzari-Vanderbilt smearing, width (Ry)=  0.0400

     Number of k-points >= 100: set verbosity='high' to print them.

     Dense  grid:   170173 G-vectors     FFT dimensions: (  72,  72,  72)

     Estimated max dynamical RAM per process >     147.78 MB

     Estimated total dynamical RAM >       2.89 GB

     Initial potential from superposition of free atoms

     starting charge   95.92671, renormalised to   96.00000
     Starting wfcs are  128 randomized atomic wfcs
     Checking if some PAW data can be deallocated... 

     total cpu time spent up to now is       22.2 secs

     Self-consistent Calculation

     iteration #  1     ecut=    50.00 Ry     beta= 0.10
     Davidson diagonalization with overlap
     ethr =  1.00E-02,  avg # of iterations =  3.1

     Threshold (ethr) on eigenvalues was too large:
     Diagonalizing with lowered threshold

     Davidson diagonalization with overlap
     ethr =  1.91E-04,  avg # of iterations =  4.5

     total cpu time spent up to now is      100.9 secs

     total energy              =   -1264.12464075 Ry
     Harris-Foulkes estimate   =   -1264.13405158 Ry
     estimated scf accuracy    <       0.17941679 Ry

     iteration #  2     ecut=    50.00 Ry     beta= 0.10
     Davidson diagonalization with overlap
     ethr =  1.87E-04,  avg # of iterations =  1.1

     total cpu time spent up to now is      121.8 secs

     total energy              =   -1264.08397828 Ry
     Harris-Foulkes estimate   =   -1264.12541002 Ry
     estimated scf accuracy    <       0.14411258 Ry

     iteration #  3     ecut=    50.00 Ry     beta= 0.10
     Davidson diagonalization with overlap
     ethr =  1.50E-04,  avg # of iterations =  1.0

     total cpu time spent up to now is      142.8 secs

     total energy              =   -1264.08669928 Ry
     Harris-Foulkes estimate   =   -1264.08670605 Ry
     estimated scf accuracy    <       0.00024634 Ry

     iteration #  4     ecut=    50.00 Ry     beta= 0.10
     Davidson diagonalization with overlap
     c_bands:  1 eigenvalues not converged
     c_bands:  2 eigenvalues not converged
     c_bands:  1 eigenvalues not converged
     c_bands:  1 eigenvalues not converged
     c_bands:  2 eigenvalues not converged
     c_bands:  1 eigenvalues not converged
     c_bands:  1 eigenvalues not converged
     c_bands:  1 eigenvalues not converged
     c_bands:  2 eigenvalues not converged
     c_bands:  1 eigenvalues not converged
     c_bands:  2 eigenvalues not converged
     ethr =  2.57E-07,  avg # of iterations =  7.5

     total cpu time spent up to now is      193.1 secs

     total energy              =   -1264.08765615 Ry
     Harris-Foulkes estimate   =   -1264.08755745 Ry
     estimated scf accuracy    <       0.00021369 Ry

     iteration #  5     ecut=    50.00 Ry     beta= 0.10
     Davidson diagonalization with overlap
     c_bands:  1 eigenvalues not converged
     ethr =  2.23E-07,  avg # of iterations =  1.7

     total cpu time spent up to now is      214.8 secs

     total energy              =   -1264.08747500 Ry
     Harris-Foulkes estimate   =   -1264.08765860 Ry
     estimated scf accuracy    <       0.00042900 Ry

     iteration #  6     ecut=    50.00 Ry     beta= 0.10
     Davidson diagonalization with overlap
     ethr =  2.23E-07,  avg # of iterations =  1.0

     total cpu time spent up to now is      235.8 secs

     total energy              =   -1264.08747793 Ry
     Harris-Foulkes estimate   =   -1264.08748648 Ry
     estimated scf accuracy    <       0.00001752 Ry

     iteration #  7     ecut=    50.00 Ry     beta= 0.10
     Davidson diagonalization with overlap
     c_bands:  1 eigenvalues not converged
     ethr =  1.83E-08,  avg # of iterations =  3.9

     total cpu time spent up to now is      270.5 secs

     total energy              =   -1264.08748305 Ry
     Harris-Foulkes estimate   =   -1264.08748278 Ry
     estimated scf accuracy    <       0.00000304 Ry

     iteration #  8     ecut=    50.00 Ry     beta= 0.10
     Davidson diagonalization with overlap
     c_bands:  1 eigenvalues not converged
     ethr =  3.17E-09,  avg # of iterations =  2.6

     total cpu time spent up to now is      296.2 secs

     total energy              =   -1264.08748284 Ry
     Harris-Foulkes estimate   =   -1264.08748338 Ry
     estimated scf accuracy    <       0.00000752 Ry

     iteration #  9     ecut=    50.00 Ry     beta= 0.10
     Davidson diagonalization with overlap
     c_bands:  1 eigenvalues not converged
     ethr =  3.17E-09,  avg # of iterations =  1.2

     total cpu time spent up to now is      317.9 secs

     total energy              =   -1264.08748155 Ry
     Harris-Foulkes estimate   =   -1264.08748292 Ry
     estimated scf accuracy    <       0.00000538 Ry

     iteration # 10     ecut=    50.00 Ry     beta= 0.10
     Davidson diagonalization with overlap
     ethr =  3.17E-09,  avg # of iterations =  3.4

     total cpu time spent up to now is      346.9 secs

     End of self-consistent calculation

     Number of k-points >= 100: set verbosity='high' to print the bands.

     the Fermi energy is     7.9170 ev

!    total energy              =   -1264.08748226 Ry
     Harris-Foulkes estimate   =   -1264.08748225 Ry
     estimated scf accuracy    <       0.00000004 Ry

     total all-electron energy =    -15540.656504 Ry

     The total energy is the sum of the following terms:

     one-electron contribution =     101.24965848 Ry
     hartree contribution      =       0.19668071 Ry
     xc contribution           =     -82.91544179 Ry
     ewald contribution        =    -172.93648798 Ry
     one-center paw contrib.   =   -1109.67913067 Ry
     smearing contrib. (-TS)   =      -0.00276100 Ry

     convergence has been achieved in  10 iterations

     Forces acting on atoms (cartesian axes, Ry/au):

     atom    1 type  1   force =     0.00000000    0.00000000    0.00000000
     atom    2 type  1   force =     0.00000204   -0.00000426   -0.00000000
     atom    3 type  1   force =     0.00000204   -0.00000000   -0.00000426
     atom    4 type  1   force =     0.00000000    0.00000311    0.00000311
     atom    5 type  1   force =     0.00000000    0.00000000    0.00000000
     atom    6 type  1   force =    -0.00000359    0.00000364    0.00000000
     atom    7 type  1   force =     0.00000204    0.00000000    0.00000426
     atom    8 type  1   force =     0.00000000    0.00000311   -0.00000311
     atom    9 type  1   force =     0.00000000    0.00000000    0.00000000
     atom   10 type  1   force =     0.00000204    0.00000426   -0.00000000
     atom   11 type  1   force =    -0.00000359   -0.00000000    0.00000364
     atom   12 type  1   force =     0.00000000   -0.00000311    0.00000311
     atom   13 type  1   force =     0.00000000    0.00000000    0.00000000
     atom   14 type  1   force =    -0.00000359   -0.00000364   -0.00000000
     atom   15 type  1   force =    -0.00000359    0.00000000   -0.00000364
     atom   16 type  1   force =     0.00000000   -0.00000311   -0.00000311
     atom   17 type  1   force =     0.00000000    0.00000000    0.00000000
     atom   18 type  1   force =    -0.00000204   -0.00000426   -0.00000000
     atom   19 type  1   force =    -0.00000204    0.00000000   -0.00000426
     atom   20 type  1   force =     0.00000000   -0.00000263   -0.00000263
     atom   21 type  1   force =     0.00000000    0.00000000    0.00000000
     atom   22 type  1   force =     0.00000359    0.00000364    0.00000000
     atom   23 type  1   force =    -0.00000204   -0.00000000    0.00000426
     atom   24 type  1   force =     0.00000000   -0.00000263    0.00000263
     atom   25 type  1   force =     0.00000000    0.00000000    0.00000000
     atom   26 type  1   force =    -0.00000204    0.00000426    0.00000000
     atom   27 type  1   force =     0.00000359    0.00000000    0.00000364
     atom   28 type  1   force =     0.00000000    0.00000263   -0.00000263
     atom   29 type  1   force =     0.00000000    0.00000000    0.00000000
     atom   30 type  1   force =     0.00000359   -0.00000364    0.00000000
     atom   31 type  1   force =     0.00000359   -0.00000000   -0.00000364
     atom   32 type  1   force =     0.00000000    0.00000263    0.00000263

     Total force =     0.000023     Total SCF correction =     0.000181
     SCF correction compared to forces is large: reduce conv_thr to get better values


     Computing stress (Cartesian axis) and pressure

          total   stress  (Ry/bohr**3)                   (kbar)     P=   -0.80
  -0.00000810   0.00000000   0.00000000         -1.19      0.00      0.00
   0.00000000  -0.00000412   0.00000000          0.00     -0.61      0.00
   0.00000000   0.00000000  -0.00000412          0.00      0.00     -0.61


     Writing output data file aepgLlxprofyTCVc.save/
 
     init_run     :     20.78s CPU     21.31s WALL (       1 calls)
     electrons    :    316.91s CPU    324.77s WALL (       1 calls)
     forces       :      3.79s CPU      3.93s WALL (       1 calls)
     stress       :     24.17s CPU     24.22s WALL (       1 calls)

     Called by init_run:
     wfcinit      :     20.46s CPU     20.94s WALL (       1 calls)
     potinit      :      0.11s CPU      0.12s WALL (       1 calls)
     hinit0       :      0.09s CPU      0.10s WALL (       1 calls)

     Called by electrons:
     c_bands      :    278.15s CPU    284.71s WALL (      11 calls)
     sum_band     :     37.85s CPU     39.06s WALL (      11 calls)
     v_of_rho     :      0.14s CPU      0.15s WALL (      11 calls)
     newd         :      0.10s CPU      0.15s WALL (      11 calls)
     PAW_pot      :      0.69s CPU      0.70s WALL (      11 calls)
     mix_rho      :      0.04s CPU      0.05s WALL (      11 calls)

     Called by c_bands:
     init_us_2    :      6.61s CPU      6.75s WALL (    3150 calls)
     cegterg      :    262.30s CPU    268.54s WALL (    1386 calls)

     Called by sum_band:
     sum_band:bec :      0.17s CPU      0.17s WALL (    1386 calls)
     addusdens    :      0.08s CPU      0.12s WALL (      11 calls)

     Called by *egterg:
     h_psi        :    193.90s CPU    199.09s WALL (    5408 calls)
     s_psi        :     18.35s CPU     18.50s WALL (    5408 calls)
     g_psi        :      1.03s CPU      1.05s WALL (    3896 calls)
     cdiaghg      :     30.92s CPU     31.23s WALL (    5156 calls)

     Called by h_psi:
     h_psi:pot    :    193.03s CPU    198.20s WALL (    5408 calls)
     h_psi:calbec :     19.48s CPU     20.60s WALL (    5408 calls)
     vloc_psi     :    155.39s CPU    159.30s WALL (    5408 calls)
     add_vuspsi   :     18.11s CPU     18.26s WALL (    5408 calls)

     General routines
     calbec       :     28.78s CPU     30.45s WALL (    7424 calls)
     fft          :      0.13s CPU      0.16s WALL (     148 calls)
     ffts         :      0.01s CPU      0.01s WALL (      11 calls)
     fftw         :    168.31s CPU    172.49s WALL (  527820 calls)
 
     Parallel routines
     fft_scatt_xy :     17.14s CPU     17.56s WALL (  527979 calls)
     fft_scatt_yz :     81.32s CPU     83.49s WALL (  527979 calls)
 
     PWSCF        :  6m 8.69s CPU     6m26.87s WALL

 
   This run was terminated on:   4:49:51  25Mar2020            

=------------------------------------------------------------------------------=
   JOB DONE.
=------------------------------------------------------------------------------=
