
     Program PWSCF v.6.3 starts on 25Mar2020 at  4:56:12 

     This program is part of the open-source Quantum ESPRESSO suite
     for quantum simulation of materials; please cite
         "P. Giannozzi et al., J. Phys.:Condens. Matter 21 395502 (2009);
         "P. Giannozzi et al., J. Phys.:Condens. Matter 29 465901 (2017);
          URL http://www.quantum-espresso.org", 
     in publications or presentations arising from this work. More details at
     http://www.quantum-espresso.org/quote

     Parallel version (MPI & OpenMP), running on      20 processor cores
     Number of MPI processes:                20
     Threads/MPI process:                     1

     MPI processes distributed on     1 nodes
     R & G space division:  proc/nbgrp/npool/nimage =      20
     Reading input from /rds/homes/b/bxp912/jobs/20200324_al_eos_e/wd/pwscf_ec/ec_1_4.in
Warning: card &IONS ignored
Warning: card ION_DYNAMICS = 'BFGS', ignored
Warning: card / ignored
Warning: card &CELL ignored
Warning: card CELL_DYNAMICS = 'BFGS', ignored
Warning: card CELL_FACTOR = 2.0, ignored
Warning: card PRESS = 0.0, ignored
Warning: card / ignored

     Current dimensions of program PWSCF are:
     Max number of different atomic species (ntypx) = 10
     Max number of k-points (npk) =  40000
     Max angular momentum in pseudopotentials (lmaxx) =  3
     Message from routine read_upf::
     Pseudo file /rds/homes/b/bxp912/pp/Al.pbe-nl-kjpaw_psl.1.0.0.UPF has been successfully fixed on the fly.
To avoid this message in the future you can permanently fix 
 your pseudo files following instructions given in: 
https://gitlab.com/QEF/q-e/blob/master/upftools/how_to_fix_upf.md
               file Al.pbe-nl-kjpaw_psl.1.0.0.UPF: wavefunction(s)  3S 3P renormalized

     Subspace diagonalization in iterative solution of the eigenvalue problem:
     a serial algorithm will be used

     Found symmetry operation: I + (  0.2500  0.2500  0.0000)
     This is a supercell, fractional translations are disabled
 
     Parallelization info
     --------------------
     sticks:   dense  smooth     PW     G-vecs:    dense   smooth      PW
     Min         185     185     51                 8515     8515    1235
     Max         186     186     53                 8522     8522    1236
     Sum        3709    3709   1033               170365   170365   24709
 


     bravais-lattice index     =            0
     lattice parameter (alat)  =      15.2652  a.u.
     unit-cell volume          =    3565.0703 (a.u.)^3
     number of atoms/cell      =           32
     number of atomic types    =            1
     number of electrons       =        96.00
     number of Kohn-Sham states=           58
     kinetic-energy cutoff     =      50.0000  Ry
     charge density cutoff     =     200.0000  Ry
     convergence threshold     =      1.0E-06
     mixing beta               =       0.1000
     number of iterations used =           10  plain     mixing
     Exchange-correlation      = SLA PW PBX PBC ( 1  4  3  4 0 0)

     celldm(1)=  15.265160  celldm(2)=   0.000000  celldm(3)=   0.000000
     celldm(4)=   0.000000  celldm(5)=   0.000000  celldm(6)=   0.000000

     crystal axes: (cart. coord. in units of alat)
               a(1) = (   1.002222   0.000000   0.000000 )  
               a(2) = (   0.000000   1.000000   0.000000 )  
               a(3) = (   0.000000   0.000000   1.000000 )  

     reciprocal axes: (cart. coord. in units 2 pi/alat)
               b(1) = (  0.997783  0.000000  0.000000 )  
               b(2) = (  0.000000  1.000000  0.000000 )  
               b(3) = (  0.000000  0.000000  1.000000 )  


     PseudoPot. # 1 for Al read from file:
     /rds/homes/b/bxp912/pp/Al.pbe-nl-kjpaw_psl.1.0.0.UPF
     MD5 check sum: 339dbea23cf3ab9a065ad45c0f9085d7
     Pseudo is Projector augmented-wave + core cor, Zval =  3.0
     Generated using "atomic" code by A. Dal Corso v.5.1
     Shape of augmentation charge: PSQ
     Using radial grid of 1135 points,  4 beta functions with: 
                l(1) =   0
                l(2) =   0
                l(3) =   1
                l(4) =   1
     Q(r) pseudized with 0 coefficients 


     atomic species   valence    mass     pseudopotential
        Al             3.00    26.98200     Al( 1.00)

     16 Sym. Ops., with inversion, found



   Cartesian axes

     site n.     atom                  positions (alat units)
         1           Al  tau(   1) = (   0.0000000   0.0000000   0.0000000  )
         2           Al  tau(   2) = (   0.2505556   0.2500000   0.0000000  )
         3           Al  tau(   3) = (   0.2505556   0.0000000   0.2500000  )
         4           Al  tau(   4) = (   0.0000000   0.2500000   0.2500000  )
         5           Al  tau(   5) = (   0.0000000   0.0000000   0.5000000  )
         6           Al  tau(   6) = (   0.2505556   0.2500000   0.5000000  )
         7           Al  tau(   7) = (   0.2505556   0.0000000   0.7500000  )
         8           Al  tau(   8) = (   0.0000000   0.2500000   0.7500000  )
         9           Al  tau(   9) = (   0.0000000   0.5000000   0.0000000  )
        10           Al  tau(  10) = (   0.2505556   0.7500000   0.0000000  )
        11           Al  tau(  11) = (   0.2505556   0.5000000   0.2500000  )
        12           Al  tau(  12) = (   0.0000000   0.7500000   0.2500000  )
        13           Al  tau(  13) = (   0.0000000   0.5000000   0.5000000  )
        14           Al  tau(  14) = (   0.2505556   0.7500000   0.5000000  )
        15           Al  tau(  15) = (   0.2505556   0.5000000   0.7500000  )
        16           Al  tau(  16) = (   0.0000000   0.7500000   0.7500000  )
        17           Al  tau(  17) = (   0.5011111   0.0000000   0.0000000  )
        18           Al  tau(  18) = (   0.7516667   0.2500000   0.0000000  )
        19           Al  tau(  19) = (   0.7516667   0.0000000   0.2500000  )
        20           Al  tau(  20) = (   0.5011111   0.2500000   0.2500000  )
        21           Al  tau(  21) = (   0.5011111   0.0000000   0.5000000  )
        22           Al  tau(  22) = (   0.7516667   0.2500000   0.5000000  )
        23           Al  tau(  23) = (   0.7516667   0.0000000   0.7500000  )
        24           Al  tau(  24) = (   0.5011111   0.2500000   0.7500000  )
        25           Al  tau(  25) = (   0.5011111   0.5000000   0.0000000  )
        26           Al  tau(  26) = (   0.7516667   0.7500000   0.0000000  )
        27           Al  tau(  27) = (   0.7516667   0.5000000   0.2500000  )
        28           Al  tau(  28) = (   0.5011111   0.7500000   0.2500000  )
        29           Al  tau(  29) = (   0.5011111   0.5000000   0.5000000  )
        30           Al  tau(  30) = (   0.7516667   0.7500000   0.5000000  )
        31           Al  tau(  31) = (   0.7516667   0.5000000   0.7500000  )
        32           Al  tau(  32) = (   0.5011111   0.7500000   0.7500000  )

     number of k points=   126  Marzari-Vanderbilt smearing, width (Ry)=  0.0400

     Number of k-points >= 100: set verbosity='high' to print them.

     Dense  grid:   170365 G-vectors     FFT dimensions: (  72,  72,  72)

     Estimated max dynamical RAM per process >     147.91 MB

     Estimated total dynamical RAM >       2.89 GB

     Initial potential from superposition of free atoms

     starting charge   95.92671, renormalised to   96.00000
     Starting wfcs are  128 randomized atomic wfcs
     Checking if some PAW data can be deallocated... 

     total cpu time spent up to now is       19.2 secs

     Self-consistent Calculation

     iteration #  1     ecut=    50.00 Ry     beta= 0.10
     Davidson diagonalization with overlap
     ethr =  1.00E-02,  avg # of iterations =  3.1

     Threshold (ethr) on eigenvalues was too large:
     Diagonalizing with lowered threshold

     Davidson diagonalization with overlap
     ethr =  1.91E-04,  avg # of iterations =  4.6

     total cpu time spent up to now is       87.2 secs

     total energy              =   -1264.12458162 Ry
     Harris-Foulkes estimate   =   -1264.13399373 Ry
     estimated scf accuracy    <       0.17943905 Ry

     iteration #  2     ecut=    50.00 Ry     beta= 0.10
     Davidson diagonalization with overlap
     ethr =  1.87E-04,  avg # of iterations =  1.0

     total cpu time spent up to now is      109.5 secs

     total energy              =   -1264.08392952 Ry
     Harris-Foulkes estimate   =   -1264.12535696 Ry
     estimated scf accuracy    <       0.14411134 Ry

     iteration #  3     ecut=    50.00 Ry     beta= 0.10
     Davidson diagonalization with overlap
     ethr =  1.50E-04,  avg # of iterations =  1.0

     total cpu time spent up to now is      137.1 secs

     total energy              =   -1264.08664990 Ry
     Harris-Foulkes estimate   =   -1264.08665475 Ry
     estimated scf accuracy    <       0.00024601 Ry

     iteration #  4     ecut=    50.00 Ry     beta= 0.10
     Davidson diagonalization with overlap
     c_bands:  1 eigenvalues not converged
     c_bands:  1 eigenvalues not converged
     c_bands:  1 eigenvalues not converged
     c_bands:  1 eigenvalues not converged
     c_bands:  1 eigenvalues not converged
     c_bands:  1 eigenvalues not converged
     c_bands:  1 eigenvalues not converged
     c_bands:  1 eigenvalues not converged
     c_bands:  2 eigenvalues not converged
     ethr =  2.56E-07,  avg # of iterations =  7.5

     total cpu time spent up to now is      194.3 secs

     total energy              =   -1264.08762683 Ry
     Harris-Foulkes estimate   =   -1264.08751000 Ry
     estimated scf accuracy    <       0.00021591 Ry

     iteration #  5     ecut=    50.00 Ry     beta= 0.10
     Davidson diagonalization with overlap
     ethr =  2.25E-07,  avg # of iterations =  1.6

     total cpu time spent up to now is      221.5 secs

     total energy              =   -1264.08743208 Ry
     Harris-Foulkes estimate   =   -1264.08762982 Ry
     estimated scf accuracy    <       0.00047307 Ry

     iteration #  6     ecut=    50.00 Ry     beta= 0.10
     Davidson diagonalization with overlap
     ethr =  2.25E-07,  avg # of iterations =  1.0

     total cpu time spent up to now is      242.5 secs

     total energy              =   -1264.08742828 Ry
     Harris-Foulkes estimate   =   -1264.08744288 Ry
     estimated scf accuracy    <       0.00003003 Ry

     iteration #  7     ecut=    50.00 Ry     beta= 0.10
     Davidson diagonalization with overlap
     c_bands:  4 eigenvalues not converged
     ethr =  3.13E-08,  avg # of iterations =  3.5

     total cpu time spent up to now is      275.3 secs

     total energy              =   -1264.08743406 Ry
     Harris-Foulkes estimate   =   -1264.08743383 Ry
     estimated scf accuracy    <       0.00000275 Ry

     iteration #  8     ecut=    50.00 Ry     beta= 0.10
     Davidson diagonalization with overlap
     c_bands:  1 eigenvalues not converged
     ethr =  2.86E-09,  avg # of iterations =  4.5

     total cpu time spent up to now is      306.4 secs

     total energy              =   -1264.08743518 Ry
     Harris-Foulkes estimate   =   -1264.08743555 Ry
     estimated scf accuracy    <       0.00000794 Ry

     iteration #  9     ecut=    50.00 Ry     beta= 0.10
     Davidson diagonalization with overlap
     ethr =  2.86E-09,  avg # of iterations =  1.0

     total cpu time spent up to now is      327.2 secs

     total energy              =   -1264.08743372 Ry
     Harris-Foulkes estimate   =   -1264.08743524 Ry
     estimated scf accuracy    <       0.00000648 Ry

     iteration # 10     ecut=    50.00 Ry     beta= 0.10
     Davidson diagonalization with overlap
     ethr =  2.86E-09,  avg # of iterations =  3.3

     total cpu time spent up to now is      355.9 secs

     End of self-consistent calculation

     Number of k-points >= 100: set verbosity='high' to print the bands.

     the Fermi energy is     7.9055 ev

!    total energy              =   -1264.08743439 Ry
     Harris-Foulkes estimate   =   -1264.08743440 Ry
     estimated scf accuracy    <       0.00000007 Ry

     total all-electron energy =    -15540.656456 Ry

     The total energy is the sum of the following terms:

     one-electron contribution =     101.16400606 Ry
     hartree contribution      =       0.19648080 Ry
     xc contribution           =     -82.89650517 Ry
     ewald contribution        =    -172.87254584 Ry
     one-center paw contrib.   =   -1109.67609050 Ry
     smearing contrib. (-TS)   =      -0.00277974 Ry

     convergence has been achieved in  10 iterations

     Forces acting on atoms (cartesian axes, Ry/au):

     atom    1 type  1   force =     0.00000000    0.00000000   -0.00000000
     atom    2 type  1   force =    -0.00000461    0.00000331   -0.00000000
     atom    3 type  1   force =    -0.00000461    0.00000000    0.00000331
     atom    4 type  1   force =     0.00000000    0.00000759    0.00000759
     atom    5 type  1   force =     0.00000000    0.00000000    0.00000000
     atom    6 type  1   force =    -0.00000902    0.00000547    0.00000000
     atom    7 type  1   force =    -0.00000461   -0.00000000   -0.00000331
     atom    8 type  1   force =     0.00000000    0.00000759   -0.00000759
     atom    9 type  1   force =     0.00000000    0.00000000   -0.00000000
     atom   10 type  1   force =    -0.00000461   -0.00000331    0.00000000
     atom   11 type  1   force =    -0.00000902    0.00000000    0.00000547
     atom   12 type  1   force =    -0.00000000   -0.00000759    0.00000759
     atom   13 type  1   force =     0.00000000    0.00000000    0.00000000
     atom   14 type  1   force =    -0.00000902   -0.00000547   -0.00000000
     atom   15 type  1   force =    -0.00000902    0.00000000   -0.00000547
     atom   16 type  1   force =     0.00000000   -0.00000759   -0.00000759
     atom   17 type  1   force =     0.00000000    0.00000000    0.00000000
     atom   18 type  1   force =     0.00000461    0.00000331    0.00000000
     atom   19 type  1   force =     0.00000461    0.00000000    0.00000331
     atom   20 type  1   force =     0.00000000    0.00000304    0.00000304
     atom   21 type  1   force =     0.00000000    0.00000000    0.00000000
     atom   22 type  1   force =     0.00000902    0.00000547    0.00000000
     atom   23 type  1   force =     0.00000461    0.00000000   -0.00000331
     atom   24 type  1   force =    -0.00000000    0.00000304   -0.00000304
     atom   25 type  1   force =     0.00000000    0.00000000    0.00000000
     atom   26 type  1   force =     0.00000461   -0.00000331    0.00000000
     atom   27 type  1   force =     0.00000902    0.00000000    0.00000547
     atom   28 type  1   force =    -0.00000000   -0.00000304    0.00000304
     atom   29 type  1   force =     0.00000000    0.00000000    0.00000000
     atom   30 type  1   force =     0.00000902   -0.00000547    0.00000000
     atom   31 type  1   force =     0.00000902   -0.00000000   -0.00000547
     atom   32 type  1   force =     0.00000000   -0.00000304   -0.00000304

     Total force =     0.000041     Total SCF correction =     0.000251
     SCF correction compared to forces is large: reduce conv_thr to get better values


     Computing stress (Cartesian axis) and pressure

          total   stress  (Ry/bohr**3)                   (kbar)     P=   -1.66
  -0.00001661   0.00000000   0.00000000         -2.44      0.00      0.00
   0.00000000  -0.00000865   0.00000000          0.00     -1.27      0.00
   0.00000000   0.00000000  -0.00000865          0.00      0.00     -1.27


     Writing output data file mTlvbMuSJjmfOwvI.save/
 
     init_run     :     18.22s CPU     18.67s WALL (       1 calls)
     electrons    :    329.70s CPU    336.71s WALL (       1 calls)
     forces       :      3.80s CPU      3.93s WALL (       1 calls)
     stress       :     23.97s CPU     24.07s WALL (       1 calls)

     Called by init_run:
     wfcinit      :     17.89s CPU     18.28s WALL (       1 calls)
     potinit      :      0.11s CPU      0.12s WALL (       1 calls)
     hinit0       :      0.09s CPU      0.13s WALL (       1 calls)

     Called by electrons:
     c_bands      :    287.41s CPU    293.19s WALL (      11 calls)
     sum_band     :     41.38s CPU     42.52s WALL (      11 calls)
     v_of_rho     :      0.14s CPU      0.15s WALL (      11 calls)
     newd         :      0.09s CPU      0.15s WALL (      11 calls)
     PAW_pot      :      0.70s CPU      0.71s WALL (      11 calls)
     mix_rho      :      0.03s CPU      0.04s WALL (      11 calls)

     Called by c_bands:
     init_us_2    :      6.48s CPU      6.59s WALL (    3150 calls)
     cegterg      :    271.26s CPU    276.77s WALL (    1386 calls)

     Called by sum_band:
     sum_band:bec :      0.17s CPU      0.17s WALL (    1386 calls)
     addusdens    :      0.09s CPU      0.13s WALL (      11 calls)

     Called by *egterg:
     h_psi        :    198.21s CPU    203.03s WALL (    5569 calls)
     s_psi        :     18.70s CPU     18.80s WALL (    5569 calls)
     g_psi        :      1.04s CPU      1.05s WALL (    4057 calls)
     cdiaghg      :     32.23s CPU     32.37s WALL (    5317 calls)

     Called by h_psi:
     h_psi:pot    :    197.31s CPU    202.12s WALL (    5569 calls)
     h_psi:calbec :     20.00s CPU     21.03s WALL (    5569 calls)
     vloc_psi     :    158.77s CPU    162.42s WALL (    5569 calls)
     add_vuspsi   :     18.50s CPU     18.63s WALL (    5569 calls)

     General routines
     calbec       :     29.76s CPU     31.32s WALL (    7585 calls)
     fft          :      0.14s CPU      0.19s WALL (     148 calls)
     ffts         :      0.01s CPU      0.01s WALL (      11 calls)
     fftw         :    174.90s CPU    178.80s WALL (  529018 calls)
 
     Parallel routines
     fft_scatt_xy :     17.15s CPU     17.53s WALL (  529177 calls)
     fft_scatt_yz :     87.76s CPU     89.83s WALL (  529177 calls)
 
     PWSCF        :  6m18.64s CPU     6m35.31s WALL

 
   This run was terminated on:   5: 2:48  25Mar2020            

=------------------------------------------------------------------------------=
   JOB DONE.
=------------------------------------------------------------------------------=
