
     Program PWSCF v.6.3 starts on 25Mar2020 at  6: 6:10 

     This program is part of the open-source Quantum ESPRESSO suite
     for quantum simulation of materials; please cite
         "P. Giannozzi et al., J. Phys.:Condens. Matter 21 395502 (2009);
         "P. Giannozzi et al., J. Phys.:Condens. Matter 29 465901 (2017);
          URL http://www.quantum-espresso.org", 
     in publications or presentations arising from this work. More details at
     http://www.quantum-espresso.org/quote

     Parallel version (MPI & OpenMP), running on      20 processor cores
     Number of MPI processes:                20
     Threads/MPI process:                     1

     MPI processes distributed on     1 nodes
     R & G space division:  proc/nbgrp/npool/nimage =      20
     Reading input from /rds/homes/b/bxp912/jobs/20200324_al_eos_e/wd/pwscf_ec/ec_2_7.in
Warning: card &IONS ignored
Warning: card ION_DYNAMICS = 'BFGS', ignored
Warning: card / ignored
Warning: card &CELL ignored
Warning: card CELL_DYNAMICS = 'BFGS', ignored
Warning: card CELL_FACTOR = 2.0, ignored
Warning: card PRESS = 0.0, ignored
Warning: card / ignored

     Current dimensions of program PWSCF are:
     Max number of different atomic species (ntypx) = 10
     Max number of k-points (npk) =  40000
     Max angular momentum in pseudopotentials (lmaxx) =  3
     Message from routine read_upf::
     Pseudo file /rds/homes/b/bxp912/pp/Al.pbe-nl-kjpaw_psl.1.0.0.UPF has been successfully fixed on the fly.
To avoid this message in the future you can permanently fix 
 your pseudo files following instructions given in: 
https://gitlab.com/QEF/q-e/blob/master/upftools/how_to_fix_upf.md
               file Al.pbe-nl-kjpaw_psl.1.0.0.UPF: wavefunction(s)  3S 3P renormalized

     Subspace diagonalization in iterative solution of the eigenvalue problem:
     a serial algorithm will be used

     Found symmetry operation: I + (  0.2500  0.2500  0.0000)
     This is a supercell, fractional translations are disabled
 
     Parallelization info
     --------------------
     sticks:   dense  smooth     PW     G-vecs:    dense   smooth      PW
     Min         185     185     51                 8527     8527    1236
     Max         186     186     52                 8532     8532    1238
     Sum        3717    3717   1037               170597   170597   24733
 


     bravais-lattice index     =            0
     lattice parameter (alat)  =      15.2652  a.u.
     unit-cell volume          =    3570.9989 (a.u.)^3
     number of atoms/cell      =           32
     number of atomic types    =            1
     number of electrons       =        96.00
     number of Kohn-Sham states=           58
     kinetic-energy cutoff     =      50.0000  Ry
     charge density cutoff     =     200.0000  Ry
     convergence threshold     =      1.0E-06
     mixing beta               =       0.1000
     number of iterations used =           10  plain     mixing
     Exchange-correlation      = SLA PW PBX PBC ( 1  4  3  4 0 0)

     celldm(1)=  15.265160  celldm(2)=   0.000000  celldm(3)=   0.000000
     celldm(4)=   0.000000  celldm(5)=   0.000000  celldm(6)=   0.000000

     crystal axes: (cart. coord. in units of alat)
               a(1) = (   1.000000   0.000000   0.000000 )  
               a(2) = (   0.000000   1.003889   0.000000 )  
               a(3) = (   0.000000   0.000000   1.000000 )  

     reciprocal axes: (cart. coord. in units 2 pi/alat)
               b(1) = (  1.000000  0.000000  0.000000 )  
               b(2) = (  0.000000  0.996126  0.000000 )  
               b(3) = (  0.000000  0.000000  1.000000 )  


     PseudoPot. # 1 for Al read from file:
     /rds/homes/b/bxp912/pp/Al.pbe-nl-kjpaw_psl.1.0.0.UPF
     MD5 check sum: 339dbea23cf3ab9a065ad45c0f9085d7
     Pseudo is Projector augmented-wave + core cor, Zval =  3.0
     Generated using "atomic" code by A. Dal Corso v.5.1
     Shape of augmentation charge: PSQ
     Using radial grid of 1135 points,  4 beta functions with: 
                l(1) =   0
                l(2) =   0
                l(3) =   1
                l(4) =   1
     Q(r) pseudized with 0 coefficients 


     atomic species   valence    mass     pseudopotential
        Al             3.00    26.98200     Al( 1.00)

     16 Sym. Ops., with inversion, found



   Cartesian axes

     site n.     atom                  positions (alat units)
         1           Al  tau(   1) = (   0.0000000   0.0000000   0.0000000  )
         2           Al  tau(   2) = (   0.2500000   0.2509722   0.0000000  )
         3           Al  tau(   3) = (   0.2500000   0.0000000   0.2500000  )
         4           Al  tau(   4) = (   0.0000000   0.2509722   0.2500000  )
         5           Al  tau(   5) = (   0.0000000   0.0000000   0.5000000  )
         6           Al  tau(   6) = (   0.2500000   0.2509722   0.5000000  )
         7           Al  tau(   7) = (   0.2500000   0.0000000   0.7500000  )
         8           Al  tau(   8) = (   0.0000000   0.2509722   0.7500000  )
         9           Al  tau(   9) = (   0.0000000   0.5019444   0.0000000  )
        10           Al  tau(  10) = (   0.2500000   0.7529167   0.0000000  )
        11           Al  tau(  11) = (   0.2500000   0.5019444   0.2500000  )
        12           Al  tau(  12) = (   0.0000000   0.7529167   0.2500000  )
        13           Al  tau(  13) = (   0.0000000   0.5019444   0.5000000  )
        14           Al  tau(  14) = (   0.2500000   0.7529167   0.5000000  )
        15           Al  tau(  15) = (   0.2500000   0.5019444   0.7500000  )
        16           Al  tau(  16) = (   0.0000000   0.7529167   0.7500000  )
        17           Al  tau(  17) = (   0.5000000   0.0000000   0.0000000  )
        18           Al  tau(  18) = (   0.7500000   0.2509722   0.0000000  )
        19           Al  tau(  19) = (   0.7500000   0.0000000   0.2500000  )
        20           Al  tau(  20) = (   0.5000000   0.2509722   0.2500000  )
        21           Al  tau(  21) = (   0.5000000   0.0000000   0.5000000  )
        22           Al  tau(  22) = (   0.7500000   0.2509722   0.5000000  )
        23           Al  tau(  23) = (   0.7500000   0.0000000   0.7500000  )
        24           Al  tau(  24) = (   0.5000000   0.2509722   0.7500000  )
        25           Al  tau(  25) = (   0.5000000   0.5019444   0.0000000  )
        26           Al  tau(  26) = (   0.7500000   0.7529167   0.0000000  )
        27           Al  tau(  27) = (   0.7500000   0.5019444   0.2500000  )
        28           Al  tau(  28) = (   0.5000000   0.7529167   0.2500000  )
        29           Al  tau(  29) = (   0.5000000   0.5019444   0.5000000  )
        30           Al  tau(  30) = (   0.7500000   0.7529167   0.5000000  )
        31           Al  tau(  31) = (   0.7500000   0.5019444   0.7500000  )
        32           Al  tau(  32) = (   0.5000000   0.7529167   0.7500000  )

     number of k points=   126  Marzari-Vanderbilt smearing, width (Ry)=  0.0400

     Number of k-points >= 100: set verbosity='high' to print them.

     Dense  grid:   170597 G-vectors     FFT dimensions: (  72,  72,  72)

     Estimated max dynamical RAM per process >     148.18 MB

     Estimated total dynamical RAM >       2.89 GB

     Initial potential from superposition of free atoms

     starting charge   95.92671, renormalised to   96.00000
     Starting wfcs are  128 randomized atomic wfcs
     Checking if some PAW data can be deallocated... 

     total cpu time spent up to now is       19.3 secs

     Self-consistent Calculation

     iteration #  1     ecut=    50.00 Ry     beta= 0.10
     Davidson diagonalization with overlap
     ethr =  1.00E-02,  avg # of iterations =  3.1

     Threshold (ethr) on eigenvalues was too large:
     Diagonalizing with lowered threshold

     Davidson diagonalization with overlap
     ethr =  1.91E-04,  avg # of iterations =  4.6

     total cpu time spent up to now is       88.1 secs

     total energy              =   -1264.12458870 Ry
     Harris-Foulkes estimate   =   -1264.13404452 Ry
     estimated scf accuracy    <       0.17944156 Ry

     iteration #  2     ecut=    50.00 Ry     beta= 0.10
     Davidson diagonalization with overlap
     ethr =  1.87E-04,  avg # of iterations =  1.0

     total cpu time spent up to now is      109.0 secs

     total energy              =   -1264.08375538 Ry
     Harris-Foulkes estimate   =   -1264.12537706 Ry
     estimated scf accuracy    <       0.14413609 Ry

     iteration #  3     ecut=    50.00 Ry     beta= 0.10
     Davidson diagonalization with overlap
     ethr =  1.50E-04,  avg # of iterations =  1.0

     total cpu time spent up to now is      130.4 secs

     total energy              =   -1264.08650905 Ry
     Harris-Foulkes estimate   =   -1264.08651646 Ry
     estimated scf accuracy    <       0.00024864 Ry

     iteration #  4     ecut=    50.00 Ry     beta= 0.10
     Davidson diagonalization with overlap
     c_bands:  1 eigenvalues not converged
     c_bands:  1 eigenvalues not converged
     c_bands:  1 eigenvalues not converged
     c_bands:  1 eigenvalues not converged
     c_bands:  1 eigenvalues not converged
     c_bands:  1 eigenvalues not converged
     c_bands:  1 eigenvalues not converged
     c_bands:  1 eigenvalues not converged
     ethr =  2.59E-07,  avg # of iterations =  7.6

     total cpu time spent up to now is      180.5 secs

     total energy              =   -1264.08742471 Ry
     Harris-Foulkes estimate   =   -1264.08737285 Ry
     estimated scf accuracy    <       0.00021561 Ry

     iteration #  5     ecut=    50.00 Ry     beta= 0.10
     Davidson diagonalization with overlap
     ethr =  2.25E-07,  avg # of iterations =  1.8

     total cpu time spent up to now is      206.3 secs

     total energy              =   -1264.08728536 Ry
     Harris-Foulkes estimate   =   -1264.08742612 Ry
     estimated scf accuracy    <       0.00032734 Ry

     iteration #  6     ecut=    50.00 Ry     beta= 0.10
     Davidson diagonalization with overlap
     ethr =  2.25E-07,  avg # of iterations =  1.1

     total cpu time spent up to now is      227.4 secs

     total energy              =   -1264.08729566 Ry
     Harris-Foulkes estimate   =   -1264.08729948 Ry
     estimated scf accuracy    <       0.00001466 Ry

     iteration #  7     ecut=    50.00 Ry     beta= 0.10
     Davidson diagonalization with overlap
     c_bands:  1 eigenvalues not converged
     c_bands:  1 eigenvalues not converged
     ethr =  1.53E-08,  avg # of iterations =  4.7

     total cpu time spent up to now is      263.8 secs

     total energy              =   -1264.08730088 Ry
     Harris-Foulkes estimate   =   -1264.08730060 Ry
     estimated scf accuracy    <       0.00000389 Ry

     iteration #  8     ecut=    50.00 Ry     beta= 0.10
     Davidson diagonalization with overlap
     ethr =  4.05E-09,  avg # of iterations =  1.4

     total cpu time spent up to now is      285.4 secs

     total energy              =   -1264.08730070 Ry
     Harris-Foulkes estimate   =   -1264.08730100 Ry
     estimated scf accuracy    <       0.00000658 Ry

     iteration #  9     ecut=    50.00 Ry     beta= 0.10
     Davidson diagonalization with overlap
     ethr =  4.05E-09,  avg # of iterations =  1.0

     total cpu time spent up to now is      306.5 secs

     total energy              =   -1264.08729957 Ry
     Harris-Foulkes estimate   =   -1264.08730080 Ry
     estimated scf accuracy    <       0.00000453 Ry

     iteration # 10     ecut=    50.00 Ry     beta= 0.10
     Davidson diagonalization with overlap
     ethr =  4.05E-09,  avg # of iterations =  3.0

     total cpu time spent up to now is      334.7 secs

     End of self-consistent calculation

     Number of k-points >= 100: set verbosity='high' to print the bands.

     the Fermi energy is     7.8882 ev

!    total energy              =   -1264.08730010 Ry
     Harris-Foulkes estimate   =   -1264.08730020 Ry
     estimated scf accuracy    <       0.00000014 Ry

     total all-electron energy =    -15540.656322 Ry

     The total energy is the sum of the following terms:

     one-electron contribution =     101.03607108 Ry
     hartree contribution      =       0.19618987 Ry
     xc contribution           =     -82.86825270 Ry
     ewald contribution        =    -172.77679687 Ry
     one-center paw contrib.   =   -1109.67170323 Ry
     smearing contrib. (-TS)   =      -0.00280825 Ry

     convergence has been achieved in  10 iterations

     Forces acting on atoms (cartesian axes, Ry/au):

     atom    1 type  1   force =     0.00000000    0.00000000    0.00000000
     atom    2 type  1   force =    -0.00000208   -0.00000647    0.00000000
     atom    3 type  1   force =     0.00000334    0.00000000    0.00000334
     atom    4 type  1   force =     0.00000000   -0.00000647   -0.00000208
     atom    5 type  1   force =     0.00000000    0.00000000    0.00000000
     atom    6 type  1   force =     0.00000738   -0.00000952    0.00000000
     atom    7 type  1   force =     0.00000334   -0.00000000   -0.00000334
     atom    8 type  1   force =    -0.00000000   -0.00000647    0.00000208
     atom    9 type  1   force =     0.00000000    0.00000000    0.00000000
     atom   10 type  1   force =    -0.00000208    0.00000647    0.00000000
     atom   11 type  1   force =    -0.00000076    0.00000000   -0.00000076
     atom   12 type  1   force =    -0.00000000    0.00000647   -0.00000208
     atom   13 type  1   force =     0.00000000    0.00000000    0.00000000
     atom   14 type  1   force =     0.00000738    0.00000952    0.00000000
     atom   15 type  1   force =    -0.00000076    0.00000000    0.00000076
     atom   16 type  1   force =     0.00000000    0.00000647    0.00000208
     atom   17 type  1   force =     0.00000000   -0.00000000    0.00000000
     atom   18 type  1   force =     0.00000208   -0.00000647   -0.00000000
     atom   19 type  1   force =    -0.00000334   -0.00000000    0.00000334
     atom   20 type  1   force =     0.00000000   -0.00000952    0.00000738
     atom   21 type  1   force =     0.00000000    0.00000000    0.00000000
     atom   22 type  1   force =    -0.00000738   -0.00000952    0.00000000
     atom   23 type  1   force =    -0.00000334    0.00000000   -0.00000334
     atom   24 type  1   force =     0.00000000   -0.00000952   -0.00000738
     atom   25 type  1   force =     0.00000000    0.00000000   -0.00000000
     atom   26 type  1   force =     0.00000208    0.00000647    0.00000000
     atom   27 type  1   force =     0.00000076    0.00000000   -0.00000076
     atom   28 type  1   force =     0.00000000    0.00000952    0.00000738
     atom   29 type  1   force =     0.00000000    0.00000000   -0.00000000
     atom   30 type  1   force =    -0.00000738    0.00000952    0.00000000
     atom   31 type  1   force =     0.00000076    0.00000000    0.00000076
     atom   32 type  1   force =     0.00000000    0.00000952   -0.00000738

     Total force =     0.000040     Total SCF correction =     0.000486
     SCF correction compared to forces is large: reduce conv_thr to get better values


     Computing stress (Cartesian axis) and pressure

          total   stress  (Ry/bohr**3)                   (kbar)     P=   -2.92
  -0.00001525   0.00000000   0.00000000         -2.24      0.00      0.00
   0.00000000  -0.00002909   0.00000000          0.00     -4.28      0.00
   0.00000000   0.00000000  -0.00001525          0.00      0.00     -2.24


     Writing output data file rArDGprLulHdQKAp.save/
 
     init_run     :     18.34s CPU     18.85s WALL (       1 calls)
     electrons    :    309.00s CPU    315.38s WALL (       1 calls)
     forces       :      3.79s CPU      3.96s WALL (       1 calls)
     stress       :     24.40s CPU     24.54s WALL (       1 calls)

     Called by init_run:
     wfcinit      :     17.97s CPU     18.43s WALL (       1 calls)
     potinit      :      0.14s CPU      0.15s WALL (       1 calls)
     hinit0       :      0.09s CPU      0.13s WALL (       1 calls)

     Called by electrons:
     c_bands      :    269.88s CPU    275.22s WALL (      11 calls)
     sum_band     :     38.23s CPU     39.18s WALL (      11 calls)
     v_of_rho     :      0.14s CPU      0.15s WALL (      11 calls)
     newd         :      0.10s CPU      0.15s WALL (      11 calls)
     PAW_pot      :      0.70s CPU      0.71s WALL (      11 calls)
     mix_rho      :      0.04s CPU      0.04s WALL (      11 calls)

     Called by c_bands:
     init_us_2    :      5.68s CPU      5.76s WALL (    3150 calls)
     cegterg      :    254.08s CPU    258.88s WALL (    1386 calls)

     Called by sum_band:
     sum_band:bec :      0.16s CPU      0.16s WALL (    1386 calls)
     addusdens    :      0.08s CPU      0.13s WALL (      11 calls)

     Called by *egterg:
     h_psi        :    187.36s CPU    191.69s WALL (    5338 calls)
     s_psi        :     17.95s CPU     18.01s WALL (    5338 calls)
     g_psi        :      1.01s CPU      1.02s WALL (    3826 calls)
     cdiaghg      :     30.34s CPU     30.45s WALL (    5086 calls)

     Called by h_psi:
     h_psi:pot    :    186.53s CPU    190.85s WALL (    5338 calls)
     h_psi:calbec :     18.66s CPU     19.64s WALL (    5338 calls)
     vloc_psi     :    150.03s CPU    153.32s WALL (    5338 calls)
     add_vuspsi   :     17.79s CPU     17.86s WALL (    5338 calls)

     General routines
     calbec       :     28.20s CPU     29.69s WALL (    7354 calls)
     fft          :      0.15s CPU      0.21s WALL (     148 calls)
     ffts         :      0.01s CPU      0.01s WALL (      11 calls)
     fftw         :    163.80s CPU    167.27s WALL (  522424 calls)
 
     Parallel routines
     fft_scatt_xy :     16.92s CPU     17.27s WALL (  522583 calls)
     fft_scatt_yz :     77.71s CPU     79.56s WALL (  522583 calls)
 
     PWSCF        :  5m58.48s CPU     6m14.83s WALL

 
   This run was terminated on:   6:12:24  25Mar2020            

=------------------------------------------------------------------------------=
   JOB DONE.
=------------------------------------------------------------------------------=
