
     Program PWSCF v.6.3 starts on 25Mar2020 at  6:12:25 

     This program is part of the open-source Quantum ESPRESSO suite
     for quantum simulation of materials; please cite
         "P. Giannozzi et al., J. Phys.:Condens. Matter 21 395502 (2009);
         "P. Giannozzi et al., J. Phys.:Condens. Matter 29 465901 (2017);
          URL http://www.quantum-espresso.org", 
     in publications or presentations arising from this work. More details at
     http://www.quantum-espresso.org/quote

     Parallel version (MPI & OpenMP), running on      20 processor cores
     Number of MPI processes:                20
     Threads/MPI process:                     1

     MPI processes distributed on     1 nodes
     R & G space division:  proc/nbgrp/npool/nimage =      20
     Reading input from /rds/homes/b/bxp912/jobs/20200324_al_eos_e/wd/pwscf_ec/ec_2_8.in
Warning: card &IONS ignored
Warning: card ION_DYNAMICS = 'BFGS', ignored
Warning: card / ignored
Warning: card &CELL ignored
Warning: card CELL_DYNAMICS = 'BFGS', ignored
Warning: card CELL_FACTOR = 2.0, ignored
Warning: card PRESS = 0.0, ignored
Warning: card / ignored

     Current dimensions of program PWSCF are:
     Max number of different atomic species (ntypx) = 10
     Max number of k-points (npk) =  40000
     Max angular momentum in pseudopotentials (lmaxx) =  3
     Message from routine read_upf::
     Pseudo file /rds/homes/b/bxp912/pp/Al.pbe-nl-kjpaw_psl.1.0.0.UPF has been successfully fixed on the fly.
To avoid this message in the future you can permanently fix 
 your pseudo files following instructions given in: 
https://gitlab.com/QEF/q-e/blob/master/upftools/how_to_fix_upf.md
               file Al.pbe-nl-kjpaw_psl.1.0.0.UPF: wavefunction(s)  3S 3P renormalized

     Subspace diagonalization in iterative solution of the eigenvalue problem:
     a serial algorithm will be used

     Found symmetry operation: I + (  0.2500  0.2500  0.0000)
     This is a supercell, fractional translations are disabled
 
     Parallelization info
     --------------------
     sticks:   dense  smooth     PW     G-vecs:    dense   smooth      PW
     Min         186     186     51                 8534     8534    1237
     Max         187     187     53                 8537     8537    1238
     Sum        3725    3725   1037               170701   170701   24749
 


     bravais-lattice index     =            0
     lattice parameter (alat)  =      15.2652  a.u.
     unit-cell volume          =    3572.9751 (a.u.)^3
     number of atoms/cell      =           32
     number of atomic types    =            1
     number of electrons       =        96.00
     number of Kohn-Sham states=           58
     kinetic-energy cutoff     =      50.0000  Ry
     charge density cutoff     =     200.0000  Ry
     convergence threshold     =      1.0E-06
     mixing beta               =       0.1000
     number of iterations used =           10  plain     mixing
     Exchange-correlation      = SLA PW PBX PBC ( 1  4  3  4 0 0)

     celldm(1)=  15.265160  celldm(2)=   0.000000  celldm(3)=   0.000000
     celldm(4)=   0.000000  celldm(5)=   0.000000  celldm(6)=   0.000000

     crystal axes: (cart. coord. in units of alat)
               a(1) = (   1.000000   0.000000   0.000000 )  
               a(2) = (   0.000000   1.004444   0.000000 )  
               a(3) = (   0.000000   0.000000   1.000000 )  

     reciprocal axes: (cart. coord. in units 2 pi/alat)
               b(1) = (  1.000000  0.000000  0.000000 )  
               b(2) = (  0.000000  0.995575  0.000000 )  
               b(3) = (  0.000000  0.000000  1.000000 )  


     PseudoPot. # 1 for Al read from file:
     /rds/homes/b/bxp912/pp/Al.pbe-nl-kjpaw_psl.1.0.0.UPF
     MD5 check sum: 339dbea23cf3ab9a065ad45c0f9085d7
     Pseudo is Projector augmented-wave + core cor, Zval =  3.0
     Generated using "atomic" code by A. Dal Corso v.5.1
     Shape of augmentation charge: PSQ
     Using radial grid of 1135 points,  4 beta functions with: 
                l(1) =   0
                l(2) =   0
                l(3) =   1
                l(4) =   1
     Q(r) pseudized with 0 coefficients 


     atomic species   valence    mass     pseudopotential
        Al             3.00    26.98200     Al( 1.00)

     16 Sym. Ops., with inversion, found



   Cartesian axes

     site n.     atom                  positions (alat units)
         1           Al  tau(   1) = (   0.0000000   0.0000000   0.0000000  )
         2           Al  tau(   2) = (   0.2500000   0.2511111   0.0000000  )
         3           Al  tau(   3) = (   0.2500000   0.0000000   0.2500000  )
         4           Al  tau(   4) = (   0.0000000   0.2511111   0.2500000  )
         5           Al  tau(   5) = (   0.0000000   0.0000000   0.5000000  )
         6           Al  tau(   6) = (   0.2500000   0.2511111   0.5000000  )
         7           Al  tau(   7) = (   0.2500000   0.0000000   0.7500000  )
         8           Al  tau(   8) = (   0.0000000   0.2511111   0.7500000  )
         9           Al  tau(   9) = (   0.0000000   0.5022222   0.0000000  )
        10           Al  tau(  10) = (   0.2500000   0.7533333   0.0000000  )
        11           Al  tau(  11) = (   0.2500000   0.5022222   0.2500000  )
        12           Al  tau(  12) = (   0.0000000   0.7533333   0.2500000  )
        13           Al  tau(  13) = (   0.0000000   0.5022222   0.5000000  )
        14           Al  tau(  14) = (   0.2500000   0.7533333   0.5000000  )
        15           Al  tau(  15) = (   0.2500000   0.5022222   0.7500000  )
        16           Al  tau(  16) = (   0.0000000   0.7533333   0.7500000  )
        17           Al  tau(  17) = (   0.5000000   0.0000000   0.0000000  )
        18           Al  tau(  18) = (   0.7500000   0.2511111   0.0000000  )
        19           Al  tau(  19) = (   0.7500000   0.0000000   0.2500000  )
        20           Al  tau(  20) = (   0.5000000   0.2511111   0.2500000  )
        21           Al  tau(  21) = (   0.5000000   0.0000000   0.5000000  )
        22           Al  tau(  22) = (   0.7500000   0.2511111   0.5000000  )
        23           Al  tau(  23) = (   0.7500000   0.0000000   0.7500000  )
        24           Al  tau(  24) = (   0.5000000   0.2511111   0.7500000  )
        25           Al  tau(  25) = (   0.5000000   0.5022222   0.0000000  )
        26           Al  tau(  26) = (   0.7500000   0.7533333   0.0000000  )
        27           Al  tau(  27) = (   0.7500000   0.5022222   0.2500000  )
        28           Al  tau(  28) = (   0.5000000   0.7533333   0.2500000  )
        29           Al  tau(  29) = (   0.5000000   0.5022222   0.5000000  )
        30           Al  tau(  30) = (   0.7500000   0.7533333   0.5000000  )
        31           Al  tau(  31) = (   0.7500000   0.5022222   0.7500000  )
        32           Al  tau(  32) = (   0.5000000   0.7533333   0.7500000  )

     number of k points=   126  Marzari-Vanderbilt smearing, width (Ry)=  0.0400

     Number of k-points >= 100: set verbosity='high' to print them.

     Dense  grid:   170701 G-vectors     FFT dimensions: (  72,  72,  72)

     Estimated max dynamical RAM per process >     148.20 MB

     Estimated total dynamical RAM >       2.89 GB

     Initial potential from superposition of free atoms

     starting charge   95.92671, renormalised to   96.00000
     Starting wfcs are  128 randomized atomic wfcs
     Checking if some PAW data can be deallocated... 

     total cpu time spent up to now is       19.6 secs

     Self-consistent Calculation

     iteration #  1     ecut=    50.00 Ry     beta= 0.10
     Davidson diagonalization with overlap
     ethr =  1.00E-02,  avg # of iterations =  3.0

     Threshold (ethr) on eigenvalues was too large:
     Diagonalizing with lowered threshold

     Davidson diagonalization with overlap
     ethr =  1.91E-04,  avg # of iterations =  4.6

     total cpu time spent up to now is      102.6 secs

     total energy              =   -1264.12456137 Ry
     Harris-Foulkes estimate   =   -1264.13401901 Ry
     estimated scf accuracy    <       0.17945961 Ry

     iteration #  2     ecut=    50.00 Ry     beta= 0.10
     Davidson diagonalization with overlap
     ethr =  1.87E-04,  avg # of iterations =  1.1

     total cpu time spent up to now is      127.6 secs

     total energy              =   -1264.08370335 Ry
     Harris-Foulkes estimate   =   -1264.12532700 Ry
     estimated scf accuracy    <       0.14414058 Ry

     iteration #  3     ecut=    50.00 Ry     beta= 0.10
     Davidson diagonalization with overlap
     ethr =  1.50E-04,  avg # of iterations =  1.0

     total cpu time spent up to now is      154.1 secs

     total energy              =   -1264.08645146 Ry
     Harris-Foulkes estimate   =   -1264.08645768 Ry
     estimated scf accuracy    <       0.00024844 Ry

     iteration #  4     ecut=    50.00 Ry     beta= 0.10
     Davidson diagonalization with overlap
     c_bands:  1 eigenvalues not converged
     c_bands:  1 eigenvalues not converged
     c_bands:  1 eigenvalues not converged
     c_bands:  1 eigenvalues not converged
     c_bands:  1 eigenvalues not converged
     c_bands:  1 eigenvalues not converged
     c_bands:  1 eigenvalues not converged
     c_bands:  1 eigenvalues not converged
     c_bands:  1 eigenvalues not converged
     c_bands:  2 eigenvalues not converged
     c_bands:  1 eigenvalues not converged
     ethr =  2.59E-07,  avg # of iterations =  7.5

     total cpu time spent up to now is      204.6 secs

     total energy              =   -1264.08737990 Ry
     Harris-Foulkes estimate   =   -1264.08731360 Ry
     estimated scf accuracy    <       0.00021754 Ry

     iteration #  5     ecut=    50.00 Ry     beta= 0.10
     Davidson diagonalization with overlap
     c_bands:  2 eigenvalues not converged
     c_bands:  1 eigenvalues not converged
     ethr =  2.27E-07,  avg # of iterations =  1.8

     total cpu time spent up to now is      226.9 secs

     total energy              =   -1264.08722282 Ry
     Harris-Foulkes estimate   =   -1264.08738157 Ry
     estimated scf accuracy    <       0.00036178 Ry

     iteration #  6     ecut=    50.00 Ry     beta= 0.10
     Davidson diagonalization with overlap
     c_bands:  1 eigenvalues not converged
     ethr =  2.27E-07,  avg # of iterations =  1.6

     total cpu time spent up to now is      248.8 secs

     total energy              =   -1264.08723494 Ry
     Harris-Foulkes estimate   =   -1264.08723890 Ry
     estimated scf accuracy    <       0.00001516 Ry

     iteration #  7     ecut=    50.00 Ry     beta= 0.10
     Davidson diagonalization with overlap
     ethr =  1.58E-08,  avg # of iterations =  4.4

     total cpu time spent up to now is      284.8 secs

     total energy              =   -1264.08723958 Ry
     Harris-Foulkes estimate   =   -1264.08723925 Ry
     estimated scf accuracy    <       0.00000356 Ry

     iteration #  8     ecut=    50.00 Ry     beta= 0.10
     Davidson diagonalization with overlap
     ethr =  3.71E-09,  avg # of iterations =  2.0

     total cpu time spent up to now is      307.3 secs

     total energy              =   -1264.08723951 Ry
     Harris-Foulkes estimate   =   -1264.08723974 Ry
     estimated scf accuracy    <       0.00000684 Ry

     iteration #  9     ecut=    50.00 Ry     beta= 0.10
     Davidson diagonalization with overlap
     ethr =  3.71E-09,  avg # of iterations =  1.0

     total cpu time spent up to now is      329.4 secs

     total energy              =   -1264.08723837 Ry
     Harris-Foulkes estimate   =   -1264.08723958 Ry
     estimated scf accuracy    <       0.00000525 Ry

     iteration # 10     ecut=    50.00 Ry     beta= 0.10
     Davidson diagonalization with overlap
     ethr =  3.71E-09,  avg # of iterations =  2.9

     total cpu time spent up to now is      357.0 secs

     End of self-consistent calculation

     Number of k-points >= 100: set verbosity='high' to print the bands.

     the Fermi energy is     7.8825 ev

!    total energy              =   -1264.08723888 Ry
     Harris-Foulkes estimate   =   -1264.08723889 Ry
     estimated scf accuracy    <       0.00000007 Ry

     total all-electron energy =    -15540.656261 Ry

     The total energy is the sum of the following terms:

     one-electron contribution =     100.99351875 Ry
     hartree contribution      =       0.19609395 Ry
     xc contribution           =     -82.85885895 Ry
     ewald contribution        =    -172.74492417 Ry
     one-center paw contrib.   =   -1109.67025072 Ry
     smearing contrib. (-TS)   =      -0.00281776 Ry

     convergence has been achieved in  10 iterations

     Forces acting on atoms (cartesian axes, Ry/au):

     atom    1 type  1   force =     0.00000000   -0.00000000    0.00000000
     atom    2 type  1   force =    -0.00000525    0.00000840    0.00000000
     atom    3 type  1   force =    -0.00000009   -0.00000000   -0.00000009
     atom    4 type  1   force =    -0.00000000    0.00000840   -0.00000525
     atom    5 type  1   force =     0.00000000    0.00000000   -0.00000000
     atom    6 type  1   force =     0.00000225    0.00000490    0.00000000
     atom    7 type  1   force =    -0.00000009   -0.00000000    0.00000009
     atom    8 type  1   force =    -0.00000000    0.00000840    0.00000525
     atom    9 type  1   force =     0.00000000    0.00000000    0.00000000
     atom   10 type  1   force =    -0.00000525   -0.00000840    0.00000000
     atom   11 type  1   force =    -0.00000471   -0.00000000   -0.00000471
     atom   12 type  1   force =     0.00000000   -0.00000840   -0.00000525
     atom   13 type  1   force =     0.00000000    0.00000000    0.00000000
     atom   14 type  1   force =     0.00000225   -0.00000490    0.00000000
     atom   15 type  1   force =    -0.00000471    0.00000000    0.00000471
     atom   16 type  1   force =     0.00000000   -0.00000840    0.00000525
     atom   17 type  1   force =     0.00000000    0.00000000    0.00000000
     atom   18 type  1   force =     0.00000525    0.00000840    0.00000000
     atom   19 type  1   force =     0.00000009   -0.00000000   -0.00000009
     atom   20 type  1   force =     0.00000000    0.00000490    0.00000225
     atom   21 type  1   force =     0.00000000    0.00000000   -0.00000000
     atom   22 type  1   force =    -0.00000225    0.00000490   -0.00000000
     atom   23 type  1   force =     0.00000009    0.00000000    0.00000009
     atom   24 type  1   force =     0.00000000    0.00000490   -0.00000225
     atom   25 type  1   force =     0.00000000    0.00000000    0.00000000
     atom   26 type  1   force =     0.00000525   -0.00000840    0.00000000
     atom   27 type  1   force =     0.00000471    0.00000000   -0.00000471
     atom   28 type  1   force =    -0.00000000   -0.00000490    0.00000225
     atom   29 type  1   force =     0.00000000   -0.00000000   -0.00000000
     atom   30 type  1   force =    -0.00000225   -0.00000490    0.00000000
     atom   31 type  1   force =     0.00000471    0.00000000    0.00000471
     atom   32 type  1   force =     0.00000000   -0.00000490   -0.00000225

     Total force =     0.000035     Total SCF correction =     0.000136
     SCF correction compared to forces is large: reduce conv_thr to get better values


     Computing stress (Cartesian axis) and pressure

          total   stress  (Ry/bohr**3)                   (kbar)     P=   -3.34
  -0.00001744   0.00000000   0.00000000         -2.57      0.00      0.00
   0.00000000  -0.00003321   0.00000000          0.00     -4.89      0.00
   0.00000000   0.00000000  -0.00001744          0.00      0.00     -2.57


     Writing output data file xXhIQWIOmSLedSma.save/
 
     init_run     :     18.58s CPU     19.12s WALL (       1 calls)
     electrons    :    329.59s CPU    337.40s WALL (       1 calls)
     forces       :      3.81s CPU      3.93s WALL (       1 calls)
     stress       :     24.10s CPU     24.25s WALL (       1 calls)

     Called by init_run:
     wfcinit      :     18.23s CPU     18.73s WALL (       1 calls)
     potinit      :      0.11s CPU      0.12s WALL (       1 calls)
     hinit0       :      0.10s CPU      0.13s WALL (       1 calls)

     Called by electrons:
     c_bands      :    290.17s CPU    296.89s WALL (      11 calls)
     sum_band     :     38.52s CPU     39.52s WALL (      11 calls)
     v_of_rho     :      0.14s CPU      0.15s WALL (      11 calls)
     newd         :      0.12s CPU      0.16s WALL (      11 calls)
     PAW_pot      :      0.69s CPU      0.70s WALL (      11 calls)
     mix_rho      :      0.04s CPU      0.04s WALL (      11 calls)

     Called by c_bands:
     init_us_2    :      6.58s CPU      6.67s WALL (    3150 calls)
     cegterg      :    273.81s CPU    279.39s WALL (    1386 calls)

     Called by sum_band:
     sum_band:bec :      0.16s CPU      0.16s WALL (    1386 calls)
     addusdens    :      0.08s CPU      0.13s WALL (      11 calls)

     Called by *egterg:
     h_psi        :    202.55s CPU    207.39s WALL (    5407 calls)
     s_psi        :     18.19s CPU     18.31s WALL (    5407 calls)
     g_psi        :      1.01s CPU      1.03s WALL (    3895 calls)
     cdiaghg      :     30.98s CPU     31.15s WALL (    5155 calls)

     Called by h_psi:
     h_psi:pot    :    201.71s CPU    206.54s WALL (    5407 calls)
     h_psi:calbec :     20.02s CPU     20.99s WALL (    5407 calls)
     vloc_psi     :    163.61s CPU    167.36s WALL (    5407 calls)
     add_vuspsi   :     18.03s CPU     18.15s WALL (    5407 calls)

     General routines
     calbec       :     29.25s CPU     30.69s WALL (    7423 calls)
     fft          :      0.16s CPU      0.19s WALL (     148 calls)
     ffts         :      0.01s CPU      0.01s WALL (      11 calls)
     fftw         :    177.28s CPU    181.24s WALL (  522342 calls)
 
     Parallel routines
     fft_scatt_xy :     16.96s CPU     17.33s WALL (  522501 calls)
     fft_scatt_yz :     91.04s CPU     93.27s WALL (  522501 calls)
 
     PWSCF        :  6m19.13s CPU     6m36.94s WALL

 
   This run was terminated on:   6:19: 2  25Mar2020            

=------------------------------------------------------------------------------=
   JOB DONE.
=------------------------------------------------------------------------------=
