
     Program PWSCF v.6.3 starts on 25Mar2020 at  5:28:18 

     This program is part of the open-source Quantum ESPRESSO suite
     for quantum simulation of materials; please cite
         "P. Giannozzi et al., J. Phys.:Condens. Matter 21 395502 (2009);
         "P. Giannozzi et al., J. Phys.:Condens. Matter 29 465901 (2017);
          URL http://www.quantum-espresso.org", 
     in publications or presentations arising from this work. More details at
     http://www.quantum-espresso.org/quote

     Parallel version (MPI & OpenMP), running on      20 processor cores
     Number of MPI processes:                20
     Threads/MPI process:                     1

     MPI processes distributed on     1 nodes
     R & G space division:  proc/nbgrp/npool/nimage =      20
     Reading input from /rds/homes/b/bxp912/jobs/20200324_al_eos_e/wd/pwscf_ec/ec_2_1.in
Warning: card &IONS ignored
Warning: card ION_DYNAMICS = 'BFGS', ignored
Warning: card / ignored
Warning: card &CELL ignored
Warning: card CELL_DYNAMICS = 'BFGS', ignored
Warning: card CELL_FACTOR = 2.0, ignored
Warning: card PRESS = 0.0, ignored
Warning: card / ignored

     Current dimensions of program PWSCF are:
     Max number of different atomic species (ntypx) = 10
     Max number of k-points (npk) =  40000
     Max angular momentum in pseudopotentials (lmaxx) =  3
     Message from routine read_upf::
     Pseudo file /rds/homes/b/bxp912/pp/Al.pbe-nl-kjpaw_psl.1.0.0.UPF has been successfully fixed on the fly.
To avoid this message in the future you can permanently fix 
 your pseudo files following instructions given in: 
https://gitlab.com/QEF/q-e/blob/master/upftools/how_to_fix_upf.md
               file Al.pbe-nl-kjpaw_psl.1.0.0.UPF: wavefunction(s)  3S 3P renormalized

     Subspace diagonalization in iterative solution of the eigenvalue problem:
     a serial algorithm will be used

     Found symmetry operation: I + (  0.2500  0.2500  0.0000)
     This is a supercell, fractional translations are disabled
 
     Parallelization info
     --------------------
     sticks:   dense  smooth     PW     G-vecs:    dense   smooth      PW
     Min         185     185     51                 8499     8499    1228
     Max         186     186     53                 8506     8506    1231
     Sum        3709    3709   1033               170029   170029   24573
 


     bravais-lattice index     =            0
     lattice parameter (alat)  =      15.2652  a.u.
     unit-cell volume          =    3559.1416 (a.u.)^3
     number of atoms/cell      =           32
     number of atomic types    =            1
     number of electrons       =        96.00
     number of Kohn-Sham states=           58
     kinetic-energy cutoff     =      50.0000  Ry
     charge density cutoff     =     200.0000  Ry
     convergence threshold     =      1.0E-06
     mixing beta               =       0.1000
     number of iterations used =           10  plain     mixing
     Exchange-correlation      = SLA PW PBX PBC ( 1  4  3  4 0 0)

     celldm(1)=  15.265160  celldm(2)=   0.000000  celldm(3)=   0.000000
     celldm(4)=   0.000000  celldm(5)=   0.000000  celldm(6)=   0.000000

     crystal axes: (cart. coord. in units of alat)
               a(1) = (   1.000000   0.000000   0.000000 )  
               a(2) = (   0.000000   1.000556   0.000000 )  
               a(3) = (   0.000000   0.000000   1.000000 )  

     reciprocal axes: (cart. coord. in units 2 pi/alat)
               b(1) = (  1.000000  0.000000  0.000000 )  
               b(2) = (  0.000000  0.999445  0.000000 )  
               b(3) = (  0.000000  0.000000  1.000000 )  


     PseudoPot. # 1 for Al read from file:
     /rds/homes/b/bxp912/pp/Al.pbe-nl-kjpaw_psl.1.0.0.UPF
     MD5 check sum: 339dbea23cf3ab9a065ad45c0f9085d7
     Pseudo is Projector augmented-wave + core cor, Zval =  3.0
     Generated using "atomic" code by A. Dal Corso v.5.1
     Shape of augmentation charge: PSQ
     Using radial grid of 1135 points,  4 beta functions with: 
                l(1) =   0
                l(2) =   0
                l(3) =   1
                l(4) =   1
     Q(r) pseudized with 0 coefficients 


     atomic species   valence    mass     pseudopotential
        Al             3.00    26.98200     Al( 1.00)

     16 Sym. Ops., with inversion, found



   Cartesian axes

     site n.     atom                  positions (alat units)
         1           Al  tau(   1) = (   0.0000000   0.0000000   0.0000000  )
         2           Al  tau(   2) = (   0.2500000   0.2501389   0.0000000  )
         3           Al  tau(   3) = (   0.2500000   0.0000000   0.2500000  )
         4           Al  tau(   4) = (   0.0000000   0.2501389   0.2500000  )
         5           Al  tau(   5) = (   0.0000000   0.0000000   0.5000000  )
         6           Al  tau(   6) = (   0.2500000   0.2501389   0.5000000  )
         7           Al  tau(   7) = (   0.2500000   0.0000000   0.7500000  )
         8           Al  tau(   8) = (   0.0000000   0.2501389   0.7500000  )
         9           Al  tau(   9) = (   0.0000000   0.5002778   0.0000000  )
        10           Al  tau(  10) = (   0.2500000   0.7504167   0.0000000  )
        11           Al  tau(  11) = (   0.2500000   0.5002778   0.2500000  )
        12           Al  tau(  12) = (   0.0000000   0.7504167   0.2500000  )
        13           Al  tau(  13) = (   0.0000000   0.5002778   0.5000000  )
        14           Al  tau(  14) = (   0.2500000   0.7504167   0.5000000  )
        15           Al  tau(  15) = (   0.2500000   0.5002778   0.7500000  )
        16           Al  tau(  16) = (   0.0000000   0.7504167   0.7500000  )
        17           Al  tau(  17) = (   0.5000000   0.0000000   0.0000000  )
        18           Al  tau(  18) = (   0.7500000   0.2501389   0.0000000  )
        19           Al  tau(  19) = (   0.7500000   0.0000000   0.2500000  )
        20           Al  tau(  20) = (   0.5000000   0.2501389   0.2500000  )
        21           Al  tau(  21) = (   0.5000000   0.0000000   0.5000000  )
        22           Al  tau(  22) = (   0.7500000   0.2501389   0.5000000  )
        23           Al  tau(  23) = (   0.7500000   0.0000000   0.7500000  )
        24           Al  tau(  24) = (   0.5000000   0.2501389   0.7500000  )
        25           Al  tau(  25) = (   0.5000000   0.5002778   0.0000000  )
        26           Al  tau(  26) = (   0.7500000   0.7504167   0.0000000  )
        27           Al  tau(  27) = (   0.7500000   0.5002778   0.2500000  )
        28           Al  tau(  28) = (   0.5000000   0.7504167   0.2500000  )
        29           Al  tau(  29) = (   0.5000000   0.5002778   0.5000000  )
        30           Al  tau(  30) = (   0.7500000   0.7504167   0.5000000  )
        31           Al  tau(  31) = (   0.7500000   0.5002778   0.7500000  )
        32           Al  tau(  32) = (   0.5000000   0.7504167   0.7500000  )

     number of k points=   126  Marzari-Vanderbilt smearing, width (Ry)=  0.0400

     Number of k-points >= 100: set verbosity='high' to print them.

     Dense  grid:   170029 G-vectors     FFT dimensions: (  72,  72,  72)

     Estimated max dynamical RAM per process >     147.64 MB

     Estimated total dynamical RAM >       2.88 GB

     Initial potential from superposition of free atoms

     starting charge   95.92671, renormalised to   96.00000
     Starting wfcs are  128 randomized atomic wfcs
     Checking if some PAW data can be deallocated... 

     total cpu time spent up to now is       24.5 secs

     Self-consistent Calculation

     iteration #  1     ecut=    50.00 Ry     beta= 0.10
     Davidson diagonalization with overlap
     ethr =  1.00E-02,  avg # of iterations =  3.1

     Threshold (ethr) on eigenvalues was too large:
     Diagonalizing with lowered threshold

     Davidson diagonalization with overlap
     ethr =  1.91E-04,  avg # of iterations =  4.5

     total cpu time spent up to now is      103.4 secs

     total energy              =   -1264.12481417 Ry
     Harris-Foulkes estimate   =   -1264.13426904 Ry
     estimated scf accuracy    <       0.17941085 Ry

     iteration #  2     ecut=    50.00 Ry     beta= 0.10
     Davidson diagonalization with overlap
     ethr =  1.87E-04,  avg # of iterations =  1.0

     total cpu time spent up to now is      125.2 secs

     total energy              =   -1264.08397328 Ry
     Harris-Foulkes estimate   =   -1264.12558455 Ry
     estimated scf accuracy    <       0.14410897 Ry

     iteration #  3     ecut=    50.00 Ry     beta= 0.10
     Davidson diagonalization with overlap
     ethr =  1.50E-04,  avg # of iterations =  1.0

     total cpu time spent up to now is      146.0 secs

     total energy              =   -1264.08670984 Ry
     Harris-Foulkes estimate   =   -1264.08671624 Ry
     estimated scf accuracy    <       0.00024843 Ry

     iteration #  4     ecut=    50.00 Ry     beta= 0.10
     Davidson diagonalization with overlap
     c_bands:  1 eigenvalues not converged
     c_bands:  1 eigenvalues not converged
     c_bands:  1 eigenvalues not converged
     c_bands:  1 eigenvalues not converged
     c_bands:  1 eigenvalues not converged
     c_bands:  1 eigenvalues not converged
     c_bands:  1 eigenvalues not converged
     c_bands:  1 eigenvalues not converged
     c_bands:  2 eigenvalues not converged
     ethr =  2.59E-07,  avg # of iterations =  7.1

     total cpu time spent up to now is      195.4 secs

     total energy              =   -1264.08760894 Ry
     Harris-Foulkes estimate   =   -1264.08756654 Ry
     estimated scf accuracy    <       0.00021670 Ry

     iteration #  5     ecut=    50.00 Ry     beta= 0.10
     Davidson diagonalization with overlap
     c_bands:  1 eigenvalues not converged
     c_bands:  1 eigenvalues not converged
     ethr =  2.26E-07,  avg # of iterations =  1.4

     total cpu time spent up to now is      216.7 secs

     total energy              =   -1264.08747807 Ry
     Harris-Foulkes estimate   =   -1264.08761006 Ry
     estimated scf accuracy    <       0.00030794 Ry

     iteration #  6     ecut=    50.00 Ry     beta= 0.10
     Davidson diagonalization with overlap
     ethr =  2.26E-07,  avg # of iterations =  1.6

     total cpu time spent up to now is      238.4 secs

     total energy              =   -1264.08748868 Ry
     Harris-Foulkes estimate   =   -1264.08749439 Ry
     estimated scf accuracy    <       0.00002310 Ry

     iteration #  7     ecut=    50.00 Ry     beta= 0.10
     Davidson diagonalization with overlap
     ethr =  2.41E-08,  avg # of iterations =  3.5

     total cpu time spent up to now is      269.2 secs

     total energy              =   -1264.08749305 Ry
     Harris-Foulkes estimate   =   -1264.08749287 Ry
     estimated scf accuracy    <       0.00000364 Ry

     iteration #  8     ecut=    50.00 Ry     beta= 0.10
     Davidson diagonalization with overlap
     ethr =  3.79E-09,  avg # of iterations =  2.4

     total cpu time spent up to now is      293.1 secs

     total energy              =   -1264.08749281 Ry
     Harris-Foulkes estimate   =   -1264.08749322 Ry
     estimated scf accuracy    <       0.00000579 Ry

     iteration #  9     ecut=    50.00 Ry     beta= 0.10
     Davidson diagonalization with overlap
     ethr =  3.79E-09,  avg # of iterations =  1.0

     total cpu time spent up to now is      313.8 secs

     total energy              =   -1264.08749210 Ry
     Harris-Foulkes estimate   =   -1264.08749290 Ry
     estimated scf accuracy    <       0.00000351 Ry

     iteration # 10     ecut=    50.00 Ry     beta= 0.10
     Davidson diagonalization with overlap
     ethr =  3.65E-09,  avg # of iterations =  3.1

     total cpu time spent up to now is      340.3 secs

     End of self-consistent calculation

     Number of k-points >= 100: set verbosity='high' to print the bands.

     the Fermi energy is     7.9227 ev

!    total energy              =   -1264.08749360 Ry
     Harris-Foulkes estimate   =   -1264.08749361 Ry
     estimated scf accuracy    <       0.00000003 Ry

     total all-electron energy =    -15540.656516 Ry

     The total energy is the sum of the following terms:

     one-electron contribution =     101.29254672 Ry
     hartree contribution      =       0.19678278 Ry
     xc contribution           =     -82.92491217 Ry
     ewald contribution        =    -172.96849203 Ry
     one-center paw contrib.   =   -1109.68066709 Ry
     smearing contrib. (-TS)   =      -0.00275180 Ry

     convergence has been achieved in  10 iterations

     Forces acting on atoms (cartesian axes, Ry/au):

     atom    1 type  1   force =     0.00000000   -0.00000000    0.00000000
     atom    2 type  1   force =    -0.00000365    0.00000901    0.00000000
     atom    3 type  1   force =     0.00000006    0.00000000    0.00000006
     atom    4 type  1   force =     0.00000000    0.00000901   -0.00000365
     atom    5 type  1   force =     0.00000000    0.00000000    0.00000000
     atom    6 type  1   force =     0.00000005    0.00000478    0.00000000
     atom    7 type  1   force =     0.00000006    0.00000000   -0.00000006
     atom    8 type  1   force =     0.00000000    0.00000901    0.00000365
     atom    9 type  1   force =     0.00000000    0.00000000    0.00000000
     atom   10 type  1   force =    -0.00000365   -0.00000901    0.00000000
     atom   11 type  1   force =    -0.00000511    0.00000000   -0.00000511
     atom   12 type  1   force =    -0.00000000   -0.00000901   -0.00000365
     atom   13 type  1   force =     0.00000000    0.00000000    0.00000000
     atom   14 type  1   force =     0.00000005   -0.00000478    0.00000000
     atom   15 type  1   force =    -0.00000511   -0.00000000    0.00000511
     atom   16 type  1   force =     0.00000000   -0.00000901    0.00000365
     atom   17 type  1   force =     0.00000000    0.00000000    0.00000000
     atom   18 type  1   force =     0.00000365    0.00000901    0.00000000
     atom   19 type  1   force =    -0.00000006    0.00000000    0.00000006
     atom   20 type  1   force =     0.00000000    0.00000478    0.00000005
     atom   21 type  1   force =     0.00000000   -0.00000000    0.00000000
     atom   22 type  1   force =    -0.00000005    0.00000478    0.00000000
     atom   23 type  1   force =    -0.00000006    0.00000000   -0.00000006
     atom   24 type  1   force =     0.00000000    0.00000478   -0.00000005
     atom   25 type  1   force =     0.00000000    0.00000000    0.00000000
     atom   26 type  1   force =     0.00000365   -0.00000901   -0.00000000
     atom   27 type  1   force =     0.00000511   -0.00000000   -0.00000511
     atom   28 type  1   force =     0.00000000   -0.00000478    0.00000005
     atom   29 type  1   force =     0.00000000   -0.00000000    0.00000000
     atom   30 type  1   force =    -0.00000005   -0.00000478    0.00000000
     atom   31 type  1   force =     0.00000511    0.00000000    0.00000511
     atom   32 type  1   force =     0.00000000   -0.00000478   -0.00000005

     Total force =     0.000034     Total SCF correction =     0.000079
     SCF correction compared to forces is large: reduce conv_thr to get better values


     Computing stress (Cartesian axis) and pressure

          total   stress  (Ry/bohr**3)                   (kbar)     P=   -0.36
  -0.00000181   0.00000000   0.00000000         -0.27      0.00      0.00
   0.00000000  -0.00000380   0.00000000          0.00     -0.56      0.00
   0.00000000   0.00000000  -0.00000181          0.00      0.00     -0.27


     Writing output data file xtkhGQOSeMTKHggI.save/
 
     init_run     :     23.32s CPU     23.94s WALL (       1 calls)
     electrons    :    308.97s CPU    315.79s WALL (       1 calls)
     forces       :      3.79s CPU      3.92s WALL (       1 calls)
     stress       :     24.18s CPU     24.28s WALL (       1 calls)

     Called by init_run:
     wfcinit      :     22.97s CPU     23.55s WALL (       1 calls)
     potinit      :      0.11s CPU      0.12s WALL (       1 calls)
     hinit0       :      0.11s CPU      0.13s WALL (       1 calls)

     Called by electrons:
     c_bands      :    268.97s CPU    274.71s WALL (      11 calls)
     sum_band     :     39.09s CPU     40.10s WALL (      11 calls)
     v_of_rho     :      0.14s CPU      0.15s WALL (      11 calls)
     newd         :      0.11s CPU      0.15s WALL (      11 calls)
     PAW_pot      :      0.69s CPU      0.71s WALL (      11 calls)
     mix_rho      :      0.04s CPU      0.04s WALL (      11 calls)

     Called by c_bands:
     init_us_2    :      5.68s CPU      5.76s WALL (    3150 calls)
     cegterg      :    252.98s CPU    258.43s WALL (    1386 calls)

     Called by sum_band:
     sum_band:bec :      0.16s CPU      0.17s WALL (    1386 calls)
     addusdens    :      0.07s CPU      0.12s WALL (      11 calls)

     Called by *egterg:
     h_psi        :    191.43s CPU    196.17s WALL (    5250 calls)
     s_psi        :     17.82s CPU     17.92s WALL (    5250 calls)
     g_psi        :      0.99s CPU      1.00s WALL (    3738 calls)
     cdiaghg      :     28.99s CPU     29.21s WALL (    4998 calls)

     Called by h_psi:
     h_psi:pot    :    190.56s CPU    195.28s WALL (    5250 calls)
     h_psi:calbec :     19.18s CPU     20.21s WALL (    5250 calls)
     vloc_psi     :    153.71s CPU    157.28s WALL (    5250 calls)
     add_vuspsi   :     17.63s CPU     17.75s WALL (    5250 calls)

     General routines
     calbec       :     28.47s CPU     30.00s WALL (    7266 calls)
     fft          :      0.16s CPU      0.18s WALL (     148 calls)
     ffts         :      0.01s CPU      0.01s WALL (      11 calls)
     fftw         :    168.36s CPU    172.12s WALL (  516818 calls)
 
     Parallel routines
     fft_scatt_xy :     16.77s CPU     17.15s WALL (  516977 calls)
     fft_scatt_yz :     83.08s CPU     84.98s WALL (  516977 calls)
 
     PWSCF        :  6m 3.32s CPU     6m20.18s WALL

 
   This run was terminated on:   5:34:38  25Mar2020            

=------------------------------------------------------------------------------=
   JOB DONE.
=------------------------------------------------------------------------------=
