
     Program PWSCF v.6.3 starts on 25Mar2020 at  6:19: 3 

     This program is part of the open-source Quantum ESPRESSO suite
     for quantum simulation of materials; please cite
         "P. Giannozzi et al., J. Phys.:Condens. Matter 21 395502 (2009);
         "P. Giannozzi et al., J. Phys.:Condens. Matter 29 465901 (2017);
          URL http://www.quantum-espresso.org", 
     in publications or presentations arising from this work. More details at
     http://www.quantum-espresso.org/quote

     Parallel version (MPI & OpenMP), running on      20 processor cores
     Number of MPI processes:                20
     Threads/MPI process:                     1

     MPI processes distributed on     1 nodes
     R & G space division:  proc/nbgrp/npool/nimage =      20
     Reading input from /rds/homes/b/bxp912/jobs/20200324_al_eos_e/wd/pwscf_ec/ec_3_1.in
Warning: card &IONS ignored
Warning: card ION_DYNAMICS = 'BFGS', ignored
Warning: card / ignored
Warning: card &CELL ignored
Warning: card CELL_DYNAMICS = 'BFGS', ignored
Warning: card CELL_FACTOR = 2.0, ignored
Warning: card PRESS = 0.0, ignored
Warning: card / ignored

     Current dimensions of program PWSCF are:
     Max number of different atomic species (ntypx) = 10
     Max number of k-points (npk) =  40000
     Max angular momentum in pseudopotentials (lmaxx) =  3
     Message from routine read_upf::
     Pseudo file /rds/homes/b/bxp912/pp/Al.pbe-nl-kjpaw_psl.1.0.0.UPF has been successfully fixed on the fly.
To avoid this message in the future you can permanently fix 
 your pseudo files following instructions given in: 
https://gitlab.com/QEF/q-e/blob/master/upftools/how_to_fix_upf.md
               file Al.pbe-nl-kjpaw_psl.1.0.0.UPF: wavefunction(s)  3S 3P renormalized

     Subspace diagonalization in iterative solution of the eigenvalue problem:
     a serial algorithm will be used

     Found symmetry operation: I + (  0.2500  0.2500  0.0000)
     This is a supercell, fractional translations are disabled
 
     Parallelization info
     --------------------
     sticks:   dense  smooth     PW     G-vecs:    dense   smooth      PW
     Min         185     185     51                 8499     8499    1228
     Max         186     186     53                 8504     8504    1231
     Sum        3705    3705   1033               170029   170029   24573
 


     bravais-lattice index     =            0
     lattice parameter (alat)  =      15.2652  a.u.
     unit-cell volume          =    3559.1416 (a.u.)^3
     number of atoms/cell      =           32
     number of atomic types    =            1
     number of electrons       =        96.00
     number of Kohn-Sham states=           58
     kinetic-energy cutoff     =      50.0000  Ry
     charge density cutoff     =     200.0000  Ry
     convergence threshold     =      1.0E-06
     mixing beta               =       0.1000
     number of iterations used =           10  plain     mixing
     Exchange-correlation      = SLA PW PBX PBC ( 1  4  3  4 0 0)

     celldm(1)=  15.265160  celldm(2)=   0.000000  celldm(3)=   0.000000
     celldm(4)=   0.000000  celldm(5)=   0.000000  celldm(6)=   0.000000

     crystal axes: (cart. coord. in units of alat)
               a(1) = (   1.000000   0.000000   0.000000 )  
               a(2) = (   0.000000   1.000000   0.000000 )  
               a(3) = (   0.000000   0.000000   1.000556 )  

     reciprocal axes: (cart. coord. in units 2 pi/alat)
               b(1) = (  1.000000  0.000000  0.000000 )  
               b(2) = (  0.000000  1.000000  0.000000 )  
               b(3) = (  0.000000  0.000000  0.999445 )  


     PseudoPot. # 1 for Al read from file:
     /rds/homes/b/bxp912/pp/Al.pbe-nl-kjpaw_psl.1.0.0.UPF
     MD5 check sum: 339dbea23cf3ab9a065ad45c0f9085d7
     Pseudo is Projector augmented-wave + core cor, Zval =  3.0
     Generated using "atomic" code by A. Dal Corso v.5.1
     Shape of augmentation charge: PSQ
     Using radial grid of 1135 points,  4 beta functions with: 
                l(1) =   0
                l(2) =   0
                l(3) =   1
                l(4) =   1
     Q(r) pseudized with 0 coefficients 


     atomic species   valence    mass     pseudopotential
        Al             3.00    26.98200     Al( 1.00)

     16 Sym. Ops., with inversion, found



   Cartesian axes

     site n.     atom                  positions (alat units)
         1           Al  tau(   1) = (   0.0000000   0.0000000   0.0000000  )
         2           Al  tau(   2) = (   0.2500000   0.2500000   0.0000000  )
         3           Al  tau(   3) = (   0.2500000   0.0000000   0.2501389  )
         4           Al  tau(   4) = (   0.0000000   0.2500000   0.2501389  )
         5           Al  tau(   5) = (   0.0000000   0.0000000   0.5002778  )
         6           Al  tau(   6) = (   0.2500000   0.2500000   0.5002778  )
         7           Al  tau(   7) = (   0.2500000   0.0000000   0.7504167  )
         8           Al  tau(   8) = (   0.0000000   0.2500000   0.7504167  )
         9           Al  tau(   9) = (   0.0000000   0.5000000   0.0000000  )
        10           Al  tau(  10) = (   0.2500000   0.7500000   0.0000000  )
        11           Al  tau(  11) = (   0.2500000   0.5000000   0.2501389  )
        12           Al  tau(  12) = (   0.0000000   0.7500000   0.2501389  )
        13           Al  tau(  13) = (   0.0000000   0.5000000   0.5002778  )
        14           Al  tau(  14) = (   0.2500000   0.7500000   0.5002778  )
        15           Al  tau(  15) = (   0.2500000   0.5000000   0.7504167  )
        16           Al  tau(  16) = (   0.0000000   0.7500000   0.7504167  )
        17           Al  tau(  17) = (   0.5000000   0.0000000   0.0000000  )
        18           Al  tau(  18) = (   0.7500000   0.2500000   0.0000000  )
        19           Al  tau(  19) = (   0.7500000   0.0000000   0.2501389  )
        20           Al  tau(  20) = (   0.5000000   0.2500000   0.2501389  )
        21           Al  tau(  21) = (   0.5000000   0.0000000   0.5002778  )
        22           Al  tau(  22) = (   0.7500000   0.2500000   0.5002778  )
        23           Al  tau(  23) = (   0.7500000   0.0000000   0.7504167  )
        24           Al  tau(  24) = (   0.5000000   0.2500000   0.7504167  )
        25           Al  tau(  25) = (   0.5000000   0.5000000   0.0000000  )
        26           Al  tau(  26) = (   0.7500000   0.7500000   0.0000000  )
        27           Al  tau(  27) = (   0.7500000   0.5000000   0.2501389  )
        28           Al  tau(  28) = (   0.5000000   0.7500000   0.2501389  )
        29           Al  tau(  29) = (   0.5000000   0.5000000   0.5002778  )
        30           Al  tau(  30) = (   0.7500000   0.7500000   0.5002778  )
        31           Al  tau(  31) = (   0.7500000   0.5000000   0.7504167  )
        32           Al  tau(  32) = (   0.5000000   0.7500000   0.7504167  )

     number of k points=   126  Marzari-Vanderbilt smearing, width (Ry)=  0.0400

     Number of k-points >= 100: set verbosity='high' to print them.

     Dense  grid:   170029 G-vectors     FFT dimensions: (  72,  72,  72)

     Estimated max dynamical RAM per process >     147.64 MB

     Estimated total dynamical RAM >       2.88 GB

     Initial potential from superposition of free atoms

     starting charge   95.92671, renormalised to   96.00000
     Starting wfcs are  128 randomized atomic wfcs
     Checking if some PAW data can be deallocated... 

     total cpu time spent up to now is       19.2 secs

     Self-consistent Calculation

     iteration #  1     ecut=    50.00 Ry     beta= 0.10
     Davidson diagonalization with overlap
     ethr =  1.00E-02,  avg # of iterations =  3.1

     Threshold (ethr) on eigenvalues was too large:
     Diagonalizing with lowered threshold

     Davidson diagonalization with overlap
     ethr =  1.91E-04,  avg # of iterations =  4.6

     total cpu time spent up to now is       87.3 secs

     total energy              =   -1264.12472846 Ry
     Harris-Foulkes estimate   =   -1264.13415610 Ry
     estimated scf accuracy    <       0.17942028 Ry

     iteration #  2     ecut=    50.00 Ry     beta= 0.10
     Davidson diagonalization with overlap
     ethr =  1.87E-04,  avg # of iterations =  1.0

     total cpu time spent up to now is      108.1 secs

     total energy              =   -1264.08398944 Ry
     Harris-Foulkes estimate   =   -1264.12549264 Ry
     estimated scf accuracy    <       0.14410865 Ry

     iteration #  3     ecut=    50.00 Ry     beta= 0.10
     Davidson diagonalization with overlap
     ethr =  1.50E-04,  avg # of iterations =  1.0

     total cpu time spent up to now is      128.9 secs

     total energy              =   -1264.08671335 Ry
     Harris-Foulkes estimate   =   -1264.08671814 Ry
     estimated scf accuracy    <       0.00024167 Ry

     iteration #  4     ecut=    50.00 Ry     beta= 0.10
     Davidson diagonalization with overlap
     c_bands:  1 eigenvalues not converged
     c_bands:  1 eigenvalues not converged
     c_bands:  1 eigenvalues not converged
     c_bands:  2 eigenvalues not converged
     c_bands:  1 eigenvalues not converged
     c_bands:  1 eigenvalues not converged
     c_bands:  2 eigenvalues not converged
     c_bands:  1 eigenvalues not converged
     c_bands:  1 eigenvalues not converged
     ethr =  2.52E-07,  avg # of iterations =  7.3

     total cpu time spent up to now is      178.4 secs

     total energy              =   -1264.08765524 Ry
     Harris-Foulkes estimate   =   -1264.08756831 Ry
     estimated scf accuracy    <       0.00021435 Ry

     iteration #  5     ecut=    50.00 Ry     beta= 0.10
     Davidson diagonalization with overlap
     ethr =  2.23E-07,  avg # of iterations =  1.4

     total cpu time spent up to now is      199.9 secs

     total energy              =   -1264.08747458 Ry
     Harris-Foulkes estimate   =   -1264.08765718 Ry
     estimated scf accuracy    <       0.00040121 Ry

     iteration #  6     ecut=    50.00 Ry     beta= 0.10
     Davidson diagonalization with overlap
     ethr =  2.23E-07,  avg # of iterations =  1.7

     total cpu time spent up to now is      221.8 secs

     total energy              =   -1264.08748953 Ry
     Harris-Foulkes estimate   =   -1264.08749101 Ry
     estimated scf accuracy    <       0.00000560 Ry

     iteration #  7     ecut=    50.00 Ry     beta= 0.10
     Davidson diagonalization with overlap
     ethr =  5.83E-09,  avg # of iterations =  4.9

     total cpu time spent up to now is      265.9 secs

     total energy              =   -1264.08749416 Ry
     Harris-Foulkes estimate   =   -1264.08749386 Ry
     estimated scf accuracy    <       0.00000169 Ry

     iteration #  8     ecut=    50.00 Ry     beta= 0.10
     Davidson diagonalization with overlap
     ethr =  1.77E-09,  avg # of iterations =  1.7

     total cpu time spent up to now is      288.8 secs

     total energy              =   -1264.08749372 Ry
     Harris-Foulkes estimate   =   -1264.08749426 Ry
     estimated scf accuracy    <       0.00000383 Ry

     iteration #  9     ecut=    50.00 Ry     beta= 0.10
     Davidson diagonalization with overlap
     ethr =  1.77E-09,  avg # of iterations =  1.2

     total cpu time spent up to now is      309.9 secs

     total energy              =   -1264.08749334 Ry
     Harris-Foulkes estimate   =   -1264.08749382 Ry
     estimated scf accuracy    <       0.00000181 Ry

     iteration # 10     ecut=    50.00 Ry     beta= 0.10
     Davidson diagonalization with overlap
     ethr =  1.77E-09,  avg # of iterations =  2.8

     total cpu time spent up to now is      337.6 secs

     End of self-consistent calculation

     Number of k-points >= 100: set verbosity='high' to print the bands.

     the Fermi energy is     7.9227 ev

!    total energy              =   -1264.08749363 Ry
     Harris-Foulkes estimate   =   -1264.08749361 Ry
     estimated scf accuracy    <       0.00000005 Ry

     total all-electron energy =    -15540.656516 Ry

     The total energy is the sum of the following terms:

     one-electron contribution =     101.29257337 Ry
     hartree contribution      =       0.19678105 Ry
     xc contribution           =     -82.92493046 Ry
     ewald contribution        =    -172.96849203 Ry
     one-center paw contrib.   =   -1109.68067364 Ry
     smearing contrib. (-TS)   =      -0.00275191 Ry

     convergence has been achieved in  10 iterations

     Forces acting on atoms (cartesian axes, Ry/au):

     atom    1 type  1   force =     0.00000000    0.00000000    0.00000000
     atom    2 type  1   force =     0.00000110    0.00000110    0.00000000
     atom    3 type  1   force =     0.00000373   -0.00000000   -0.00000159
     atom    4 type  1   force =    -0.00000000    0.00000373   -0.00000159
     atom    5 type  1   force =     0.00000000    0.00000000    0.00000000
     atom    6 type  1   force =     0.00000301    0.00000301    0.00000000
     atom    7 type  1   force =     0.00000373    0.00000000    0.00000159
     atom    8 type  1   force =    -0.00000000    0.00000373    0.00000159
     atom    9 type  1   force =     0.00000000    0.00000000    0.00000000
     atom   10 type  1   force =     0.00000110   -0.00000110   -0.00000000
     atom   11 type  1   force =    -0.00000179   -0.00000000    0.00000076
     atom   12 type  1   force =     0.00000000   -0.00000373   -0.00000159
     atom   13 type  1   force =     0.00000000    0.00000000    0.00000000
     atom   14 type  1   force =     0.00000301   -0.00000301   -0.00000000
     atom   15 type  1   force =    -0.00000179    0.00000000   -0.00000076
     atom   16 type  1   force =     0.00000000   -0.00000373    0.00000159
     atom   17 type  1   force =     0.00000000    0.00000000    0.00000000
     atom   18 type  1   force =    -0.00000110    0.00000110   -0.00000000
     atom   19 type  1   force =    -0.00000373    0.00000000   -0.00000159
     atom   20 type  1   force =     0.00000000   -0.00000179    0.00000076
     atom   21 type  1   force =     0.00000000    0.00000000    0.00000000
     atom   22 type  1   force =    -0.00000301    0.00000301   -0.00000000
     atom   23 type  1   force =    -0.00000373    0.00000000    0.00000159
     atom   24 type  1   force =    -0.00000000   -0.00000179   -0.00000076
     atom   25 type  1   force =     0.00000000    0.00000000    0.00000000
     atom   26 type  1   force =    -0.00000110   -0.00000110    0.00000000
     atom   27 type  1   force =     0.00000179    0.00000000    0.00000076
     atom   28 type  1   force =    -0.00000000    0.00000179    0.00000076
     atom   29 type  1   force =     0.00000000    0.00000000    0.00000000
     atom   30 type  1   force =    -0.00000301   -0.00000301    0.00000000
     atom   31 type  1   force =     0.00000179    0.00000000   -0.00000076
     atom   32 type  1   force =     0.00000000    0.00000179   -0.00000076

     Total force =     0.000016     Total SCF correction =     0.000182
     SCF correction compared to forces is large: reduce conv_thr to get better values


     Computing stress (Cartesian axis) and pressure

          total   stress  (Ry/bohr**3)                   (kbar)     P=   -0.37
  -0.00000182   0.00000000   0.00000000         -0.27      0.00      0.00
   0.00000000  -0.00000182   0.00000000          0.00     -0.27      0.00
   0.00000000   0.00000000  -0.00000380          0.00      0.00     -0.56


     Writing output data file hhbyYQsMYbFnmUyL.save/
 
     init_run     :     18.20s CPU     18.70s WALL (       1 calls)
     electrons    :    312.06s CPU    318.39s WALL (       1 calls)
     forces       :      3.77s CPU      3.94s WALL (       1 calls)
     stress       :     24.37s CPU     24.41s WALL (       1 calls)

     Called by init_run:
     wfcinit      :     17.86s CPU     18.31s WALL (       1 calls)
     potinit      :      0.11s CPU      0.11s WALL (       1 calls)
     hinit0       :      0.09s CPU      0.14s WALL (       1 calls)

     Called by electrons:
     c_bands      :    273.66s CPU    278.94s WALL (      11 calls)
     sum_band     :     37.48s CPU     38.46s WALL (      11 calls)
     v_of_rho     :      0.14s CPU      0.15s WALL (      11 calls)
     newd         :      0.10s CPU      0.15s WALL (      11 calls)
     PAW_pot      :      0.71s CPU      0.72s WALL (      11 calls)
     mix_rho      :      0.03s CPU      0.04s WALL (      11 calls)

     Called by c_bands:
     init_us_2    :      5.81s CPU      5.89s WALL (    3150 calls)
     cegterg      :    257.78s CPU    262.68s WALL (    1386 calls)

     Called by sum_band:
     sum_band:bec :      0.16s CPU      0.17s WALL (    1386 calls)
     addusdens    :      0.09s CPU      0.13s WALL (      11 calls)

     Called by *egterg:
     h_psi        :    187.11s CPU    191.41s WALL (    5365 calls)
     s_psi        :     18.43s CPU     18.49s WALL (    5365 calls)
     g_psi        :      1.06s CPU      1.07s WALL (    3853 calls)
     cdiaghg      :     32.02s CPU     32.11s WALL (    5113 calls)

     Called by h_psi:
     h_psi:pot    :    186.25s CPU    190.53s WALL (    5365 calls)
     h_psi:calbec :     18.98s CPU     20.03s WALL (    5365 calls)
     vloc_psi     :    148.95s CPU    152.12s WALL (    5365 calls)
     add_vuspsi   :     18.27s CPU     18.35s WALL (    5365 calls)

     General routines
     calbec       :     28.40s CPU     29.97s WALL (    7381 calls)
     fft          :      0.13s CPU      0.19s WALL (     148 calls)
     ffts         :      0.01s CPU      0.01s WALL (      11 calls)
     fftw         :    161.82s CPU    165.18s WALL (  534386 calls)
 
     Parallel routines
     fft_scatt_xy :     17.37s CPU     17.71s WALL (  534545 calls)
     fft_scatt_yz :     73.90s CPU     75.59s WALL (  534545 calls)
 
     PWSCF        :  6m 1.46s CPU     6m17.49s WALL

 
   This run was terminated on:   6:25:20  25Mar2020            

=------------------------------------------------------------------------------=
   JOB DONE.
=------------------------------------------------------------------------------=
