
     Program PWSCF v.6.3 starts on 25Mar2020 at  7: 5:44 

     This program is part of the open-source Quantum ESPRESSO suite
     for quantum simulation of materials; please cite
         "P. Giannozzi et al., J. Phys.:Condens. Matter 21 395502 (2009);
         "P. Giannozzi et al., J. Phys.:Condens. Matter 29 465901 (2017);
          URL http://www.quantum-espresso.org", 
     in publications or presentations arising from this work. More details at
     http://www.quantum-espresso.org/quote

     Parallel version (MPI & OpenMP), running on      20 processor cores
     Number of MPI processes:                20
     Threads/MPI process:                     1

     MPI processes distributed on     1 nodes
     R & G space division:  proc/nbgrp/npool/nimage =      20
     Reading input from /rds/homes/b/bxp912/jobs/20200324_al_eos_e/wd/pwscf_ec/ec_3_8.in
Warning: card &IONS ignored
Warning: card ION_DYNAMICS = 'BFGS', ignored
Warning: card / ignored
Warning: card &CELL ignored
Warning: card CELL_DYNAMICS = 'BFGS', ignored
Warning: card CELL_FACTOR = 2.0, ignored
Warning: card PRESS = 0.0, ignored
Warning: card / ignored

     Current dimensions of program PWSCF are:
     Max number of different atomic species (ntypx) = 10
     Max number of k-points (npk) =  40000
     Max angular momentum in pseudopotentials (lmaxx) =  3
     Message from routine read_upf::
     Pseudo file /rds/homes/b/bxp912/pp/Al.pbe-nl-kjpaw_psl.1.0.0.UPF has been successfully fixed on the fly.
To avoid this message in the future you can permanently fix 
 your pseudo files following instructions given in: 
https://gitlab.com/QEF/q-e/blob/master/upftools/how_to_fix_upf.md
               file Al.pbe-nl-kjpaw_psl.1.0.0.UPF: wavefunction(s)  3S 3P renormalized

     Subspace diagonalization in iterative solution of the eigenvalue problem:
     a serial algorithm will be used

     Found symmetry operation: I + (  0.2500  0.2500  0.0000)
     This is a supercell, fractional translations are disabled
 
     Parallelization info
     --------------------
     sticks:   dense  smooth     PW     G-vecs:    dense   smooth      PW
     Min         185     185     51                 8533     8533    1236
     Max         186     186     53                 8538     8538    1239
     Sum        3705    3705   1033               170701   170701   24749
 


     bravais-lattice index     =            0
     lattice parameter (alat)  =      15.2652  a.u.
     unit-cell volume          =    3572.9751 (a.u.)^3
     number of atoms/cell      =           32
     number of atomic types    =            1
     number of electrons       =        96.00
     number of Kohn-Sham states=           58
     kinetic-energy cutoff     =      50.0000  Ry
     charge density cutoff     =     200.0000  Ry
     convergence threshold     =      1.0E-06
     mixing beta               =       0.1000
     number of iterations used =           10  plain     mixing
     Exchange-correlation      = SLA PW PBX PBC ( 1  4  3  4 0 0)

     celldm(1)=  15.265160  celldm(2)=   0.000000  celldm(3)=   0.000000
     celldm(4)=   0.000000  celldm(5)=   0.000000  celldm(6)=   0.000000

     crystal axes: (cart. coord. in units of alat)
               a(1) = (   1.000000   0.000000   0.000000 )  
               a(2) = (   0.000000   1.000000   0.000000 )  
               a(3) = (   0.000000   0.000000   1.004444 )  

     reciprocal axes: (cart. coord. in units 2 pi/alat)
               b(1) = (  1.000000  0.000000  0.000000 )  
               b(2) = (  0.000000  1.000000  0.000000 )  
               b(3) = (  0.000000  0.000000  0.995575 )  


     PseudoPot. # 1 for Al read from file:
     /rds/homes/b/bxp912/pp/Al.pbe-nl-kjpaw_psl.1.0.0.UPF
     MD5 check sum: 339dbea23cf3ab9a065ad45c0f9085d7
     Pseudo is Projector augmented-wave + core cor, Zval =  3.0
     Generated using "atomic" code by A. Dal Corso v.5.1
     Shape of augmentation charge: PSQ
     Using radial grid of 1135 points,  4 beta functions with: 
                l(1) =   0
                l(2) =   0
                l(3) =   1
                l(4) =   1
     Q(r) pseudized with 0 coefficients 


     atomic species   valence    mass     pseudopotential
        Al             3.00    26.98200     Al( 1.00)

     16 Sym. Ops., with inversion, found



   Cartesian axes

     site n.     atom                  positions (alat units)
         1           Al  tau(   1) = (   0.0000000   0.0000000   0.0000000  )
         2           Al  tau(   2) = (   0.2500000   0.2500000   0.0000000  )
         3           Al  tau(   3) = (   0.2500000   0.0000000   0.2511111  )
         4           Al  tau(   4) = (   0.0000000   0.2500000   0.2511111  )
         5           Al  tau(   5) = (   0.0000000   0.0000000   0.5022222  )
         6           Al  tau(   6) = (   0.2500000   0.2500000   0.5022222  )
         7           Al  tau(   7) = (   0.2500000   0.0000000   0.7533333  )
         8           Al  tau(   8) = (   0.0000000   0.2500000   0.7533333  )
         9           Al  tau(   9) = (   0.0000000   0.5000000   0.0000000  )
        10           Al  tau(  10) = (   0.2500000   0.7500000   0.0000000  )
        11           Al  tau(  11) = (   0.2500000   0.5000000   0.2511111  )
        12           Al  tau(  12) = (   0.0000000   0.7500000   0.2511111  )
        13           Al  tau(  13) = (   0.0000000   0.5000000   0.5022222  )
        14           Al  tau(  14) = (   0.2500000   0.7500000   0.5022222  )
        15           Al  tau(  15) = (   0.2500000   0.5000000   0.7533333  )
        16           Al  tau(  16) = (   0.0000000   0.7500000   0.7533333  )
        17           Al  tau(  17) = (   0.5000000   0.0000000   0.0000000  )
        18           Al  tau(  18) = (   0.7500000   0.2500000   0.0000000  )
        19           Al  tau(  19) = (   0.7500000   0.0000000   0.2511111  )
        20           Al  tau(  20) = (   0.5000000   0.2500000   0.2511111  )
        21           Al  tau(  21) = (   0.5000000   0.0000000   0.5022222  )
        22           Al  tau(  22) = (   0.7500000   0.2500000   0.5022222  )
        23           Al  tau(  23) = (   0.7500000   0.0000000   0.7533333  )
        24           Al  tau(  24) = (   0.5000000   0.2500000   0.7533333  )
        25           Al  tau(  25) = (   0.5000000   0.5000000   0.0000000  )
        26           Al  tau(  26) = (   0.7500000   0.7500000   0.0000000  )
        27           Al  tau(  27) = (   0.7500000   0.5000000   0.2511111  )
        28           Al  tau(  28) = (   0.5000000   0.7500000   0.2511111  )
        29           Al  tau(  29) = (   0.5000000   0.5000000   0.5022222  )
        30           Al  tau(  30) = (   0.7500000   0.7500000   0.5022222  )
        31           Al  tau(  31) = (   0.7500000   0.5000000   0.7533333  )
        32           Al  tau(  32) = (   0.5000000   0.7500000   0.7533333  )

     number of k points=   126  Marzari-Vanderbilt smearing, width (Ry)=  0.0400

     Number of k-points >= 100: set verbosity='high' to print them.

     Dense  grid:   170701 G-vectors     FFT dimensions: (  72,  72,  72)

     Estimated max dynamical RAM per process >     148.19 MB

     Estimated total dynamical RAM >       2.89 GB

     Initial potential from superposition of free atoms

     starting charge   95.92671, renormalised to   96.00000
     Starting wfcs are  128 randomized atomic wfcs
     Checking if some PAW data can be deallocated... 

     total cpu time spent up to now is       19.1 secs

     Self-consistent Calculation

     iteration #  1     ecut=    50.00 Ry     beta= 0.10
     Davidson diagonalization with overlap
     ethr =  1.00E-02,  avg # of iterations =  3.1

     Threshold (ethr) on eigenvalues was too large:
     Diagonalizing with lowered threshold

     Davidson diagonalization with overlap
     ethr =  1.91E-04,  avg # of iterations =  4.6

     total cpu time spent up to now is       87.7 secs

     total energy              =   -1264.12445137 Ry
     Harris-Foulkes estimate   =   -1264.13388203 Ry
     estimated scf accuracy    <       0.17947125 Ry

     iteration #  2     ecut=    50.00 Ry     beta= 0.10
     Davidson diagonalization with overlap
     ethr =  1.87E-04,  avg # of iterations =  1.0

     total cpu time spent up to now is      108.3 secs

     total energy              =   -1264.08371761 Ry
     Harris-Foulkes estimate   =   -1264.12522400 Ry
     estimated scf accuracy    <       0.14413049 Ry

     iteration #  3     ecut=    50.00 Ry     beta= 0.10
     Davidson diagonalization with overlap
     ethr =  1.50E-04,  avg # of iterations =  1.0

     total cpu time spent up to now is      129.3 secs

     total energy              =   -1264.08645339 Ry
     Harris-Foulkes estimate   =   -1264.08645676 Ry
     estimated scf accuracy    <       0.00024174 Ry

     iteration #  4     ecut=    50.00 Ry     beta= 0.10
     Davidson diagonalization with overlap
     c_bands:  1 eigenvalues not converged
     c_bands:  1 eigenvalues not converged
     c_bands:  1 eigenvalues not converged
     c_bands:  1 eigenvalues not converged
     c_bands:  1 eigenvalues not converged
     c_bands:  1 eigenvalues not converged
     c_bands:  1 eigenvalues not converged
     c_bands:  1 eigenvalues not converged
     c_bands:  1 eigenvalues not converged
     c_bands:  1 eigenvalues not converged
     c_bands:  1 eigenvalues not converged
     c_bands:  2 eigenvalues not converged
     c_bands:  1 eigenvalues not converged
     c_bands:  2 eigenvalues not converged
     c_bands:  1 eigenvalues not converged
     ethr =  2.52E-07,  avg # of iterations =  7.8

     total cpu time spent up to now is      180.1 secs

     total energy              =   -1264.08743413 Ry
     Harris-Foulkes estimate   =   -1264.08731483 Ry
     estimated scf accuracy    <       0.00021687 Ry

     iteration #  5     ecut=    50.00 Ry     beta= 0.10
     Davidson diagonalization with overlap
     c_bands:  2 eigenvalues not converged
     ethr =  2.26E-07,  avg # of iterations =  1.9

     total cpu time spent up to now is      202.1 secs

     total energy              =   -1264.08721643 Ry
     Harris-Foulkes estimate   =   -1264.08743702 Ry
     estimated scf accuracy    <       0.00047748 Ry

     iteration #  6     ecut=    50.00 Ry     beta= 0.10
     Davidson diagonalization with overlap
     ethr =  2.26E-07,  avg # of iterations =  2.1

     total cpu time spent up to now is      226.9 secs

     total energy              =   -1264.08723463 Ry
     Harris-Foulkes estimate   =   -1264.08723725 Ry
     estimated scf accuracy    <       0.00000860 Ry

     iteration #  7     ecut=    50.00 Ry     beta= 0.10
     Davidson diagonalization with overlap
     c_bands:  2 eigenvalues not converged
     ethr =  8.96E-09,  avg # of iterations =  4.5

     total cpu time spent up to now is      266.0 secs

     total energy              =   -1264.08723938 Ry
     Harris-Foulkes estimate   =   -1264.08723909 Ry
     estimated scf accuracy    <       0.00000151 Ry

     iteration #  8     ecut=    50.00 Ry     beta= 0.10
     Davidson diagonalization with overlap
     ethr =  1.57E-09,  avg # of iterations =  2.5

     total cpu time spent up to now is      291.1 secs

     total energy              =   -1264.08723892 Ry
     Harris-Foulkes estimate   =   -1264.08723954 Ry
     estimated scf accuracy    <       0.00000416 Ry

     iteration #  9     ecut=    50.00 Ry     beta= 0.10
     Davidson diagonalization with overlap
     ethr =  1.57E-09,  avg # of iterations =  1.9

     total cpu time spent up to now is      313.6 secs

     total energy              =   -1264.08723866 Ry
     Harris-Foulkes estimate   =   -1264.08723904 Ry
     estimated scf accuracy    <       0.00000181 Ry

     iteration # 10     ecut=    50.00 Ry     beta= 0.10
     Davidson diagonalization with overlap
     ethr =  1.57E-09,  avg # of iterations =  2.9

     total cpu time spent up to now is      340.2 secs

     End of self-consistent calculation

     Number of k-points >= 100: set verbosity='high' to print the bands.

     the Fermi energy is     7.8825 ev

!    total energy              =   -1264.08723885 Ry
     Harris-Foulkes estimate   =   -1264.08723884 Ry
     estimated scf accuracy    <       0.00000012 Ry

     total all-electron energy =    -15540.656261 Ry

     The total energy is the sum of the following terms:

     one-electron contribution =     100.99341721 Ry
     hartree contribution      =       0.19609173 Ry
     xc contribution           =     -82.85882642 Ry
     ewald contribution        =    -172.74492417 Ry
     one-center paw contrib.   =   -1109.67017939 Ry
     smearing contrib. (-TS)   =      -0.00281780 Ry

     convergence has been achieved in  10 iterations

     Forces acting on atoms (cartesian axes, Ry/au):

     atom    1 type  1   force =     0.00000000    0.00000000    0.00000000
     atom    2 type  1   force =     0.00001273    0.00001273    0.00000000
     atom    3 type  1   force =     0.00000456   -0.00000000   -0.00000097
     atom    4 type  1   force =     0.00000000    0.00000456   -0.00000097
     atom    5 type  1   force =     0.00000000    0.00000000    0.00000000
     atom    6 type  1   force =     0.00000431    0.00000431    0.00000000
     atom    7 type  1   force =     0.00000456    0.00000000    0.00000097
     atom    8 type  1   force =    -0.00000000    0.00000456    0.00000097
     atom    9 type  1   force =     0.00000000    0.00000000    0.00000000
     atom   10 type  1   force =     0.00001273   -0.00001273   -0.00000000
     atom   11 type  1   force =     0.00001279    0.00000000   -0.00000852
     atom   12 type  1   force =     0.00000000   -0.00000456   -0.00000097
     atom   13 type  1   force =     0.00000000    0.00000000    0.00000000
     atom   14 type  1   force =     0.00000431   -0.00000431    0.00000000
     atom   15 type  1   force =     0.00001279   -0.00000000    0.00000852
     atom   16 type  1   force =     0.00000000   -0.00000456    0.00000097
     atom   17 type  1   force =     0.00000000    0.00000000    0.00000000
     atom   18 type  1   force =    -0.00001273    0.00001273   -0.00000000
     atom   19 type  1   force =    -0.00000456    0.00000000   -0.00000097
     atom   20 type  1   force =     0.00000000    0.00001279   -0.00000852
     atom   21 type  1   force =     0.00000000    0.00000000    0.00000000
     atom   22 type  1   force =    -0.00000431    0.00000431    0.00000000
     atom   23 type  1   force =    -0.00000456   -0.00000000    0.00000097
     atom   24 type  1   force =    -0.00000000    0.00001279    0.00000852
     atom   25 type  1   force =     0.00000000    0.00000000    0.00000000
     atom   26 type  1   force =    -0.00001273   -0.00001273    0.00000000
     atom   27 type  1   force =    -0.00001279   -0.00000000   -0.00000852
     atom   28 type  1   force =    -0.00000000   -0.00001279   -0.00000852
     atom   29 type  1   force =     0.00000000    0.00000000    0.00000000
     atom   30 type  1   force =    -0.00000431   -0.00000431    0.00000000
     atom   31 type  1   force =    -0.00001279    0.00000000    0.00000852
     atom   32 type  1   force =     0.00000000   -0.00001279    0.00000852

     Total force =     0.000059     Total SCF correction =     0.000280
     SCF correction compared to forces is large: reduce conv_thr to get better values


     Computing stress (Cartesian axis) and pressure

          total   stress  (Ry/bohr**3)                   (kbar)     P=   -3.35
  -0.00001752   0.00000000   0.00000000         -2.58      0.00      0.00
   0.00000000  -0.00001752   0.00000000          0.00     -2.58      0.00
   0.00000000   0.00000000  -0.00003329          0.00      0.00     -4.90


     Writing output data file QyTWKhJVDRQRmAUW.save/
 
     init_run     :     18.10s CPU     18.57s WALL (       1 calls)
     electrons    :    313.56s CPU    321.17s WALL (       1 calls)
     forces       :      4.64s CPU      4.82s WALL (       1 calls)
     stress       :     53.63s CPU     53.81s WALL (       1 calls)

     Called by init_run:
     wfcinit      :     17.75s CPU     18.18s WALL (       1 calls)
     potinit      :      0.11s CPU      0.12s WALL (       1 calls)
     hinit0       :      0.11s CPU      0.14s WALL (       1 calls)

     Called by electrons:
     c_bands      :    274.20s CPU    280.52s WALL (      11 calls)
     sum_band     :     38.41s CPU     39.55s WALL (      11 calls)
     v_of_rho     :      0.13s CPU      0.15s WALL (      11 calls)
     newd         :      0.13s CPU      0.23s WALL (      11 calls)
     PAW_pot      :      0.70s CPU      0.71s WALL (      11 calls)
     mix_rho      :      0.05s CPU      0.06s WALL (      11 calls)

     Called by c_bands:
     init_us_2    :      5.58s CPU      5.67s WALL (    3150 calls)
     cegterg      :    258.37s CPU    263.23s WALL (    1386 calls)

     Called by sum_band:
     sum_band:bec :      0.16s CPU      0.17s WALL (    1386 calls)
     addusdens    :      0.10s CPU      0.21s WALL (      11 calls)

     Called by *egterg:
     h_psi        :    185.84s CPU    190.15s WALL (    5720 calls)
     s_psi        :     18.69s CPU     18.77s WALL (    5720 calls)
     g_psi        :      1.05s CPU      1.06s WALL (    4208 calls)
     cdiaghg      :     33.11s CPU     33.21s WALL (    5468 calls)

     Called by h_psi:
     h_psi:pot    :    184.92s CPU    189.21s WALL (    5720 calls)
     h_psi:calbec :     19.31s CPU     20.29s WALL (    5720 calls)
     vloc_psi     :    147.10s CPU    150.34s WALL (    5720 calls)
     add_vuspsi   :     18.46s CPU     18.55s WALL (    5720 calls)

     General routines
     calbec       :     29.37s CPU     30.89s WALL (    7736 calls)
     fft          :      0.15s CPU      0.19s WALL (     148 calls)
     ffts         :      0.01s CPU      0.01s WALL (      11 calls)
     fftw         :    160.71s CPU    164.17s WALL (  532034 calls)
 
     Parallel routines
     fft_scatt_xy :     17.32s CPU     17.71s WALL (  532193 calls)
     fft_scatt_yz :     73.02s CPU     74.71s WALL (  532193 calls)
 
     PWSCF        :  6m32.76s CPU     6m50.56s WALL

 
   This run was terminated on:   7:12:35  25Mar2020            

=------------------------------------------------------------------------------=
   JOB DONE.
=------------------------------------------------------------------------------=
