
     Program PWSCF v.6.3 starts on 25Mar2020 at  8:31: 7 

     This program is part of the open-source Quantum ESPRESSO suite
     for quantum simulation of materials; please cite
         "P. Giannozzi et al., J. Phys.:Condens. Matter 21 395502 (2009);
         "P. Giannozzi et al., J. Phys.:Condens. Matter 29 465901 (2017);
          URL http://www.quantum-espresso.org", 
     in publications or presentations arising from this work. More details at
     http://www.quantum-espresso.org/quote

     Parallel version (MPI & OpenMP), running on      20 processor cores
     Number of MPI processes:                20
     Threads/MPI process:                     1

     MPI processes distributed on     1 nodes
     R & G space division:  proc/nbgrp/npool/nimage =      20
     Reading input from /rds/homes/b/bxp912/jobs/20200324_al_eos_e/wd/pwscf_ec/ec_4_7.in
Warning: card &IONS ignored
Warning: card ION_DYNAMICS = 'BFGS', ignored
Warning: card / ignored
Warning: card &CELL ignored
Warning: card CELL_DYNAMICS = 'BFGS', ignored
Warning: card CELL_FACTOR = 2.0, ignored
Warning: card PRESS = 0.0, ignored
Warning: card / ignored

     Current dimensions of program PWSCF are:
     Max number of different atomic species (ntypx) = 10
     Max number of k-points (npk) =  40000
     Max angular momentum in pseudopotentials (lmaxx) =  3
     Message from routine read_upf::
     Pseudo file /rds/homes/b/bxp912/pp/Al.pbe-nl-kjpaw_psl.1.0.0.UPF has been successfully fixed on the fly.
To avoid this message in the future you can permanently fix 
 your pseudo files following instructions given in: 
https://gitlab.com/QEF/q-e/blob/master/upftools/how_to_fix_upf.md
               file Al.pbe-nl-kjpaw_psl.1.0.0.UPF: wavefunction(s)  3S 3P renormalized

     Subspace diagonalization in iterative solution of the eigenvalue problem:
     a serial algorithm will be used

     Found symmetry operation: I + (  0.2500  0.2500  0.0000)
     This is a supercell, fractional translations are disabled
 
     Parallelization info
     --------------------
     sticks:   dense  smooth     PW     G-vecs:    dense   smooth      PW
     Min         185     185     51                 8497     8497    1228
     Max         186     186     53                 8503     8503    1231
     Sum        3705    3705   1033               169969   169969   24585
 


     bravais-lattice index     =            0
     lattice parameter (alat)  =      15.2652  a.u.
     unit-cell volume          =    3557.1654 (a.u.)^3
     number of atoms/cell      =           32
     number of atomic types    =            1
     number of electrons       =        96.00
     number of Kohn-Sham states=           58
     kinetic-energy cutoff     =      50.0000  Ry
     charge density cutoff     =     200.0000  Ry
     convergence threshold     =      1.0E-06
     mixing beta               =       0.1000
     number of iterations used =           10  plain     mixing
     Exchange-correlation      = SLA PW PBX PBC ( 1  4  3  4 0 0)

     celldm(1)=  15.265160  celldm(2)=   0.000000  celldm(3)=   0.000000
     celldm(4)=   0.000000  celldm(5)=   0.000000  celldm(6)=   0.000000

     crystal axes: (cart. coord. in units of alat)
               a(1) = (   1.000005   0.000000   0.000000 )  
               a(2) = (   0.000000   1.000005   0.003889 )  
               a(3) = (   0.000000   0.003889   1.000005 )  

     reciprocal axes: (cart. coord. in units 2 pi/alat)
               b(1) = (  0.999995  0.000000  0.000000 )  
               b(2) = (  0.000000  1.000010 -0.003889 )  
               b(3) = (  0.000000 -0.003889  1.000010 )  


     PseudoPot. # 1 for Al read from file:
     /rds/homes/b/bxp912/pp/Al.pbe-nl-kjpaw_psl.1.0.0.UPF
     MD5 check sum: 339dbea23cf3ab9a065ad45c0f9085d7
     Pseudo is Projector augmented-wave + core cor, Zval =  3.0
     Generated using "atomic" code by A. Dal Corso v.5.1
     Shape of augmentation charge: PSQ
     Using radial grid of 1135 points,  4 beta functions with: 
                l(1) =   0
                l(2) =   0
                l(3) =   1
                l(4) =   1
     Q(r) pseudized with 0 coefficients 


     atomic species   valence    mass     pseudopotential
        Al             3.00    26.98200     Al( 1.00)

      8 Sym. Ops., with inversion, found



   Cartesian axes

     site n.     atom                  positions (alat units)
         1           Al  tau(   1) = (   0.0000000   0.0000000   0.0000000  )
         2           Al  tau(   2) = (   0.2500013   0.2500013   0.0009722  )
         3           Al  tau(   3) = (   0.2500013   0.0009722   0.2500013  )
         4           Al  tau(   4) = (   0.0000000   0.2509735   0.2509735  )
         5           Al  tau(   5) = (   0.0000000   0.0019445   0.5000025  )
         6           Al  tau(   6) = (   0.2500013   0.2519457   0.5009747  )
         7           Al  tau(   7) = (   0.2500013   0.0029167   0.7500038  )
         8           Al  tau(   8) = (   0.0000000   0.2529179   0.7509760  )
         9           Al  tau(   9) = (   0.0000000   0.5000025   0.0019445  )
        10           Al  tau(  10) = (   0.2500013   0.7500038   0.0029167  )
        11           Al  tau(  11) = (   0.2500013   0.5009747   0.2519457  )
        12           Al  tau(  12) = (   0.0000000   0.7509760   0.2529179  )
        13           Al  tau(  13) = (   0.0000000   0.5019470   0.5019470  )
        14           Al  tau(  14) = (   0.2500013   0.7519482   0.5029192  )
        15           Al  tau(  15) = (   0.2500013   0.5029192   0.7519482  )
        16           Al  tau(  16) = (   0.0000000   0.7529205   0.7529205  )
        17           Al  tau(  17) = (   0.5000025   0.0000000   0.0000000  )
        18           Al  tau(  18) = (   0.7500038   0.2500013   0.0009722  )
        19           Al  tau(  19) = (   0.7500038   0.0009722   0.2500013  )
        20           Al  tau(  20) = (   0.5000025   0.2509735   0.2509735  )
        21           Al  tau(  21) = (   0.5000025   0.0019445   0.5000025  )
        22           Al  tau(  22) = (   0.7500038   0.2519457   0.5009747  )
        23           Al  tau(  23) = (   0.7500038   0.0029167   0.7500038  )
        24           Al  tau(  24) = (   0.5000025   0.2529179   0.7509760  )
        25           Al  tau(  25) = (   0.5000025   0.5000025   0.0019445  )
        26           Al  tau(  26) = (   0.7500038   0.7500038   0.0029167  )
        27           Al  tau(  27) = (   0.7500038   0.5009747   0.2519457  )
        28           Al  tau(  28) = (   0.5000025   0.7509760   0.2529179  )
        29           Al  tau(  29) = (   0.5000025   0.5019470   0.5019470  )
        30           Al  tau(  30) = (   0.7500038   0.7519482   0.5029192  )
        31           Al  tau(  31) = (   0.7500038   0.5029192   0.7519482  )
        32           Al  tau(  32) = (   0.5000025   0.7529205   0.7529205  )

     number of k points=   216  Marzari-Vanderbilt smearing, width (Ry)=  0.0400

     Number of k-points >= 100: set verbosity='high' to print them.

     Dense  grid:   169969 G-vectors     FFT dimensions: (  72,  72,  72)

     Estimated max dynamical RAM per process >     232.03 MB

     Estimated total dynamical RAM >       4.53 GB

     Initial potential from superposition of free atoms

     starting charge   95.92671, renormalised to   96.00000
     Starting wfcs are  128 randomized atomic wfcs
     Checking if some PAW data can be deallocated... 

     total cpu time spent up to now is       32.3 secs

     Self-consistent Calculation

     iteration #  1     ecut=    50.00 Ry     beta= 0.10
     Davidson diagonalization with overlap
     ethr =  1.00E-02,  avg # of iterations =  3.1

     Threshold (ethr) on eigenvalues was too large:
     Diagonalizing with lowered threshold

     Davidson diagonalization with overlap
     ethr =  1.91E-04,  avg # of iterations =  4.7

     total cpu time spent up to now is      155.6 secs

     total energy              =   -1264.12447981 Ry
     Harris-Foulkes estimate   =   -1264.13391186 Ry
     estimated scf accuracy    <       0.17943862 Ry

     iteration #  2     ecut=    50.00 Ry     beta= 0.10
     Davidson diagonalization with overlap
     ethr =  1.87E-04,  avg # of iterations =  1.0

     total cpu time spent up to now is      192.4 secs

     total energy              =   -1264.08374900 Ry
     Harris-Foulkes estimate   =   -1264.12525649 Ry
     estimated scf accuracy    <       0.14411520 Ry

     iteration #  3     ecut=    50.00 Ry     beta= 0.10
     Davidson diagonalization with overlap
     ethr =  1.50E-04,  avg # of iterations =  1.0

     total cpu time spent up to now is      229.4 secs

     total energy              =   -1264.08646509 Ry
     Harris-Foulkes estimate   =   -1264.08647083 Ry
     estimated scf accuracy    <       0.00024961 Ry

     iteration #  4     ecut=    50.00 Ry     beta= 0.10
     Davidson diagonalization with overlap
     c_bands:  1 eigenvalues not converged
     c_bands:  1 eigenvalues not converged
     c_bands:  1 eigenvalues not converged
     c_bands:  1 eigenvalues not converged
     c_bands:  2 eigenvalues not converged
     c_bands:  1 eigenvalues not converged
     c_bands:  1 eigenvalues not converged
     c_bands:  1 eigenvalues not converged
     c_bands:  1 eigenvalues not converged
     c_bands:  1 eigenvalues not converged
     c_bands:  1 eigenvalues not converged
     c_bands:  1 eigenvalues not converged
     c_bands:  1 eigenvalues not converged
     c_bands:  1 eigenvalues not converged
     c_bands:  1 eigenvalues not converged
     c_bands:  1 eigenvalues not converged
     c_bands:  1 eigenvalues not converged
     c_bands:  2 eigenvalues not converged
     ethr =  2.60E-07,  avg # of iterations =  7.8

     total cpu time spent up to now is      320.4 secs

     total energy              =   -1264.08744912 Ry
     Harris-Foulkes estimate   =   -1264.08732300 Ry
     estimated scf accuracy    <       0.00022137 Ry

     iteration #  5     ecut=    50.00 Ry     beta= 0.10
     Davidson diagonalization with overlap
     c_bands:  1 eigenvalues not converged
     c_bands:  1 eigenvalues not converged
     ethr =  2.31E-07,  avg # of iterations =  1.8

     total cpu time spent up to now is      360.0 secs

     total energy              =   -1264.08722591 Ry
     Harris-Foulkes estimate   =   -1264.08745283 Ry
     estimated scf accuracy    <       0.00050533 Ry

     iteration #  6     ecut=    50.00 Ry     beta= 0.10
     Davidson diagonalization with overlap
     c_bands:  1 eigenvalues not converged
     ethr =  2.31E-07,  avg # of iterations =  2.1

     total cpu time spent up to now is      401.8 secs

     total energy              =   -1264.08724464 Ry
     Harris-Foulkes estimate   =   -1264.08724760 Ry
     estimated scf accuracy    <       0.00001532 Ry

     iteration #  7     ecut=    50.00 Ry     beta= 0.10
     Davidson diagonalization with overlap
     c_bands:  1 eigenvalues not converged
     ethr =  1.60E-08,  avg # of iterations =  4.7

     total cpu time spent up to now is      476.0 secs

     total energy              =   -1264.08725485 Ry
     Harris-Foulkes estimate   =   -1264.08725291 Ry
     estimated scf accuracy    <       0.00002377 Ry

     iteration #  8     ecut=    50.00 Ry     beta= 0.10
     Davidson diagonalization with overlap
     ethr =  1.60E-08,  avg # of iterations =  2.9

     total cpu time spent up to now is      524.3 secs

     total energy              =   -1264.08724282 Ry
     Harris-Foulkes estimate   =   -1264.08725728 Ry
     estimated scf accuracy    <       0.00005148 Ry

     iteration #  9     ecut=    50.00 Ry     beta= 0.10
     Davidson diagonalization with overlap
     ethr =  1.60E-08,  avg # of iterations =  3.1

     total cpu time spent up to now is      576.4 secs

     total energy              =   -1264.08724533 Ry
     Harris-Foulkes estimate   =   -1264.08724690 Ry
     estimated scf accuracy    <       0.00000538 Ry

     iteration # 10     ecut=    50.00 Ry     beta= 0.10
     Davidson diagonalization with overlap
     ethr =  5.60E-09,  avg # of iterations =  3.6

     total cpu time spent up to now is      628.4 secs

     End of self-consistent calculation

     Number of k-points >= 100: set verbosity='high' to print the bands.

     the Fermi energy is     7.9284 ev

!    total energy              =   -1264.08724612 Ry
     Harris-Foulkes estimate   =   -1264.08724625 Ry
     estimated scf accuracy    <       0.00000031 Ry

     total all-electron energy =    -15540.656268 Ry

     The total energy is the sum of the following terms:

     one-electron contribution =     101.33467490 Ry
     hartree contribution      =       0.19723148 Ry
     xc contribution           =     -82.93466846 Ry
     ewald contribution        =    -172.99943574 Ry
     one-center paw contrib.   =   -1109.68232054 Ry
     smearing contrib. (-TS)   =      -0.00272775 Ry

     convergence has been achieved in  10 iterations

     Forces acting on atoms (cartesian axes, Ry/au):

     atom    1 type  1   force =     0.00000000    0.00000000    0.00000000
     atom    2 type  1   force =     0.00000338    0.00000055    0.00001313
     atom    3 type  1   force =     0.00000338    0.00001313    0.00000055
     atom    4 type  1   force =     0.00000000   -0.00000537   -0.00000537
     atom    5 type  1   force =    -0.00000000    0.00000000    0.00000000
     atom    6 type  1   force =     0.00000700   -0.00000584   -0.00001395
     atom    7 type  1   force =     0.00000338   -0.00001313   -0.00000055
     atom    8 type  1   force =     0.00000000   -0.00000288    0.00000288
     atom    9 type  1   force =     0.00000000    0.00000000    0.00000000
     atom   10 type  1   force =     0.00000338   -0.00000055   -0.00001313
     atom   11 type  1   force =     0.00000700   -0.00001395   -0.00000584
     atom   12 type  1   force =     0.00000000    0.00000288   -0.00000288
     atom   13 type  1   force =     0.00000000    0.00000000    0.00000000
     atom   14 type  1   force =     0.00000700    0.00000584    0.00001395
     atom   15 type  1   force =     0.00000700    0.00001395    0.00000584
     atom   16 type  1   force =     0.00000000    0.00000537    0.00000537
     atom   17 type  1   force =     0.00000000    0.00000000    0.00000000
     atom   18 type  1   force =    -0.00000338    0.00000055    0.00001313
     atom   19 type  1   force =    -0.00000338    0.00001313    0.00000055
     atom   20 type  1   force =     0.00000000    0.00000096    0.00000096
     atom   21 type  1   force =     0.00000000    0.00000000    0.00000000
     atom   22 type  1   force =    -0.00000700   -0.00000584   -0.00001395
     atom   23 type  1   force =    -0.00000338   -0.00001313   -0.00000055
     atom   24 type  1   force =    -0.00000000   -0.00000188    0.00000188
     atom   25 type  1   force =     0.00000000    0.00000000    0.00000000
     atom   26 type  1   force =    -0.00000338   -0.00000055   -0.00001313
     atom   27 type  1   force =    -0.00000700   -0.00001395   -0.00000584
     atom   28 type  1   force =    -0.00000000    0.00000188   -0.00000188
     atom   29 type  1   force =     0.00000000    0.00000000    0.00000000
     atom   30 type  1   force =    -0.00000700    0.00000584    0.00001395
     atom   31 type  1   force =    -0.00000700    0.00001395    0.00000584
     atom   32 type  1   force =     0.00000000   -0.00000096   -0.00000096

     Total force =     0.000062     Total SCF correction =     0.000473
     SCF correction compared to forces is large: reduce conv_thr to get better values


     Computing stress (Cartesian axis) and pressure

          total   stress  (Ry/bohr**3)                   (kbar)     P=    0.10
   0.00000040   0.00000000   0.00000000          0.06      0.00      0.00
   0.00000000   0.00000085  -0.00001814          0.00      0.12     -2.67
   0.00000000  -0.00001814   0.00000085          0.00     -2.67      0.12


     Writing output data file htztileurJoHyWxp.save/
 
     init_run     :     30.89s CPU     31.79s WALL (       1 calls)
     electrons    :    584.19s CPU    596.07s WALL (       1 calls)
     forces       :      7.64s CPU      7.87s WALL (       1 calls)
     stress       :     41.43s CPU     41.59s WALL (       1 calls)

     Called by init_run:
     wfcinit      :     30.41s CPU     31.27s WALL (       1 calls)
     potinit      :      0.15s CPU      0.15s WALL (       1 calls)
     hinit0       :      0.19s CPU      0.22s WALL (       1 calls)

     Called by electrons:
     c_bands      :    516.39s CPU    526.16s WALL (      11 calls)
     sum_band     :     66.87s CPU     68.83s WALL (      11 calls)
     v_of_rho     :      0.14s CPU      0.15s WALL (      11 calls)
     newd         :      0.13s CPU      0.23s WALL (      11 calls)
     PAW_pot      :      0.69s CPU      0.70s WALL (      11 calls)
     mix_rho      :      0.04s CPU      0.05s WALL (      11 calls)

     Called by c_bands:
     init_us_2    :     10.02s CPU     10.19s WALL (    5400 calls)
     cegterg      :    489.20s CPU    498.35s WALL (    2376 calls)

     Called by sum_band:
     sum_band:bec :      0.29s CPU      0.29s WALL (    2376 calls)
     addusdens    :      0.10s CPU      0.22s WALL (      11 calls)

     Called by *egterg:
     h_psi        :    340.59s CPU    348.66s WALL (   10349 calls)
     s_psi        :     33.15s CPU     33.28s WALL (   10349 calls)
     g_psi        :      1.91s CPU      1.92s WALL (    7757 calls)
     cdiaghg      :     63.91s CPU     64.11s WALL (    9917 calls)

     Called by h_psi:
     h_psi:pot    :    337.80s CPU    345.84s WALL (   10349 calls)
     h_psi:calbec :     35.38s CPU     37.10s WALL (   10349 calls)
     vloc_psi     :    269.31s CPU    275.50s WALL (   10349 calls)
     add_vuspsi   :     33.02s CPU     33.17s WALL (   10349 calls)

     General routines
     calbec       :     51.72s CPU     54.31s WALL (   13805 calls)
     fft          :      0.18s CPU      0.22s WALL (     148 calls)
     ffts         :      0.01s CPU      0.01s WALL (      11 calls)
     fftw         :    291.64s CPU    298.20s WALL (  937742 calls)
 
     Parallel routines
     fft_scatt_xy :     30.37s CPU     31.07s WALL (  937901 calls)
     fft_scatt_yz :    136.48s CPU    139.69s WALL (  937901 calls)
 
     PWSCF        : 11m 8.68s CPU    11m38.76s WALL

 
   This run was terminated on:   8:42:46  25Mar2020            

=------------------------------------------------------------------------------=
   JOB DONE.
=------------------------------------------------------------------------------=
