
     Program PWSCF v.6.3 starts on 25Mar2020 at  8: 5:57 

     This program is part of the open-source Quantum ESPRESSO suite
     for quantum simulation of materials; please cite
         "P. Giannozzi et al., J. Phys.:Condens. Matter 21 395502 (2009);
         "P. Giannozzi et al., J. Phys.:Condens. Matter 29 465901 (2017);
          URL http://www.quantum-espresso.org", 
     in publications or presentations arising from this work. More details at
     http://www.quantum-espresso.org/quote

     Parallel version (MPI & OpenMP), running on      20 processor cores
     Number of MPI processes:                20
     Threads/MPI process:                     1

     MPI processes distributed on     1 nodes
     R & G space division:  proc/nbgrp/npool/nimage =      20
     Reading input from /rds/homes/b/bxp912/jobs/20200324_al_eos_e/wd/pwscf_ec/ec_4_5.in
Warning: card &IONS ignored
Warning: card ION_DYNAMICS = 'BFGS', ignored
Warning: card / ignored
Warning: card &CELL ignored
Warning: card CELL_DYNAMICS = 'BFGS', ignored
Warning: card CELL_FACTOR = 2.0, ignored
Warning: card PRESS = 0.0, ignored
Warning: card / ignored

     Current dimensions of program PWSCF are:
     Max number of different atomic species (ntypx) = 10
     Max number of k-points (npk) =  40000
     Max angular momentum in pseudopotentials (lmaxx) =  3
     Message from routine read_upf::
     Pseudo file /rds/homes/b/bxp912/pp/Al.pbe-nl-kjpaw_psl.1.0.0.UPF has been successfully fixed on the fly.
To avoid this message in the future you can permanently fix 
 your pseudo files following instructions given in: 
https://gitlab.com/QEF/q-e/blob/master/upftools/how_to_fix_upf.md
               file Al.pbe-nl-kjpaw_psl.1.0.0.UPF: wavefunction(s)  3S 3P renormalized

     Subspace diagonalization in iterative solution of the eigenvalue problem:
     a serial algorithm will be used

     Found symmetry operation: I + (  0.2500  0.2500  0.0000)
     This is a supercell, fractional translations are disabled
 
     Parallelization info
     --------------------
     sticks:   dense  smooth     PW     G-vecs:    dense   smooth      PW
     Min         185     185     51                 8499     8499    1229
     Max         186     186     53                 8505     8505    1231
     Sum        3705    3705   1033               170009   170009   24601
 


     bravais-lattice index     =            0
     lattice parameter (alat)  =      15.2652  a.u.
     unit-cell volume          =    3557.1654 (a.u.)^3
     number of atoms/cell      =           32
     number of atomic types    =            1
     number of electrons       =        96.00
     number of Kohn-Sham states=           58
     kinetic-energy cutoff     =      50.0000  Ry
     charge density cutoff     =     200.0000  Ry
     convergence threshold     =      1.0E-06
     mixing beta               =       0.1000
     number of iterations used =           10  plain     mixing
     Exchange-correlation      = SLA PW PBX PBC ( 1  4  3  4 0 0)

     celldm(1)=  15.265160  celldm(2)=   0.000000  celldm(3)=   0.000000
     celldm(4)=   0.000000  celldm(5)=   0.000000  celldm(6)=   0.000000

     crystal axes: (cart. coord. in units of alat)
               a(1) = (   1.000003   0.000000   0.000000 )  
               a(2) = (   0.000000   1.000003   0.002778 )  
               a(3) = (   0.000000   0.002778   1.000003 )  

     reciprocal axes: (cart. coord. in units 2 pi/alat)
               b(1) = (  0.999997  0.000000  0.000000 )  
               b(2) = (  0.000000  1.000005 -0.002778 )  
               b(3) = (  0.000000 -0.002778  1.000005 )  


     PseudoPot. # 1 for Al read from file:
     /rds/homes/b/bxp912/pp/Al.pbe-nl-kjpaw_psl.1.0.0.UPF
     MD5 check sum: 339dbea23cf3ab9a065ad45c0f9085d7
     Pseudo is Projector augmented-wave + core cor, Zval =  3.0
     Generated using "atomic" code by A. Dal Corso v.5.1
     Shape of augmentation charge: PSQ
     Using radial grid of 1135 points,  4 beta functions with: 
                l(1) =   0
                l(2) =   0
                l(3) =   1
                l(4) =   1
     Q(r) pseudized with 0 coefficients 


     atomic species   valence    mass     pseudopotential
        Al             3.00    26.98200     Al( 1.00)

      8 Sym. Ops., with inversion, found



   Cartesian axes

     site n.     atom                  positions (alat units)
         1           Al  tau(   1) = (   0.0000000   0.0000000   0.0000000  )
         2           Al  tau(   2) = (   0.2500006   0.2500006   0.0006944  )
         3           Al  tau(   3) = (   0.2500006   0.0006944   0.2500006  )
         4           Al  tau(   4) = (   0.0000000   0.2506951   0.2506951  )
         5           Al  tau(   5) = (   0.0000000   0.0013889   0.5000013  )
         6           Al  tau(   6) = (   0.2500006   0.2513895   0.5006957  )
         7           Al  tau(   7) = (   0.2500006   0.0020833   0.7500019  )
         8           Al  tau(   8) = (   0.0000000   0.2520840   0.7506964  )
         9           Al  tau(   9) = (   0.0000000   0.5000013   0.0013889  )
        10           Al  tau(  10) = (   0.2500006   0.7500019   0.0020833  )
        11           Al  tau(  11) = (   0.2500006   0.5006957   0.2513895  )
        12           Al  tau(  12) = (   0.0000000   0.7506964   0.2520840  )
        13           Al  tau(  13) = (   0.0000000   0.5013902   0.5013902  )
        14           Al  tau(  14) = (   0.2500006   0.7513908   0.5020846  )
        15           Al  tau(  15) = (   0.2500006   0.5020846   0.7513908  )
        16           Al  tau(  16) = (   0.0000000   0.7520853   0.7520853  )
        17           Al  tau(  17) = (   0.5000013   0.0000000   0.0000000  )
        18           Al  tau(  18) = (   0.7500019   0.2500006   0.0006944  )
        19           Al  tau(  19) = (   0.7500019   0.0006944   0.2500006  )
        20           Al  tau(  20) = (   0.5000013   0.2506951   0.2506951  )
        21           Al  tau(  21) = (   0.5000013   0.0013889   0.5000013  )
        22           Al  tau(  22) = (   0.7500019   0.2513895   0.5006957  )
        23           Al  tau(  23) = (   0.7500019   0.0020833   0.7500019  )
        24           Al  tau(  24) = (   0.5000013   0.2520840   0.7506964  )
        25           Al  tau(  25) = (   0.5000013   0.5000013   0.0013889  )
        26           Al  tau(  26) = (   0.7500019   0.7500019   0.0020833  )
        27           Al  tau(  27) = (   0.7500019   0.5006957   0.2513895  )
        28           Al  tau(  28) = (   0.5000013   0.7506964   0.2520840  )
        29           Al  tau(  29) = (   0.5000013   0.5013902   0.5013902  )
        30           Al  tau(  30) = (   0.7500019   0.7513908   0.5020846  )
        31           Al  tau(  31) = (   0.7500019   0.5020846   0.7513908  )
        32           Al  tau(  32) = (   0.5000013   0.7520853   0.7520853  )

     number of k points=   216  Marzari-Vanderbilt smearing, width (Ry)=  0.0400

     Number of k-points >= 100: set verbosity='high' to print them.

     Dense  grid:   170009 G-vectors     FFT dimensions: (  72,  72,  72)

     Estimated max dynamical RAM per process >     232.03 MB

     Estimated total dynamical RAM >       4.53 GB

     Initial potential from superposition of free atoms

     starting charge   95.92671, renormalised to   96.00000
     Starting wfcs are  128 randomized atomic wfcs
     Checking if some PAW data can be deallocated... 

     total cpu time spent up to now is       32.3 secs

     Self-consistent Calculation

     iteration #  1     ecut=    50.00 Ry     beta= 0.10
     Davidson diagonalization with overlap
     ethr =  1.00E-02,  avg # of iterations =  3.1

     Threshold (ethr) on eigenvalues was too large:
     Diagonalizing with lowered threshold

     Davidson diagonalization with overlap
     ethr =  1.91E-04,  avg # of iterations =  4.6

     total cpu time spent up to now is      160.5 secs

     total energy              =   -1264.12460500 Ry
     Harris-Foulkes estimate   =   -1264.13403506 Ry
     estimated scf accuracy    <       0.17940026 Ry

     iteration #  2     ecut=    50.00 Ry     beta= 0.10
     Davidson diagonalization with overlap
     ethr =  1.87E-04,  avg # of iterations =  1.1

     total cpu time spent up to now is      197.7 secs

     total energy              =   -1264.08387068 Ry
     Harris-Foulkes estimate   =   -1264.12538223 Ry
     estimated scf accuracy    <       0.14410193 Ry

     iteration #  3     ecut=    50.00 Ry     beta= 0.10
     Davidson diagonalization with overlap
     ethr =  1.50E-04,  avg # of iterations =  1.0

     total cpu time spent up to now is      234.6 secs

     total energy              =   -1264.08658837 Ry
     Harris-Foulkes estimate   =   -1264.08659600 Ry
     estimated scf accuracy    <       0.00024995 Ry

     iteration #  4     ecut=    50.00 Ry     beta= 0.10
     Davidson diagonalization with overlap
     c_bands:  1 eigenvalues not converged
     c_bands:  3 eigenvalues not converged
     c_bands:  2 eigenvalues not converged
     c_bands:  1 eigenvalues not converged
     c_bands:  3 eigenvalues not converged
     c_bands:  1 eigenvalues not converged
     c_bands:  1 eigenvalues not converged
     c_bands:  1 eigenvalues not converged
     c_bands:  1 eigenvalues not converged
     c_bands:  2 eigenvalues not converged
     c_bands:  1 eigenvalues not converged
     c_bands:  3 eigenvalues not converged
     c_bands:  1 eigenvalues not converged
     c_bands:  1 eigenvalues not converged
     c_bands:  1 eigenvalues not converged
     c_bands:  2 eigenvalues not converged
     ethr =  2.60E-07,  avg # of iterations =  7.5

     total cpu time spent up to now is      324.3 secs

     total energy              =   -1264.08754575 Ry
     Harris-Foulkes estimate   =   -1264.08744383 Ry
     estimated scf accuracy    <       0.00021940 Ry

     iteration #  5     ecut=    50.00 Ry     beta= 0.10
     Davidson diagonalization with overlap
     c_bands:  1 eigenvalues not converged
     ethr =  2.29E-07,  avg # of iterations =  1.5

     total cpu time spent up to now is      362.8 secs

     total energy              =   -1264.08734763 Ry
     Harris-Foulkes estimate   =   -1264.08754866 Ry
     estimated scf accuracy    <       0.00044568 Ry

     iteration #  6     ecut=    50.00 Ry     beta= 0.10
     Davidson diagonalization with overlap
     ethr =  2.29E-07,  avg # of iterations =  2.0

     total cpu time spent up to now is      404.3 secs

     total energy              =   -1264.08736784 Ry
     Harris-Foulkes estimate   =   -1264.08736888 Ry
     estimated scf accuracy    <       0.00001389 Ry

     iteration #  7     ecut=    50.00 Ry     beta= 0.10
     Davidson diagonalization with overlap
     c_bands:  1 eigenvalues not converged
     c_bands:  2 eigenvalues not converged
     c_bands:  1 eigenvalues not converged
     ethr =  1.45E-08,  avg # of iterations =  5.0

     total cpu time spent up to now is      494.1 secs

     total energy              =   -1264.08737779 Ry
     Harris-Foulkes estimate   =   -1264.08737607 Ry
     estimated scf accuracy    <       0.00002473 Ry

     iteration #  8     ecut=    50.00 Ry     beta= 0.10
     Davidson diagonalization with overlap
     ethr =  1.45E-08,  avg # of iterations =  3.0

     total cpu time spent up to now is      550.5 secs

     total energy              =   -1264.08736519 Ry
     Harris-Foulkes estimate   =   -1264.08738008 Ry
     estimated scf accuracy    <       0.00005093 Ry

     iteration #  9     ecut=    50.00 Ry     beta= 0.10
     Davidson diagonalization with overlap
     ethr =  1.45E-08,  avg # of iterations =  3.3

     total cpu time spent up to now is      604.6 secs

     total energy              =   -1264.08736828 Ry
     Harris-Foulkes estimate   =   -1264.08736956 Ry
     estimated scf accuracy    <       0.00000420 Ry

     iteration # 10     ecut=    50.00 Ry     beta= 0.10
     Davidson diagonalization with overlap
     ethr =  4.37E-09,  avg # of iterations =  3.7

     total cpu time spent up to now is      657.5 secs

     End of self-consistent calculation

     Number of k-points >= 100: set verbosity='high' to print the bands.

     the Fermi energy is     7.9284 ev

!    total energy              =   -1264.08736890 Ry
     Harris-Foulkes estimate   =   -1264.08736909 Ry
     estimated scf accuracy    <       0.00000037 Ry

     total all-electron energy =    -15540.656391 Ry

     The total energy is the sum of the following terms:

     one-electron contribution =     101.33494848 Ry
     hartree contribution      =       0.19705823 Ry
     xc contribution           =     -82.93449318 Ry
     ewald contribution        =    -172.99996591 Ry
     one-center paw contrib.   =   -1109.68218032 Ry
     smearing contrib. (-TS)   =      -0.00273620 Ry

     convergence has been achieved in  10 iterations

     Forces acting on atoms (cartesian axes, Ry/au):

     atom    1 type  1   force =     0.00000000    0.00000000    0.00000000
     atom    2 type  1   force =     0.00000676   -0.00000237    0.00000732
     atom    3 type  1   force =     0.00000676    0.00000732   -0.00000237
     atom    4 type  1   force =     0.00000000   -0.00000746   -0.00000746
     atom    5 type  1   force =     0.00000000    0.00000000    0.00000000
     atom    6 type  1   force =     0.00000973   -0.00000830   -0.00000844
     atom    7 type  1   force =     0.00000676   -0.00000732    0.00000237
     atom    8 type  1   force =     0.00000000   -0.00000573    0.00000573
     atom    9 type  1   force =     0.00000000    0.00000000    0.00000000
     atom   10 type  1   force =     0.00000676    0.00000237   -0.00000732
     atom   11 type  1   force =     0.00000973   -0.00000844   -0.00000830
     atom   12 type  1   force =     0.00000000    0.00000573   -0.00000573
     atom   13 type  1   force =     0.00000000    0.00000000    0.00000000
     atom   14 type  1   force =     0.00000973    0.00000830    0.00000844
     atom   15 type  1   force =     0.00000973    0.00000844    0.00000830
     atom   16 type  1   force =     0.00000000    0.00000746    0.00000746
     atom   17 type  1   force =     0.00000000    0.00000000    0.00000000
     atom   18 type  1   force =    -0.00000676   -0.00000237    0.00000732
     atom   19 type  1   force =    -0.00000676    0.00000732   -0.00000237
     atom   20 type  1   force =     0.00000000   -0.00000252   -0.00000252
     atom   21 type  1   force =     0.00000000    0.00000000    0.00000000
     atom   22 type  1   force =    -0.00000973   -0.00000830   -0.00000844
     atom   23 type  1   force =    -0.00000676   -0.00000732    0.00000237
     atom   24 type  1   force =    -0.00000000   -0.00000468    0.00000468
     atom   25 type  1   force =     0.00000000    0.00000000    0.00000000
     atom   26 type  1   force =    -0.00000676    0.00000237   -0.00000732
     atom   27 type  1   force =    -0.00000973   -0.00000844   -0.00000830
     atom   28 type  1   force =    -0.00000000    0.00000468   -0.00000468
     atom   29 type  1   force =     0.00000000    0.00000000    0.00000000
     atom   30 type  1   force =    -0.00000973    0.00000830    0.00000844
     atom   31 type  1   force =    -0.00000973    0.00000844    0.00000830
     atom   32 type  1   force =     0.00000000    0.00000252    0.00000252

     Total force =     0.000056     Total SCF correction =     0.000611
     SCF correction compared to forces is large: reduce conv_thr to get better values


     Computing stress (Cartesian axis) and pressure

          total   stress  (Ry/bohr**3)                   (kbar)     P=    0.07
   0.00000036   0.00000000   0.00000000          0.05      0.00      0.00
   0.00000000   0.00000058  -0.00001294          0.00      0.09     -1.90
   0.00000000  -0.00001294   0.00000058          0.00     -1.90      0.09


     Writing output data file daSoiiILEvhFHfps.save/
 
     init_run     :     30.96s CPU     31.76s WALL (       1 calls)
     electrons    :    608.86s CPU    625.24s WALL (       1 calls)
     forces       :      7.69s CPU      7.95s WALL (       1 calls)
     stress       :     94.97s CPU     95.42s WALL (       1 calls)

     Called by init_run:
     wfcinit      :     30.46s CPU     31.25s WALL (       1 calls)
     potinit      :      0.15s CPU      0.16s WALL (       1 calls)
     hinit0       :      0.20s CPU      0.21s WALL (       1 calls)

     Called by electrons:
     c_bands      :    542.54s CPU    556.81s WALL (      11 calls)
     sum_band     :     65.36s CPU     67.31s WALL (      11 calls)
     v_of_rho     :      0.14s CPU      0.16s WALL (      11 calls)
     newd         :      0.13s CPU      0.24s WALL (      11 calls)
     PAW_pot      :      0.70s CPU      0.72s WALL (      11 calls)
     mix_rho      :      0.04s CPU      0.06s WALL (      11 calls)

     Called by c_bands:
     init_us_2    :      9.42s CPU      9.61s WALL (    5400 calls)
     cegterg      :    514.89s CPU    526.09s WALL (    2376 calls)

     Called by sum_band:
     sum_band:bec :      0.28s CPU      0.29s WALL (    2376 calls)
     addusdens    :      0.10s CPU      0.22s WALL (      11 calls)

     Called by *egterg:
     h_psi        :    356.39s CPU    365.90s WALL (   10350 calls)
     s_psi        :     33.46s CPU     33.62s WALL (   10350 calls)
     g_psi        :      1.94s CPU      1.95s WALL (    7758 calls)
     cdiaghg      :     65.51s CPU     65.89s WALL (    9918 calls)

     Called by h_psi:
     h_psi:pot    :    353.20s CPU    362.66s WALL (   10350 calls)
     h_psi:calbec :     37.33s CPU     39.19s WALL (   10350 calls)
     vloc_psi     :    282.47s CPU    289.90s WALL (   10350 calls)
     add_vuspsi   :     33.30s CPU     33.50s WALL (   10350 calls)

     General routines
     calbec       :     53.87s CPU     56.56s WALL (   13806 calls)
     fft          :      0.20s CPU      0.22s WALL (     148 calls)
     ffts         :      0.01s CPU      0.01s WALL (      11 calls)
     fftw         :    302.41s CPU    310.06s WALL (  944670 calls)
 
     Parallel routines
     fft_scatt_xy :     30.72s CPU     31.44s WALL (  944829 calls)
     fft_scatt_yz :    145.78s CPU    150.09s WALL (  944829 calls)
 
     PWSCF        : 12m27.17s CPU    13m 1.76s WALL

 
   This run was terminated on:   8:18:59  25Mar2020            

=------------------------------------------------------------------------------=
   JOB DONE.
=------------------------------------------------------------------------------=
