
     Program PWSCF v.6.3 starts on 25Mar2020 at  7:53: 3 

     This program is part of the open-source Quantum ESPRESSO suite
     for quantum simulation of materials; please cite
         "P. Giannozzi et al., J. Phys.:Condens. Matter 21 395502 (2009);
         "P. Giannozzi et al., J. Phys.:Condens. Matter 29 465901 (2017);
          URL http://www.quantum-espresso.org", 
     in publications or presentations arising from this work. More details at
     http://www.quantum-espresso.org/quote

     Parallel version (MPI & OpenMP), running on      20 processor cores
     Number of MPI processes:                20
     Threads/MPI process:                     1

     MPI processes distributed on     1 nodes
     R & G space division:  proc/nbgrp/npool/nimage =      20
     Reading input from /rds/homes/b/bxp912/jobs/20200324_al_eos_e/wd/pwscf_ec/ec_4_4.in
Warning: card &IONS ignored
Warning: card ION_DYNAMICS = 'BFGS', ignored
Warning: card / ignored
Warning: card &CELL ignored
Warning: card CELL_DYNAMICS = 'BFGS', ignored
Warning: card CELL_FACTOR = 2.0, ignored
Warning: card PRESS = 0.0, ignored
Warning: card / ignored

     Current dimensions of program PWSCF are:
     Max number of different atomic species (ntypx) = 10
     Max number of k-points (npk) =  40000
     Max angular momentum in pseudopotentials (lmaxx) =  3
     Message from routine read_upf::
     Pseudo file /rds/homes/b/bxp912/pp/Al.pbe-nl-kjpaw_psl.1.0.0.UPF has been successfully fixed on the fly.
To avoid this message in the future you can permanently fix 
 your pseudo files following instructions given in: 
https://gitlab.com/QEF/q-e/blob/master/upftools/how_to_fix_upf.md
               file Al.pbe-nl-kjpaw_psl.1.0.0.UPF: wavefunction(s)  3S 3P renormalized

     Subspace diagonalization in iterative solution of the eigenvalue problem:
     a serial algorithm will be used

     Found symmetry operation: I + (  0.2500  0.2500 -0.0000)
     This is a supercell, fractional translations are disabled
 
     Parallelization info
     --------------------
     sticks:   dense  smooth     PW     G-vecs:    dense   smooth      PW
     Min         185     185     51                 8498     8498    1229
     Max         186     186     52                 8503     8503    1231
     Sum        3705    3705   1033               169985   169985   24597
 


     bravais-lattice index     =            0
     lattice parameter (alat)  =      15.2652  a.u.
     unit-cell volume          =    3557.1654 (a.u.)^3
     number of atoms/cell      =           32
     number of atomic types    =            1
     number of electrons       =        96.00
     number of Kohn-Sham states=           58
     kinetic-energy cutoff     =      50.0000  Ry
     charge density cutoff     =     200.0000  Ry
     convergence threshold     =      1.0E-06
     mixing beta               =       0.1000
     number of iterations used =           10  plain     mixing
     Exchange-correlation      = SLA PW PBX PBC ( 1  4  3  4 0 0)

     celldm(1)=  15.265160  celldm(2)=   0.000000  celldm(3)=   0.000000
     celldm(4)=   0.000000  celldm(5)=   0.000000  celldm(6)=   0.000000

     crystal axes: (cart. coord. in units of alat)
               a(1) = (   1.000002   0.000000   0.000000 )  
               a(2) = (   0.000000   1.000002   0.002222 )  
               a(3) = (   0.000000   0.002222   1.000002 )  

     reciprocal axes: (cart. coord. in units 2 pi/alat)
               b(1) = (  0.999998  0.000000  0.000000 )  
               b(2) = (  0.000000  1.000003 -0.002222 )  
               b(3) = (  0.000000 -0.002222  1.000003 )  


     PseudoPot. # 1 for Al read from file:
     /rds/homes/b/bxp912/pp/Al.pbe-nl-kjpaw_psl.1.0.0.UPF
     MD5 check sum: 339dbea23cf3ab9a065ad45c0f9085d7
     Pseudo is Projector augmented-wave + core cor, Zval =  3.0
     Generated using "atomic" code by A. Dal Corso v.5.1
     Shape of augmentation charge: PSQ
     Using radial grid of 1135 points,  4 beta functions with: 
                l(1) =   0
                l(2) =   0
                l(3) =   1
                l(4) =   1
     Q(r) pseudized with 0 coefficients 


     atomic species   valence    mass     pseudopotential
        Al             3.00    26.98200     Al( 1.00)

      8 Sym. Ops., with inversion, found



   Cartesian axes

     site n.     atom                  positions (alat units)
         1           Al  tau(   1) = (   0.0000000   0.0000000   0.0000000  )
         2           Al  tau(   2) = (   0.2500004   0.2500004   0.0005556  )
         3           Al  tau(   3) = (   0.2500004   0.0005556   0.2500004  )
         4           Al  tau(   4) = (   0.0000000   0.2505560   0.2505560  )
         5           Al  tau(   5) = (   0.0000000   0.0011111   0.5000008  )
         6           Al  tau(   6) = (   0.2500004   0.2511115   0.5005564  )
         7           Al  tau(   7) = (   0.2500004   0.0016667   0.7500012  )
         8           Al  tau(   8) = (   0.0000000   0.2516671   0.7505568  )
         9           Al  tau(   9) = (   0.0000000   0.5000008   0.0011111  )
        10           Al  tau(  10) = (   0.2500004   0.7500012   0.0016667  )
        11           Al  tau(  11) = (   0.2500004   0.5005564   0.2511115  )
        12           Al  tau(  12) = (   0.0000000   0.7505568   0.2516671  )
        13           Al  tau(  13) = (   0.0000000   0.5011119   0.5011119  )
        14           Al  tau(  14) = (   0.2500004   0.7511123   0.5016675  )
        15           Al  tau(  15) = (   0.2500004   0.5016675   0.7511123  )
        16           Al  tau(  16) = (   0.0000000   0.7516679   0.7516679  )
        17           Al  tau(  17) = (   0.5000008   0.0000000   0.0000000  )
        18           Al  tau(  18) = (   0.7500012   0.2500004   0.0005556  )
        19           Al  tau(  19) = (   0.7500012   0.0005556   0.2500004  )
        20           Al  tau(  20) = (   0.5000008   0.2505560   0.2505560  )
        21           Al  tau(  21) = (   0.5000008   0.0011111   0.5000008  )
        22           Al  tau(  22) = (   0.7500012   0.2511115   0.5005564  )
        23           Al  tau(  23) = (   0.7500012   0.0016667   0.7500012  )
        24           Al  tau(  24) = (   0.5000008   0.2516671   0.7505568  )
        25           Al  tau(  25) = (   0.5000008   0.5000008   0.0011111  )
        26           Al  tau(  26) = (   0.7500012   0.7500012   0.0016667  )
        27           Al  tau(  27) = (   0.7500012   0.5005564   0.2511115  )
        28           Al  tau(  28) = (   0.5000008   0.7505568   0.2516671  )
        29           Al  tau(  29) = (   0.5000008   0.5011119   0.5011119  )
        30           Al  tau(  30) = (   0.7500012   0.7511123   0.5016675  )
        31           Al  tau(  31) = (   0.7500012   0.5016675   0.7511123  )
        32           Al  tau(  32) = (   0.5000008   0.7516679   0.7516679  )

     number of k points=   216  Marzari-Vanderbilt smearing, width (Ry)=  0.0400

     Number of k-points >= 100: set verbosity='high' to print them.

     Dense  grid:   169985 G-vectors     FFT dimensions: (  72,  72,  72)

     Estimated max dynamical RAM per process >     232.04 MB

     Estimated total dynamical RAM >       4.53 GB

     Initial potential from superposition of free atoms

     starting charge   95.92671, renormalised to   96.00000
     Starting wfcs are  128 randomized atomic wfcs
     Checking if some PAW data can be deallocated... 

     total cpu time spent up to now is       33.3 secs

     Self-consistent Calculation

     iteration #  1     ecut=    50.00 Ry     beta= 0.10
     Davidson diagonalization with overlap
     ethr =  1.00E-02,  avg # of iterations =  3.1

     Threshold (ethr) on eigenvalues was too large:
     Diagonalizing with lowered threshold

     Davidson diagonalization with overlap
     ethr =  1.91E-04,  avg # of iterations =  4.7

     total cpu time spent up to now is      155.3 secs

     total energy              =   -1264.12465394 Ry
     Harris-Foulkes estimate   =   -1264.13408487 Ry
     estimated scf accuracy    <       0.17940280 Ry

     iteration #  2     ecut=    50.00 Ry     beta= 0.10
     Davidson diagonalization with overlap
     ethr =  1.87E-04,  avg # of iterations =  1.1

     total cpu time spent up to now is      192.3 secs

     total energy              =   -1264.08391815 Ry
     Harris-Foulkes estimate   =   -1264.12542948 Ry
     estimated scf accuracy    <       0.14409893 Ry

     iteration #  3     ecut=    50.00 Ry     beta= 0.10
     Davidson diagonalization with overlap
     ethr =  1.50E-04,  avg # of iterations =  1.0

     total cpu time spent up to now is      228.8 secs

     total energy              =   -1264.08663451 Ry
     Harris-Foulkes estimate   =   -1264.08664150 Ry
     estimated scf accuracy    <       0.00024972 Ry

     iteration #  4     ecut=    50.00 Ry     beta= 0.10
     Davidson diagonalization with overlap
     c_bands:  1 eigenvalues not converged
     c_bands:  1 eigenvalues not converged
     c_bands:  2 eigenvalues not converged
     c_bands:  1 eigenvalues not converged
     c_bands:  1 eigenvalues not converged
     c_bands:  1 eigenvalues not converged
     c_bands:  1 eigenvalues not converged
     c_bands:  1 eigenvalues not converged
     c_bands:  1 eigenvalues not converged
     c_bands:  1 eigenvalues not converged
     c_bands:  1 eigenvalues not converged
     c_bands:  2 eigenvalues not converged
     c_bands:  2 eigenvalues not converged
     c_bands:  2 eigenvalues not converged
     c_bands:  1 eigenvalues not converged
     c_bands:  2 eigenvalues not converged
     ethr =  2.60E-07,  avg # of iterations =  7.5

     total cpu time spent up to now is      326.2 secs

     total energy              =   -1264.08760676 Ry
     Harris-Foulkes estimate   =   -1264.08749123 Ry
     estimated scf accuracy    <       0.00022000 Ry

     iteration #  5     ecut=    50.00 Ry     beta= 0.10
     Davidson diagonalization with overlap
     c_bands:  1 eigenvalues not converged
     c_bands:  3 eigenvalues not converged
     c_bands:  1 eigenvalues not converged
     ethr =  2.29E-07,  avg # of iterations =  1.8

     total cpu time spent up to now is      371.9 secs

     total energy              =   -1264.08739479 Ry
     Harris-Foulkes estimate   =   -1264.08761009 Ry
     estimated scf accuracy    <       0.00047844 Ry

     iteration #  6     ecut=    50.00 Ry     beta= 0.10
     Davidson diagonalization with overlap
     c_bands:  2 eigenvalues not converged
     ethr =  2.29E-07,  avg # of iterations =  2.2

     total cpu time spent up to now is      421.1 secs

     total energy              =   -1264.08741423 Ry
     Harris-Foulkes estimate   =   -1264.08741618 Ry
     estimated scf accuracy    <       0.00001443 Ry

     iteration #  7     ecut=    50.00 Ry     beta= 0.10
     Davidson diagonalization with overlap
     c_bands:  1 eigenvalues not converged
     ethr =  1.50E-08,  avg # of iterations =  4.7

     total cpu time spent up to now is      495.9 secs

     total energy              =   -1264.08742350 Ry
     Harris-Foulkes estimate   =   -1264.08742188 Ry
     estimated scf accuracy    <       0.00002449 Ry

     iteration #  8     ecut=    50.00 Ry     beta= 0.10
     Davidson diagonalization with overlap
     ethr =  1.50E-08,  avg # of iterations =  3.0

     total cpu time spent up to now is      543.7 secs

     total energy              =   -1264.08741145 Ry
     Harris-Foulkes estimate   =   -1264.08742580 Ry
     estimated scf accuracy    <       0.00005029 Ry

     iteration #  9     ecut=    50.00 Ry     beta= 0.10
     Davidson diagonalization with overlap
     ethr =  1.50E-08,  avg # of iterations =  3.3

     total cpu time spent up to now is      596.3 secs

     total energy              =   -1264.08741419 Ry
     Harris-Foulkes estimate   =   -1264.08741559 Ry
     estimated scf accuracy    <       0.00000488 Ry

     iteration # 10     ecut=    50.00 Ry     beta= 0.10
     Davidson diagonalization with overlap
     ethr =  5.09E-09,  avg # of iterations =  3.6

     total cpu time spent up to now is      648.0 secs

     End of self-consistent calculation

     Number of k-points >= 100: set verbosity='high' to print the bands.

     the Fermi energy is     7.9285 ev

!    total energy              =   -1264.08741487 Ry
     Harris-Foulkes estimate   =   -1264.08741502 Ry
     estimated scf accuracy    <       0.00000032 Ry

     total all-electron energy =    -15540.656437 Ry

     The total energy is the sum of the following terms:

     one-electron contribution =     101.33508376 Ry
     hartree contribution      =       0.19699343 Ry
     xc contribution           =     -82.93443839 Ry
     ewald contribution        =    -173.00016471 Ry
     one-center paw contrib.   =   -1109.68214976 Ry
     smearing contrib. (-TS)   =      -0.00273920 Ry

     convergence has been achieved in  10 iterations

     Forces acting on atoms (cartesian axes, Ry/au):

     atom    1 type  1   force =     0.00000000    0.00000000    0.00000000
     atom    2 type  1   force =     0.00000339    0.00000128    0.00001441
     atom    3 type  1   force =     0.00000339    0.00001441    0.00000128
     atom    4 type  1   force =     0.00000000   -0.00000497   -0.00000497
     atom    5 type  1   force =     0.00000000    0.00000000    0.00000000
     atom    6 type  1   force =     0.00000634   -0.00000633   -0.00001503
     atom    7 type  1   force =     0.00000339   -0.00001441   -0.00000128
     atom    8 type  1   force =    -0.00000000   -0.00000225    0.00000225
     atom    9 type  1   force =     0.00000000    0.00000000    0.00000000
     atom   10 type  1   force =     0.00000339   -0.00000128   -0.00001441
     atom   11 type  1   force =     0.00000634   -0.00001503   -0.00000633
     atom   12 type  1   force =    -0.00000000    0.00000225   -0.00000225
     atom   13 type  1   force =     0.00000000    0.00000000    0.00000000
     atom   14 type  1   force =     0.00000634    0.00000633    0.00001503
     atom   15 type  1   force =     0.00000634    0.00001503    0.00000633
     atom   16 type  1   force =     0.00000000    0.00000497    0.00000497
     atom   17 type  1   force =     0.00000000    0.00000000    0.00000000
     atom   18 type  1   force =    -0.00000339    0.00000128    0.00001441
     atom   19 type  1   force =    -0.00000339    0.00001441    0.00000128
     atom   20 type  1   force =     0.00000000    0.00000059    0.00000059
     atom   21 type  1   force =     0.00000000    0.00000000    0.00000000
     atom   22 type  1   force =    -0.00000634   -0.00000633   -0.00001503
     atom   23 type  1   force =    -0.00000339   -0.00001441   -0.00000128
     atom   24 type  1   force =     0.00000000   -0.00000180    0.00000180
     atom   25 type  1   force =     0.00000000    0.00000000    0.00000000
     atom   26 type  1   force =    -0.00000339   -0.00000128   -0.00001441
     atom   27 type  1   force =    -0.00000634   -0.00001503   -0.00000633
     atom   28 type  1   force =     0.00000000    0.00000180   -0.00000180
     atom   29 type  1   force =     0.00000000    0.00000000    0.00000000
     atom   30 type  1   force =    -0.00000634    0.00000633    0.00001503
     atom   31 type  1   force =    -0.00000634    0.00001503    0.00000633
     atom   32 type  1   force =     0.00000000   -0.00000059   -0.00000059

     Total force =     0.000066     Total SCF correction =     0.000468
     SCF correction compared to forces is large: reduce conv_thr to get better values


     Computing stress (Cartesian axis) and pressure

          total   stress  (Ry/bohr**3)                   (kbar)     P=    0.07
   0.00000037   0.00000000   0.00000000          0.05      0.00      0.00
   0.00000000   0.00000051  -0.00001035          0.00      0.07     -1.52
   0.00000000  -0.00001035   0.00000051          0.00     -1.52      0.07


     Writing output data file LfwbxFsfKpIISCmf.save/
 
     init_run     :     31.83s CPU     32.71s WALL (       1 calls)
     electrons    :    601.62s CPU    614.80s WALL (       1 calls)
     forces       :      7.63s CPU      7.88s WALL (       1 calls)
     stress       :     96.68s CPU     96.89s WALL (       1 calls)

     Called by init_run:
     wfcinit      :     31.36s CPU     32.20s WALL (       1 calls)
     potinit      :      0.15s CPU      0.15s WALL (       1 calls)
     hinit0       :      0.18s CPU      0.22s WALL (       1 calls)

     Called by electrons:
     c_bands      :    532.85s CPU    543.26s WALL (      11 calls)
     sum_band     :     67.79s CPU     70.40s WALL (      11 calls)
     v_of_rho     :      0.15s CPU      0.17s WALL (      11 calls)
     newd         :      0.13s CPU      0.24s WALL (      11 calls)
     PAW_pot      :      0.71s CPU      0.72s WALL (      11 calls)
     mix_rho      :      0.05s CPU      0.06s WALL (      11 calls)

     Called by c_bands:
     init_us_2    :     11.12s CPU     11.32s WALL (    5400 calls)
     cegterg      :    505.04s CPU    514.65s WALL (    2376 calls)

     Called by sum_band:
     sum_band:bec :      0.28s CPU      0.28s WALL (    2376 calls)
     addusdens    :      0.11s CPU      0.22s WALL (      11 calls)

     Called by *egterg:
     h_psi        :    349.31s CPU    357.56s WALL (   10349 calls)
     s_psi        :     33.00s CPU     33.15s WALL (   10349 calls)
     g_psi        :      1.92s CPU      1.94s WALL (    7757 calls)
     cdiaghg      :     64.78s CPU     65.03s WALL (    9917 calls)

     Called by h_psi:
     h_psi:pot    :    346.12s CPU    354.32s WALL (   10349 calls)
     h_psi:calbec :     36.98s CPU     38.79s WALL (   10349 calls)
     vloc_psi     :    276.13s CPU    282.38s WALL (   10349 calls)
     add_vuspsi   :     32.91s CPU     33.08s WALL (   10349 calls)

     General routines
     calbec       :     53.66s CPU     56.40s WALL (   13805 calls)
     fft          :      0.18s CPU      0.24s WALL (     148 calls)
     ffts         :      0.01s CPU      0.01s WALL (      11 calls)
     fftw         :    298.33s CPU    305.38s WALL (  939660 calls)
 
     Parallel routines
     fft_scatt_xy :     30.57s CPU     31.26s WALL (  939819 calls)
     fft_scatt_yz :    143.60s CPU    147.30s WALL (  939819 calls)
 
     PWSCF        : 12m22.37s CPU    12m53.27s WALL

 
   This run was terminated on:   8: 5:56  25Mar2020            

=------------------------------------------------------------------------------=
   JOB DONE.
=------------------------------------------------------------------------------=
