
     Program PWSCF v.6.3 starts on 25Mar2020 at 14:11:51 

     This program is part of the open-source Quantum ESPRESSO suite
     for quantum simulation of materials; please cite
         "P. Giannozzi et al., J. Phys.:Condens. Matter 21 395502 (2009);
         "P. Giannozzi et al., J. Phys.:Condens. Matter 29 465901 (2017);
          URL http://www.quantum-espresso.org", 
     in publications or presentations arising from this work. More details at
     http://www.quantum-espresso.org/quote

     Parallel version (MPI & OpenMP), running on      20 processor cores
     Number of MPI processes:                20
     Threads/MPI process:                     1

     MPI processes distributed on     1 nodes
     R & G space division:  proc/nbgrp/npool/nimage =      20
     Reading input from /rds/homes/b/bxp912/jobs/20200324_al_eos_e/wd/pwscf_ec/ec_5_7.in
Warning: card &IONS ignored
Warning: card ION_DYNAMICS = 'BFGS', ignored
Warning: card / ignored
Warning: card &CELL ignored
Warning: card CELL_DYNAMICS = 'BFGS', ignored
Warning: card CELL_FACTOR = 2.0, ignored
Warning: card PRESS = 0.0, ignored
Warning: card / ignored

     Current dimensions of program PWSCF are:
     Max number of different atomic species (ntypx) = 10
     Max number of k-points (npk) =  40000
     Max angular momentum in pseudopotentials (lmaxx) =  3
     Message from routine read_upf::
     Pseudo file /rds/homes/b/bxp912/pp/Al.pbe-nl-kjpaw_psl.1.0.0.UPF has been successfully fixed on the fly.
To avoid this message in the future you can permanently fix 
 your pseudo files following instructions given in: 
https://gitlab.com/QEF/q-e/blob/master/upftools/how_to_fix_upf.md
               file Al.pbe-nl-kjpaw_psl.1.0.0.UPF: wavefunction(s)  3S 3P renormalized

     Subspace diagonalization in iterative solution of the eigenvalue problem:
     a serial algorithm will be used

     Found symmetry operation: I + (  0.2500  0.2500 -0.0000)
     This is a supercell, fractional translations are disabled
 
     Parallelization info
     --------------------
     sticks:   dense  smooth     PW     G-vecs:    dense   smooth      PW
     Min         185     185     51                 8497     8497    1228
     Max         186     186     53                 8503     8503    1231
     Sum        3705    3705   1033               169969   169969   24585
 


     bravais-lattice index     =            0
     lattice parameter (alat)  =      15.2652  a.u.
     unit-cell volume          =    3557.1654 (a.u.)^3
     number of atoms/cell      =           32
     number of atomic types    =            1
     number of electrons       =        96.00
     number of Kohn-Sham states=           58
     kinetic-energy cutoff     =      50.0000  Ry
     charge density cutoff     =     200.0000  Ry
     convergence threshold     =      1.0E-06
     mixing beta               =       0.1000
     number of iterations used =           10  plain     mixing
     Exchange-correlation      = SLA PW PBX PBC ( 1  4  3  4 0 0)

     celldm(1)=  15.265160  celldm(2)=   0.000000  celldm(3)=   0.000000
     celldm(4)=   0.000000  celldm(5)=   0.000000  celldm(6)=   0.000000

     crystal axes: (cart. coord. in units of alat)
               a(1) = (   1.000005   0.000000   0.003889 )  
               a(2) = (   0.000000   1.000005   0.000000 )  
               a(3) = (   0.003889   0.000000   1.000005 )  

     reciprocal axes: (cart. coord. in units 2 pi/alat)
               b(1) = (  1.000010  0.000000 -0.003889 )  
               b(2) = (  0.000000  0.999995  0.000000 )  
               b(3) = ( -0.003889  0.000000  1.000010 )  


     PseudoPot. # 1 for Al read from file:
     /rds/homes/b/bxp912/pp/Al.pbe-nl-kjpaw_psl.1.0.0.UPF
     MD5 check sum: 339dbea23cf3ab9a065ad45c0f9085d7
     Pseudo is Projector augmented-wave + core cor, Zval =  3.0
     Generated using "atomic" code by A. Dal Corso v.5.1
     Shape of augmentation charge: PSQ
     Using radial grid of 1135 points,  4 beta functions with: 
                l(1) =   0
                l(2) =   0
                l(3) =   1
                l(4) =   1
     Q(r) pseudized with 0 coefficients 


     atomic species   valence    mass     pseudopotential
        Al             3.00    26.98200     Al( 1.00)

      8 Sym. Ops., with inversion, found



   Cartesian axes

     site n.     atom                  positions (alat units)
         1           Al  tau(   1) = (   0.0000000   0.0000000   0.0000000  )
         2           Al  tau(   2) = (   0.2500013   0.2500013   0.0009722  )
         3           Al  tau(   3) = (   0.2509735   0.0000000   0.2509735  )
         4           Al  tau(   4) = (   0.0009722   0.2500013   0.2500013  )
         5           Al  tau(   5) = (   0.0019445   0.0000000   0.5000025  )
         6           Al  tau(   6) = (   0.2519457   0.2500013   0.5009747  )
         7           Al  tau(   7) = (   0.2529179   0.0000000   0.7509760  )
         8           Al  tau(   8) = (   0.0029167   0.2500013   0.7500038  )
         9           Al  tau(   9) = (   0.0000000   0.5000025   0.0000000  )
        10           Al  tau(  10) = (   0.2500013   0.7500038   0.0009722  )
        11           Al  tau(  11) = (   0.2509735   0.5000025   0.2509735  )
        12           Al  tau(  12) = (   0.0009722   0.7500038   0.2500013  )
        13           Al  tau(  13) = (   0.0019445   0.5000025   0.5000025  )
        14           Al  tau(  14) = (   0.2519457   0.7500038   0.5009747  )
        15           Al  tau(  15) = (   0.2529179   0.5000025   0.7509760  )
        16           Al  tau(  16) = (   0.0029167   0.7500038   0.7500038  )
        17           Al  tau(  17) = (   0.5000025   0.0000000   0.0019445  )
        18           Al  tau(  18) = (   0.7500038   0.2500013   0.0029167  )
        19           Al  tau(  19) = (   0.7509760   0.0000000   0.2529179  )
        20           Al  tau(  20) = (   0.5009747   0.2500013   0.2519457  )
        21           Al  tau(  21) = (   0.5019470   0.0000000   0.5019470  )
        22           Al  tau(  22) = (   0.7519482   0.2500013   0.5029192  )
        23           Al  tau(  23) = (   0.7529205   0.0000000   0.7529205  )
        24           Al  tau(  24) = (   0.5029192   0.2500013   0.7519482  )
        25           Al  tau(  25) = (   0.5000025   0.5000025   0.0019445  )
        26           Al  tau(  26) = (   0.7500038   0.7500038   0.0029167  )
        27           Al  tau(  27) = (   0.7509760   0.5000025   0.2529179  )
        28           Al  tau(  28) = (   0.5009747   0.7500038   0.2519457  )
        29           Al  tau(  29) = (   0.5019470   0.5000025   0.5019470  )
        30           Al  tau(  30) = (   0.7519482   0.7500038   0.5029192  )
        31           Al  tau(  31) = (   0.7529205   0.5000025   0.7529205  )
        32           Al  tau(  32) = (   0.5029192   0.7500038   0.7519482  )

     number of k points=   216  Marzari-Vanderbilt smearing, width (Ry)=  0.0400

     Number of k-points >= 100: set verbosity='high' to print them.

     Dense  grid:   169969 G-vectors     FFT dimensions: (  72,  72,  72)

     Estimated max dynamical RAM per process >     232.03 MB

     Estimated total dynamical RAM >       4.53 GB

     Initial potential from superposition of free atoms

     starting charge   95.92671, renormalised to   96.00000
     Starting wfcs are  128 randomized atomic wfcs
     Checking if some PAW data can be deallocated... 

     total cpu time spent up to now is       24.8 secs

     Self-consistent Calculation

     iteration #  1     ecut=    50.00 Ry     beta= 0.10
     Davidson diagonalization with overlap
     ethr =  1.00E-02,  avg # of iterations =  3.1

     Threshold (ethr) on eigenvalues was too large:
     Diagonalizing with lowered threshold

     Davidson diagonalization with overlap
     ethr =  1.91E-04,  avg # of iterations =  4.7

     total cpu time spent up to now is      118.2 secs

     total energy              =   -1264.12467455 Ry
     Harris-Foulkes estimate   =   -1264.13415849 Ry
     estimated scf accuracy    <       0.17941615 Ry

     iteration #  2     ecut=    50.00 Ry     beta= 0.10
     Davidson diagonalization with overlap
     ethr =  1.87E-04,  avg # of iterations =  1.0

     total cpu time spent up to now is      146.3 secs

     total energy              =   -1264.08371897 Ry
     Harris-Foulkes estimate   =   -1264.12545129 Ry
     estimated scf accuracy    <       0.14412519 Ry

     iteration #  3     ecut=    50.00 Ry     beta= 0.10
     Davidson diagonalization with overlap
     ethr =  1.50E-04,  avg # of iterations =  1.0

     total cpu time spent up to now is      174.6 secs

     total energy              =   -1264.08646075 Ry
     Harris-Foulkes estimate   =   -1264.08646789 Ry
     estimated scf accuracy    <       0.00024892 Ry

     iteration #  4     ecut=    50.00 Ry     beta= 0.10
     Davidson diagonalization with overlap
     c_bands:  1 eigenvalues not converged
     c_bands:  1 eigenvalues not converged
     c_bands:  1 eigenvalues not converged
     c_bands:  1 eigenvalues not converged
     c_bands:  1 eigenvalues not converged
     c_bands:  1 eigenvalues not converged
     c_bands:  4 eigenvalues not converged
     c_bands:  1 eigenvalues not converged
     c_bands:  1 eigenvalues not converged
     c_bands:  1 eigenvalues not converged
     c_bands:  1 eigenvalues not converged
     c_bands:  1 eigenvalues not converged
     c_bands:  1 eigenvalues not converged
     c_bands:  1 eigenvalues not converged
     c_bands:  1 eigenvalues not converged
     c_bands:  2 eigenvalues not converged
     c_bands:  2 eigenvalues not converged
     c_bands:  3 eigenvalues not converged
     c_bands:  2 eigenvalues not converged
     ethr =  2.59E-07,  avg # of iterations =  7.7

     total cpu time spent up to now is      242.5 secs

     total energy              =   -1264.08736800 Ry
     Harris-Foulkes estimate   =   -1264.08731930 Ry
     estimated scf accuracy    <       0.00021679 Ry

     iteration #  5     ecut=    50.00 Ry     beta= 0.10
     Davidson diagonalization with overlap
     c_bands:  1 eigenvalues not converged
     c_bands:  1 eigenvalues not converged
     c_bands:  1 eigenvalues not converged
     ethr =  2.26E-07,  avg # of iterations =  1.7

     total cpu time spent up to now is      272.1 secs

     total energy              =   -1264.08723181 Ry
     Harris-Foulkes estimate   =   -1264.08736927 Ry
     estimated scf accuracy    <       0.00032238 Ry

     iteration #  6     ecut=    50.00 Ry     beta= 0.10
     Davidson diagonalization with overlap
     c_bands:  1 eigenvalues not converged
     ethr =  2.26E-07,  avg # of iterations =  1.3

     total cpu time spent up to now is      300.7 secs

     total energy              =   -1264.08724256 Ry
     Harris-Foulkes estimate   =   -1264.08724657 Ry
     estimated scf accuracy    <       0.00001599 Ry

     iteration #  7     ecut=    50.00 Ry     beta= 0.10
     Davidson diagonalization with overlap
     c_bands:  1 eigenvalues not converged
     ethr =  1.67E-08,  avg # of iterations =  4.3

     total cpu time spent up to now is      348.4 secs

     total energy              =   -1264.08724790 Ry
     Harris-Foulkes estimate   =   -1264.08724697 Ry
     estimated scf accuracy    <       0.00000501 Ry

     iteration #  8     ecut=    50.00 Ry     beta= 0.10
     Davidson diagonalization with overlap
     c_bands:  1 eigenvalues not converged
     ethr =  5.22E-09,  avg # of iterations =  2.5

     total cpu time spent up to now is      382.1 secs

     total energy              =   -1264.08724698 Ry
     Harris-Foulkes estimate   =   -1264.08724837 Ry
     estimated scf accuracy    <       0.00001506 Ry

     iteration #  9     ecut=    50.00 Ry     beta= 0.10
     Davidson diagonalization with overlap
     ethr =  5.22E-09,  avg # of iterations =  1.2

     total cpu time spent up to now is      410.4 secs

     total energy              =   -1264.08724523 Ry
     Harris-Foulkes estimate   =   -1264.08724721 Ry
     estimated scf accuracy    <       0.00000870 Ry

     iteration # 10     ecut=    50.00 Ry     beta= 0.10
     Davidson diagonalization with overlap
     ethr =  5.22E-09,  avg # of iterations =  3.4

     total cpu time spent up to now is      451.1 secs

     End of self-consistent calculation

     Number of k-points >= 100: set verbosity='high' to print the bands.

     the Fermi energy is     7.9283 ev

!    total energy              =   -1264.08724627 Ry
     Harris-Foulkes estimate   =   -1264.08724626 Ry
     estimated scf accuracy    <       0.00000007 Ry

     total all-electron energy =    -15540.656268 Ry

     The total energy is the sum of the following terms:

     one-electron contribution =     101.33490651 Ry
     hartree contribution      =       0.19723485 Ry
     xc contribution           =     -82.93476274 Ry
     ewald contribution        =    -172.99943574 Ry
     one-center paw contrib.   =   -1109.68246124 Ry
     smearing contrib. (-TS)   =      -0.00272790 Ry

     convergence has been achieved in  10 iterations

     Forces acting on atoms (cartesian axes, Ry/au):

     atom    1 type  1   force =     0.00000000    0.00000000    0.00000000
     atom    2 type  1   force =    -0.00000384    0.00000474   -0.00000229
     atom    3 type  1   force =    -0.00000155    0.00000000   -0.00000155
     atom    4 type  1   force =    -0.00000229    0.00000474   -0.00000384
     atom    5 type  1   force =     0.00000000    0.00000000    0.00000000
     atom    6 type  1   force =    -0.00000003    0.00000119    0.00000492
     atom    7 type  1   force =     0.00000113    0.00000000   -0.00000113
     atom    8 type  1   force =     0.00000229    0.00000474    0.00000384
     atom    9 type  1   force =     0.00000000    0.00000000    0.00000000
     atom   10 type  1   force =    -0.00000384   -0.00000474   -0.00000229
     atom   11 type  1   force =    -0.00000571    0.00000000   -0.00000571
     atom   12 type  1   force =    -0.00000229   -0.00000474   -0.00000384
     atom   13 type  1   force =     0.00000000    0.00000000    0.00000000
     atom   14 type  1   force =    -0.00000003   -0.00000119    0.00000492
     atom   15 type  1   force =    -0.00000335    0.00000000    0.00000335
     atom   16 type  1   force =     0.00000229   -0.00000474    0.00000384
     atom   17 type  1   force =     0.00000000    0.00000000    0.00000000
     atom   18 type  1   force =     0.00000384    0.00000474    0.00000229
     atom   19 type  1   force =    -0.00000113    0.00000000    0.00000113
     atom   20 type  1   force =     0.00000492    0.00000119   -0.00000003
     atom   21 type  1   force =     0.00000000    0.00000000    0.00000000
     atom   22 type  1   force =     0.00000003    0.00000119   -0.00000492
     atom   23 type  1   force =     0.00000155    0.00000000    0.00000155
     atom   24 type  1   force =    -0.00000492    0.00000119    0.00000003
     atom   25 type  1   force =     0.00000000    0.00000000    0.00000000
     atom   26 type  1   force =     0.00000384   -0.00000474    0.00000229
     atom   27 type  1   force =     0.00000335    0.00000000   -0.00000335
     atom   28 type  1   force =     0.00000492   -0.00000119   -0.00000003
     atom   29 type  1   force =     0.00000000    0.00000000    0.00000000
     atom   30 type  1   force =     0.00000003   -0.00000119   -0.00000492
     atom   31 type  1   force =     0.00000571    0.00000000    0.00000571
     atom   32 type  1   force =    -0.00000492   -0.00000119    0.00000003

     Total force =     0.000027     Total SCF correction =     0.000137
     SCF correction compared to forces is large: reduce conv_thr to get better values


     Computing stress (Cartesian axis) and pressure

          total   stress  (Ry/bohr**3)                   (kbar)     P=    0.12
   0.00000098   0.00000000  -0.00001813          0.14      0.00     -2.67
   0.00000000   0.00000053   0.00000000          0.00      0.08      0.00
  -0.00001813   0.00000000   0.00000098         -2.67      0.00      0.14


     Writing output data file eAlKYatTVyusWnJT.save/
 
     init_run     :     23.78s CPU     24.38s WALL (       1 calls)
     electrons    :    418.03s CPU    426.31s WALL (       1 calls)
     forces       :      4.23s CPU      4.45s WALL (       1 calls)
     stress       :     21.52s CPU     21.61s WALL (       1 calls)

     Called by init_run:
     wfcinit      :     23.40s CPU     23.95s WALL (       1 calls)
     potinit      :      0.12s CPU      0.12s WALL (       1 calls)
     hinit0       :      0.15s CPU      0.19s WALL (       1 calls)

     Called by electrons:
     c_bands      :    366.48s CPU    373.05s WALL (      11 calls)
     sum_band     :     50.73s CPU     52.13s WALL (      11 calls)
     v_of_rho     :      0.12s CPU      0.13s WALL (      11 calls)
     newd         :      0.10s CPU      0.13s WALL (      11 calls)
     PAW_pot      :      0.64s CPU      0.64s WALL (      11 calls)
     mix_rho      :      0.03s CPU      0.04s WALL (      11 calls)

     Called by c_bands:
     init_us_2    :      8.04s CPU      8.20s WALL (    5400 calls)
     cegterg      :    345.02s CPU    351.07s WALL (    2376 calls)

     Called by sum_band:
     sum_band:bec :      0.23s CPU      0.23s WALL (    2376 calls)
     addusdens    :      0.07s CPU      0.10s WALL (      11 calls)

     Called by *egterg:
     h_psi        :    249.88s CPU    254.95s WALL (    9503 calls)
     s_psi        :     20.77s CPU     20.87s WALL (    9503 calls)
     g_psi        :      0.93s CPU      0.94s WALL (    6911 calls)
     cdiaghg      :     50.27s CPU     50.47s WALL (    9071 calls)

     Called by h_psi:
     h_psi:pot    :    248.18s CPU    253.22s WALL (    9503 calls)
     h_psi:calbec :     20.79s CPU     22.27s WALL (    9503 calls)
     vloc_psi     :    206.22s CPU    209.69s WALL (    9503 calls)
     add_vuspsi   :     21.10s CPU     21.21s WALL (    9503 calls)

     General routines
     calbec       :     31.42s CPU     33.71s WALL (   12959 calls)
     fft          :      0.16s CPU      0.21s WALL (     148 calls)
     ffts         :      0.01s CPU      0.01s WALL (      11 calls)
     fftw         :    227.25s CPU    231.09s WALL (  905936 calls)
 
     Parallel routines
     fft_scatt_xy :     21.58s CPU     21.93s WALL (  906095 calls)
     fft_scatt_yz :    132.32s CPU    134.64s WALL (  906095 calls)
 
     PWSCF        :  7m51.86s CPU     8m25.43s WALL

 
   This run was terminated on:  14:20:17  25Mar2020            

=------------------------------------------------------------------------------=
   JOB DONE.
=------------------------------------------------------------------------------=
