
     Program PWSCF v.6.3 starts on 25Mar2020 at  9:17:45 

     This program is part of the open-source Quantum ESPRESSO suite
     for quantum simulation of materials; please cite
         "P. Giannozzi et al., J. Phys.:Condens. Matter 21 395502 (2009);
         "P. Giannozzi et al., J. Phys.:Condens. Matter 29 465901 (2017);
          URL http://www.quantum-espresso.org", 
     in publications or presentations arising from this work. More details at
     http://www.quantum-espresso.org/quote

     Parallel version (MPI & OpenMP), running on      20 processor cores
     Number of MPI processes:                20
     Threads/MPI process:                     1

     MPI processes distributed on     1 nodes
     R & G space division:  proc/nbgrp/npool/nimage =      20
     Reading input from /rds/homes/b/bxp912/jobs/20200324_al_eos_e/wd/pwscf_ec/ec_5_3.in
Warning: card &IONS ignored
Warning: card ION_DYNAMICS = 'BFGS', ignored
Warning: card / ignored
Warning: card &CELL ignored
Warning: card CELL_DYNAMICS = 'BFGS', ignored
Warning: card CELL_FACTOR = 2.0, ignored
Warning: card PRESS = 0.0, ignored
Warning: card / ignored

     Current dimensions of program PWSCF are:
     Max number of different atomic species (ntypx) = 10
     Max number of k-points (npk) =  40000
     Max angular momentum in pseudopotentials (lmaxx) =  3
     Message from routine read_upf::
     Pseudo file /rds/homes/b/bxp912/pp/Al.pbe-nl-kjpaw_psl.1.0.0.UPF has been successfully fixed on the fly.
To avoid this message in the future you can permanently fix 
 your pseudo files following instructions given in: 
https://gitlab.com/QEF/q-e/blob/master/upftools/how_to_fix_upf.md
               file Al.pbe-nl-kjpaw_psl.1.0.0.UPF: wavefunction(s)  3S 3P renormalized

     Subspace diagonalization in iterative solution of the eigenvalue problem:
     a serial algorithm will be used

     Found symmetry operation: I + (  0.2500  0.2500  0.0000)
     This is a supercell, fractional translations are disabled
 
     Parallelization info
     --------------------
     sticks:   dense  smooth     PW     G-vecs:    dense   smooth      PW
     Min         185     185     51                 8498     8498    1229
     Max         186     186     52                 8504     8504    1231
     Sum        3705    3705   1033               169997   169997   24597
 


     bravais-lattice index     =            0
     lattice parameter (alat)  =      15.2652  a.u.
     unit-cell volume          =    3557.1654 (a.u.)^3
     number of atoms/cell      =           32
     number of atomic types    =            1
     number of electrons       =        96.00
     number of Kohn-Sham states=           58
     kinetic-energy cutoff     =      50.0000  Ry
     charge density cutoff     =     200.0000  Ry
     convergence threshold     =      1.0E-06
     mixing beta               =       0.1000
     number of iterations used =           10  plain     mixing
     Exchange-correlation      = SLA PW PBX PBC ( 1  4  3  4 0 0)

     celldm(1)=  15.265160  celldm(2)=   0.000000  celldm(3)=   0.000000
     celldm(4)=   0.000000  celldm(5)=   0.000000  celldm(6)=   0.000000

     crystal axes: (cart. coord. in units of alat)
               a(1) = (   1.000001   0.000000   0.001667 )  
               a(2) = (   0.000000   1.000001   0.000000 )  
               a(3) = (   0.001667   0.000000   1.000001 )  

     reciprocal axes: (cart. coord. in units 2 pi/alat)
               b(1) = (  1.000002  0.000000 -0.001667 )  
               b(2) = (  0.000000  0.999999  0.000000 )  
               b(3) = ( -0.001667  0.000000  1.000002 )  


     PseudoPot. # 1 for Al read from file:
     /rds/homes/b/bxp912/pp/Al.pbe-nl-kjpaw_psl.1.0.0.UPF
     MD5 check sum: 339dbea23cf3ab9a065ad45c0f9085d7
     Pseudo is Projector augmented-wave + core cor, Zval =  3.0
     Generated using "atomic" code by A. Dal Corso v.5.1
     Shape of augmentation charge: PSQ
     Using radial grid of 1135 points,  4 beta functions with: 
                l(1) =   0
                l(2) =   0
                l(3) =   1
                l(4) =   1
     Q(r) pseudized with 0 coefficients 


     atomic species   valence    mass     pseudopotential
        Al             3.00    26.98200     Al( 1.00)

      8 Sym. Ops., with inversion, found



   Cartesian axes

     site n.     atom                  positions (alat units)
         1           Al  tau(   1) = (   0.0000000   0.0000000   0.0000000  )
         2           Al  tau(   2) = (   0.2500002   0.2500002   0.0004167  )
         3           Al  tau(   3) = (   0.2504169   0.0000000   0.2504169  )
         4           Al  tau(   4) = (   0.0004167   0.2500002   0.2500002  )
         5           Al  tau(   5) = (   0.0008333   0.0000000   0.5000005  )
         6           Al  tau(   6) = (   0.2508336   0.2500002   0.5004171  )
         7           Al  tau(   7) = (   0.2512502   0.0000000   0.7504174  )
         8           Al  tau(   8) = (   0.0012500   0.2500002   0.7500007  )
         9           Al  tau(   9) = (   0.0000000   0.5000005   0.0000000  )
        10           Al  tau(  10) = (   0.2500002   0.7500007   0.0004167  )
        11           Al  tau(  11) = (   0.2504169   0.5000005   0.2504169  )
        12           Al  tau(  12) = (   0.0004167   0.7500007   0.2500002  )
        13           Al  tau(  13) = (   0.0008333   0.5000005   0.5000005  )
        14           Al  tau(  14) = (   0.2508336   0.7500007   0.5004171  )
        15           Al  tau(  15) = (   0.2512502   0.5000005   0.7504174  )
        16           Al  tau(  16) = (   0.0012500   0.7500007   0.7500007  )
        17           Al  tau(  17) = (   0.5000005   0.0000000   0.0008333  )
        18           Al  tau(  18) = (   0.7500007   0.2500002   0.0012500  )
        19           Al  tau(  19) = (   0.7504174   0.0000000   0.2512502  )
        20           Al  tau(  20) = (   0.5004171   0.2500002   0.2508336  )
        21           Al  tau(  21) = (   0.5008338   0.0000000   0.5008338  )
        22           Al  tau(  22) = (   0.7508340   0.2500002   0.5012505  )
        23           Al  tau(  23) = (   0.7512507   0.0000000   0.7512507  )
        24           Al  tau(  24) = (   0.5012505   0.2500002   0.7508340  )
        25           Al  tau(  25) = (   0.5000005   0.5000005   0.0008333  )
        26           Al  tau(  26) = (   0.7500007   0.7500007   0.0012500  )
        27           Al  tau(  27) = (   0.7504174   0.5000005   0.2512502  )
        28           Al  tau(  28) = (   0.5004171   0.7500007   0.2508336  )
        29           Al  tau(  29) = (   0.5008338   0.5000005   0.5008338  )
        30           Al  tau(  30) = (   0.7508340   0.7500007   0.5012505  )
        31           Al  tau(  31) = (   0.7512507   0.5000005   0.7512507  )
        32           Al  tau(  32) = (   0.5012505   0.7500007   0.7508340  )

     number of k points=   216  Marzari-Vanderbilt smearing, width (Ry)=  0.0400

     Number of k-points >= 100: set verbosity='high' to print them.

     Dense  grid:   169997 G-vectors     FFT dimensions: (  72,  72,  72)

     Estimated max dynamical RAM per process >     232.03 MB

     Estimated total dynamical RAM >       4.53 GB

     Initial potential from superposition of free atoms

     starting charge   95.92671, renormalised to   96.00000
     Starting wfcs are  128 randomized atomic wfcs
     Checking if some PAW data can be deallocated... 

     total cpu time spent up to now is       32.5 secs

     Self-consistent Calculation

     iteration #  1     ecut=    50.00 Ry     beta= 0.10
     Davidson diagonalization with overlap
     ethr =  1.00E-02,  avg # of iterations =  3.1

     Threshold (ethr) on eigenvalues was too large:
     Diagonalizing with lowered threshold

     Davidson diagonalization with overlap
     ethr =  1.91E-04,  avg # of iterations =  4.6

     total cpu time spent up to now is      161.5 secs

     total energy              =   -1264.12489096 Ry
     Harris-Foulkes estimate   =   -1264.13437607 Ry
     estimated scf accuracy    <       0.17941223 Ry

     iteration #  2     ecut=    50.00 Ry     beta= 0.10
     Davidson diagonalization with overlap
     ethr =  1.87E-04,  avg # of iterations =  1.1

     total cpu time spent up to now is      197.6 secs

     total energy              =   -1264.08392906 Ry
     Harris-Foulkes estimate   =   -1264.12566421 Ry
     estimated scf accuracy    <       0.14411193 Ry

     iteration #  3     ecut=    50.00 Ry     beta= 0.10
     Davidson diagonalization with overlap
     ethr =  1.50E-04,  avg # of iterations =  1.0

     total cpu time spent up to now is      233.4 secs

     total energy              =   -1264.08666704 Ry
     Harris-Foulkes estimate   =   -1264.08667306 Ry
     estimated scf accuracy    <       0.00024855 Ry

     iteration #  4     ecut=    50.00 Ry     beta= 0.10
     Davidson diagonalization with overlap
     c_bands:  1 eigenvalues not converged
     c_bands:  1 eigenvalues not converged
     c_bands:  1 eigenvalues not converged
     c_bands:  1 eigenvalues not converged
     c_bands:  1 eigenvalues not converged
     c_bands:  1 eigenvalues not converged
     c_bands:  1 eigenvalues not converged
     c_bands:  2 eigenvalues not converged
     c_bands:  1 eigenvalues not converged
     c_bands:  1 eigenvalues not converged
     c_bands:  2 eigenvalues not converged
     c_bands:  2 eigenvalues not converged
     c_bands:  1 eigenvalues not converged
     c_bands:  2 eigenvalues not converged
     ethr =  2.59E-07,  avg # of iterations =  7.4

     total cpu time spent up to now is      320.5 secs

     total energy              =   -1264.08757515 Ry
     Harris-Foulkes estimate   =   -1264.08752466 Ry
     estimated scf accuracy    <       0.00021814 Ry

     iteration #  5     ecut=    50.00 Ry     beta= 0.10
     Davidson diagonalization with overlap
     c_bands:  1 eigenvalues not converged
     c_bands:  1 eigenvalues not converged
     ethr =  2.27E-07,  avg # of iterations =  1.5

     total cpu time spent up to now is      358.0 secs

     total energy              =   -1264.08743580 Ry
     Harris-Foulkes estimate   =   -1264.08757644 Ry
     estimated scf accuracy    <       0.00032756 Ry

     iteration #  6     ecut=    50.00 Ry     beta= 0.10
     Davidson diagonalization with overlap
     ethr =  2.27E-07,  avg # of iterations =  1.2

     total cpu time spent up to now is      394.5 secs

     total energy              =   -1264.08744694 Ry
     Harris-Foulkes estimate   =   -1264.08745095 Ry
     estimated scf accuracy    <       0.00001610 Ry

     iteration #  7     ecut=    50.00 Ry     beta= 0.10
     Davidson diagonalization with overlap
     c_bands:  1 eigenvalues not converged
     ethr =  1.68E-08,  avg # of iterations =  4.2

     total cpu time spent up to now is      454.1 secs

     total energy              =   -1264.08745212 Ry
     Harris-Foulkes estimate   =   -1264.08745125 Ry
     estimated scf accuracy    <       0.00000476 Ry

     iteration #  8     ecut=    50.00 Ry     beta= 0.10
     Davidson diagonalization with overlap
     ethr =  4.96E-09,  avg # of iterations =  2.6

     total cpu time spent up to now is      497.1 secs

     total energy              =   -1264.08745131 Ry
     Harris-Foulkes estimate   =   -1264.08745256 Ry
     estimated scf accuracy    <       0.00001420 Ry

     iteration #  9     ecut=    50.00 Ry     beta= 0.10
     Davidson diagonalization with overlap
     ethr =  4.96E-09,  avg # of iterations =  1.1

     total cpu time spent up to now is      532.9 secs

     total energy              =   -1264.08744955 Ry
     Harris-Foulkes estimate   =   -1264.08745151 Ry
     estimated scf accuracy    <       0.00000848 Ry

     iteration # 10     ecut=    50.00 Ry     beta= 0.10
     Davidson diagonalization with overlap
     c_bands:  1 eigenvalues not converged
     ethr =  4.96E-09,  avg # of iterations =  3.5

     total cpu time spent up to now is      584.6 secs

     End of self-consistent calculation

     Number of k-points >= 100: set verbosity='high' to print the bands.

     the Fermi energy is     7.9284 ev

!    total energy              =   -1264.08745059 Ry
     Harris-Foulkes estimate   =   -1264.08745058 Ry
     estimated scf accuracy    <       0.00000007 Ry

     total all-electron energy =    -15540.656473 Ry

     The total energy is the sum of the following terms:

     one-electron contribution =     101.33541416 Ry
     hartree contribution      =       0.19694798 Ry
     xc contribution           =     -82.93449039 Ry
     ewald contribution        =    -173.00031933 Ry
     one-center paw contrib.   =   -1109.68226229 Ry
     smearing contrib. (-TS)   =      -0.00274071 Ry

     convergence has been achieved in  10 iterations

     Forces acting on atoms (cartesian axes, Ry/au):

     atom    1 type  1   force =     0.00000000    0.00000000    0.00000000
     atom    2 type  1   force =    -0.00000371    0.00000316   -0.00000265
     atom    3 type  1   force =    -0.00000129    0.00000000   -0.00000129
     atom    4 type  1   force =    -0.00000265    0.00000316   -0.00000371
     atom    5 type  1   force =     0.00000000    0.00000000    0.00000000
     atom    6 type  1   force =     0.00000070    0.00000014    0.00000504
     atom    7 type  1   force =     0.00000102    0.00000000   -0.00000102
     atom    8 type  1   force =     0.00000265    0.00000316    0.00000371
     atom    9 type  1   force =     0.00000000    0.00000000    0.00000000
     atom   10 type  1   force =    -0.00000371   -0.00000316   -0.00000265
     atom   11 type  1   force =    -0.00000508    0.00000000   -0.00000508
     atom   12 type  1   force =    -0.00000265   -0.00000316   -0.00000371
     atom   13 type  1   force =     0.00000000    0.00000000    0.00000000
     atom   14 type  1   force =     0.00000070   -0.00000014    0.00000504
     atom   15 type  1   force =    -0.00000285    0.00000000    0.00000285
     atom   16 type  1   force =     0.00000265   -0.00000316    0.00000371
     atom   17 type  1   force =     0.00000000    0.00000000    0.00000000
     atom   18 type  1   force =     0.00000371    0.00000316    0.00000265
     atom   19 type  1   force =    -0.00000102    0.00000000    0.00000102
     atom   20 type  1   force =     0.00000504    0.00000014    0.00000070
     atom   21 type  1   force =     0.00000000    0.00000000    0.00000000
     atom   22 type  1   force =    -0.00000070    0.00000014   -0.00000504
     atom   23 type  1   force =     0.00000129    0.00000000    0.00000129
     atom   24 type  1   force =    -0.00000504    0.00000014   -0.00000070
     atom   25 type  1   force =     0.00000000    0.00000000    0.00000000
     atom   26 type  1   force =     0.00000371   -0.00000316    0.00000265
     atom   27 type  1   force =     0.00000285    0.00000000   -0.00000285
     atom   28 type  1   force =     0.00000504   -0.00000014    0.00000070
     atom   29 type  1   force =     0.00000000    0.00000000    0.00000000
     atom   30 type  1   force =    -0.00000070   -0.00000014   -0.00000504
     atom   31 type  1   force =     0.00000508    0.00000000    0.00000508
     atom   32 type  1   force =    -0.00000504   -0.00000014   -0.00000070

     Total force =     0.000024     Total SCF correction =     0.000147
     SCF correction compared to forces is large: reduce conv_thr to get better values


     Computing stress (Cartesian axis) and pressure

          total   stress  (Ry/bohr**3)                   (kbar)     P=    0.08
   0.00000057   0.00000000  -0.00000776          0.08      0.00     -1.14
   0.00000000   0.00000051   0.00000000          0.00      0.08      0.00
  -0.00000776   0.00000000   0.00000057         -1.14      0.00      0.08


     Writing output data file JWsinEgsCJMgFWOJ.save/
 
     init_run     :     31.26s CPU     31.98s WALL (       1 calls)
     electrons    :    530.61s CPU    552.06s WALL (       1 calls)
     forces       :      6.43s CPU      6.70s WALL (       1 calls)
     stress       :     41.71s CPU     42.76s WALL (       1 calls)

     Called by init_run:
     wfcinit      :     30.80s CPU     31.49s WALL (       1 calls)
     potinit      :      0.15s CPU      0.15s WALL (       1 calls)
     hinit0       :      0.18s CPU      0.20s WALL (       1 calls)

     Called by electrons:
     c_bands      :    465.07s CPU    484.67s WALL (      11 calls)
     sum_band     :     64.61s CPU     66.36s WALL (      11 calls)
     v_of_rho     :      0.14s CPU      0.15s WALL (      11 calls)
     newd         :      0.11s CPU      0.19s WALL (      11 calls)
     PAW_pot      :      0.70s CPU      0.71s WALL (      11 calls)
     mix_rho      :      0.04s CPU      0.04s WALL (      11 calls)

     Called by c_bands:
     init_us_2    :      9.49s CPU      9.65s WALL (    5400 calls)
     cegterg      :    438.17s CPU    446.68s WALL (    2376 calls)

     Called by sum_band:
     sum_band:bec :      0.28s CPU      0.28s WALL (    2376 calls)
     addusdens    :      0.08s CPU      0.17s WALL (      11 calls)

     Called by *egterg:
     h_psi        :    319.28s CPU    326.69s WALL (    9361 calls)
     s_psi        :     30.94s CPU     31.07s WALL (    9361 calls)
     g_psi        :      1.76s CPU      1.77s WALL (    6769 calls)
     cdiaghg      :     54.10s CPU     54.30s WALL (    8929 calls)

     Called by h_psi:
     h_psi:pot    :    317.89s CPU    325.28s WALL (    9361 calls)
     h_psi:calbec :     32.36s CPU     34.10s WALL (    9361 calls)
     vloc_psi     :    254.86s CPU    260.38s WALL (    9361 calls)
     add_vuspsi   :     30.59s CPU     30.74s WALL (    9361 calls)

     General routines
     calbec       :     50.00s CPU     52.62s WALL (   12817 calls)
     fft          :      0.17s CPU      0.20s WALL (     148 calls)
     ffts         :      0.01s CPU      0.01s WALL (      11 calls)
     fftw         :    277.61s CPU    283.50s WALL (  905592 calls)
 
     Parallel routines
     fft_scatt_xy :     29.34s CPU     29.99s WALL (  905751 calls)
     fft_scatt_yz :    128.21s CPU    131.20s WALL (  905751 calls)
 
     PWSCF        : 10m15.46s CPU    10m56.59s WALL

 
   This run was terminated on:   9:28:41  25Mar2020            

=------------------------------------------------------------------------------=
   JOB DONE.
=------------------------------------------------------------------------------=
