
     Program PWSCF v.6.3 starts on 25Mar2020 at 13:54:55 

     This program is part of the open-source Quantum ESPRESSO suite
     for quantum simulation of materials; please cite
         "P. Giannozzi et al., J. Phys.:Condens. Matter 21 395502 (2009);
         "P. Giannozzi et al., J. Phys.:Condens. Matter 29 465901 (2017);
          URL http://www.quantum-espresso.org", 
     in publications or presentations arising from this work. More details at
     http://www.quantum-espresso.org/quote

     Parallel version (MPI & OpenMP), running on      20 processor cores
     Number of MPI processes:                20
     Threads/MPI process:                     1

     MPI processes distributed on     1 nodes
     R & G space division:  proc/nbgrp/npool/nimage =      20
     Reading input from /rds/homes/b/bxp912/jobs/20200324_al_eos_e/wd/pwscf_ec/ec_5_5.in
Warning: card &IONS ignored
Warning: card ION_DYNAMICS = 'BFGS', ignored
Warning: card / ignored
Warning: card &CELL ignored
Warning: card CELL_DYNAMICS = 'BFGS', ignored
Warning: card CELL_FACTOR = 2.0, ignored
Warning: card PRESS = 0.0, ignored
Warning: card / ignored

     Current dimensions of program PWSCF are:
     Max number of different atomic species (ntypx) = 10
     Max number of k-points (npk) =  40000
     Max angular momentum in pseudopotentials (lmaxx) =  3
     Message from routine read_upf::
     Pseudo file /rds/homes/b/bxp912/pp/Al.pbe-nl-kjpaw_psl.1.0.0.UPF has been successfully fixed on the fly.
To avoid this message in the future you can permanently fix 
 your pseudo files following instructions given in: 
https://gitlab.com/QEF/q-e/blob/master/upftools/how_to_fix_upf.md
               file Al.pbe-nl-kjpaw_psl.1.0.0.UPF: wavefunction(s)  3S 3P renormalized

     Subspace diagonalization in iterative solution of the eigenvalue problem:
     a serial algorithm will be used

     Found symmetry operation: I + (  0.2500  0.2500  0.0000)
     This is a supercell, fractional translations are disabled
 
     Parallelization info
     --------------------
     sticks:   dense  smooth     PW     G-vecs:    dense   smooth      PW
     Min         185     185     51                 8499     8499    1229
     Max         186     186     53                 8505     8505    1231
     Sum        3705    3705   1033               170009   170009   24601
 


     bravais-lattice index     =            0
     lattice parameter (alat)  =      15.2652  a.u.
     unit-cell volume          =    3557.1654 (a.u.)^3
     number of atoms/cell      =           32
     number of atomic types    =            1
     number of electrons       =        96.00
     number of Kohn-Sham states=           58
     kinetic-energy cutoff     =      50.0000  Ry
     charge density cutoff     =     200.0000  Ry
     convergence threshold     =      1.0E-06
     mixing beta               =       0.1000
     number of iterations used =           10  plain     mixing
     Exchange-correlation      = SLA PW PBX PBC ( 1  4  3  4 0 0)

     celldm(1)=  15.265160  celldm(2)=   0.000000  celldm(3)=   0.000000
     celldm(4)=   0.000000  celldm(5)=   0.000000  celldm(6)=   0.000000

     crystal axes: (cart. coord. in units of alat)
               a(1) = (   1.000003   0.000000   0.002778 )  
               a(2) = (   0.000000   1.000003   0.000000 )  
               a(3) = (   0.002778   0.000000   1.000003 )  

     reciprocal axes: (cart. coord. in units 2 pi/alat)
               b(1) = (  1.000005  0.000000 -0.002778 )  
               b(2) = (  0.000000  0.999997  0.000000 )  
               b(3) = ( -0.002778  0.000000  1.000005 )  


     PseudoPot. # 1 for Al read from file:
     /rds/homes/b/bxp912/pp/Al.pbe-nl-kjpaw_psl.1.0.0.UPF
     MD5 check sum: 339dbea23cf3ab9a065ad45c0f9085d7
     Pseudo is Projector augmented-wave + core cor, Zval =  3.0
     Generated using "atomic" code by A. Dal Corso v.5.1
     Shape of augmentation charge: PSQ
     Using radial grid of 1135 points,  4 beta functions with: 
                l(1) =   0
                l(2) =   0
                l(3) =   1
                l(4) =   1
     Q(r) pseudized with 0 coefficients 


     atomic species   valence    mass     pseudopotential
        Al             3.00    26.98200     Al( 1.00)

      8 Sym. Ops., with inversion, found



   Cartesian axes

     site n.     atom                  positions (alat units)
         1           Al  tau(   1) = (   0.0000000   0.0000000   0.0000000  )
         2           Al  tau(   2) = (   0.2500006   0.2500006   0.0006944  )
         3           Al  tau(   3) = (   0.2506951   0.0000000   0.2506951  )
         4           Al  tau(   4) = (   0.0006944   0.2500006   0.2500006  )
         5           Al  tau(   5) = (   0.0013889   0.0000000   0.5000013  )
         6           Al  tau(   6) = (   0.2513895   0.2500006   0.5006957  )
         7           Al  tau(   7) = (   0.2520840   0.0000000   0.7506964  )
         8           Al  tau(   8) = (   0.0020833   0.2500006   0.7500019  )
         9           Al  tau(   9) = (   0.0000000   0.5000013   0.0000000  )
        10           Al  tau(  10) = (   0.2500006   0.7500019   0.0006944  )
        11           Al  tau(  11) = (   0.2506951   0.5000013   0.2506951  )
        12           Al  tau(  12) = (   0.0006944   0.7500019   0.2500006  )
        13           Al  tau(  13) = (   0.0013889   0.5000013   0.5000013  )
        14           Al  tau(  14) = (   0.2513895   0.7500019   0.5006957  )
        15           Al  tau(  15) = (   0.2520840   0.5000013   0.7506964  )
        16           Al  tau(  16) = (   0.0020833   0.7500019   0.7500019  )
        17           Al  tau(  17) = (   0.5000013   0.0000000   0.0013889  )
        18           Al  tau(  18) = (   0.7500019   0.2500006   0.0020833  )
        19           Al  tau(  19) = (   0.7506964   0.0000000   0.2520840  )
        20           Al  tau(  20) = (   0.5006957   0.2500006   0.2513895  )
        21           Al  tau(  21) = (   0.5013902   0.0000000   0.5013902  )
        22           Al  tau(  22) = (   0.7513908   0.2500006   0.5020846  )
        23           Al  tau(  23) = (   0.7520853   0.0000000   0.7520853  )
        24           Al  tau(  24) = (   0.5020846   0.2500006   0.7513908  )
        25           Al  tau(  25) = (   0.5000013   0.5000013   0.0013889  )
        26           Al  tau(  26) = (   0.7500019   0.7500019   0.0020833  )
        27           Al  tau(  27) = (   0.7506964   0.5000013   0.2520840  )
        28           Al  tau(  28) = (   0.5006957   0.7500019   0.2513895  )
        29           Al  tau(  29) = (   0.5013902   0.5000013   0.5013902  )
        30           Al  tau(  30) = (   0.7513908   0.7500019   0.5020846  )
        31           Al  tau(  31) = (   0.7520853   0.5000013   0.7520853  )
        32           Al  tau(  32) = (   0.5020846   0.7500019   0.7513908  )

     number of k points=   216  Marzari-Vanderbilt smearing, width (Ry)=  0.0400

     Number of k-points >= 100: set verbosity='high' to print them.

     Dense  grid:   170009 G-vectors     FFT dimensions: (  72,  72,  72)

     Estimated max dynamical RAM per process >     232.03 MB

     Estimated total dynamical RAM >       4.53 GB

     Initial potential from superposition of free atoms

     starting charge   95.92671, renormalised to   96.00000
     Starting wfcs are  128 randomized atomic wfcs
     Checking if some PAW data can be deallocated... 

     total cpu time spent up to now is       25.4 secs

     Self-consistent Calculation

     iteration #  1     ecut=    50.00 Ry     beta= 0.10
     Davidson diagonalization with overlap
     ethr =  1.00E-02,  avg # of iterations =  3.1

     Threshold (ethr) on eigenvalues was too large:
     Diagonalizing with lowered threshold

     Davidson diagonalization with overlap
     ethr =  1.91E-04,  avg # of iterations =  4.6

     total cpu time spent up to now is      119.2 secs

     total energy              =   -1264.12480499 Ry
     Harris-Foulkes estimate   =   -1264.13429025 Ry
     estimated scf accuracy    <       0.17940929 Ry

     iteration #  2     ecut=    50.00 Ry     beta= 0.10
     Davidson diagonalization with overlap
     ethr =  1.87E-04,  avg # of iterations =  1.1

     total cpu time spent up to now is      147.6 secs

     total energy              =   -1264.08384714 Ry
     Harris-Foulkes estimate   =   -1264.12557735 Ry
     estimated scf accuracy    <       0.14410842 Ry

     iteration #  3     ecut=    50.00 Ry     beta= 0.10
     Davidson diagonalization with overlap
     ethr =  1.50E-04,  avg # of iterations =  1.0

     total cpu time spent up to now is      175.8 secs

     total energy              =   -1264.08658520 Ry
     Harris-Foulkes estimate   =   -1264.08659097 Ry
     estimated scf accuracy    <       0.00024842 Ry

     iteration #  4     ecut=    50.00 Ry     beta= 0.10
     Davidson diagonalization with overlap
     c_bands:  1 eigenvalues not converged
     c_bands:  1 eigenvalues not converged
     c_bands:  1 eigenvalues not converged
     c_bands:  1 eigenvalues not converged
     c_bands:  1 eigenvalues not converged
     c_bands:  1 eigenvalues not converged
     c_bands:  1 eigenvalues not converged
     c_bands:  1 eigenvalues not converged
     c_bands:  1 eigenvalues not converged
     c_bands:  1 eigenvalues not converged
     c_bands:  2 eigenvalues not converged
     c_bands:  3 eigenvalues not converged
     c_bands:  2 eigenvalues not converged
     c_bands:  1 eigenvalues not converged
     c_bands:  1 eigenvalues not converged
     c_bands:  1 eigenvalues not converged
     c_bands:  1 eigenvalues not converged
     c_bands:  1 eigenvalues not converged
     c_bands:  1 eigenvalues not converged
     c_bands:  1 eigenvalues not converged
     c_bands:  1 eigenvalues not converged
     c_bands:  1 eigenvalues not converged
     c_bands:  1 eigenvalues not converged
     c_bands:  2 eigenvalues not converged
     c_bands:  2 eigenvalues not converged
     ethr =  2.59E-07,  avg # of iterations =  8.0

     total cpu time spent up to now is      244.5 secs

     total energy              =   -1264.08750423 Ry
     Harris-Foulkes estimate   =   -1264.08744301 Ry
     estimated scf accuracy    <       0.00021809 Ry

     iteration #  5     ecut=    50.00 Ry     beta= 0.10
     Davidson diagonalization with overlap
     c_bands:  2 eigenvalues not converged
     c_bands:  1 eigenvalues not converged
     c_bands:  1 eigenvalues not converged
     ethr =  2.27E-07,  avg # of iterations =  1.9

     total cpu time spent up to now is      275.1 secs

     total energy              =   -1264.08735400 Ry
     Harris-Foulkes estimate   =   -1264.08750583 Ry
     estimated scf accuracy    <       0.00035177 Ry

     iteration #  6     ecut=    50.00 Ry     beta= 0.10
     Davidson diagonalization with overlap
     ethr =  2.27E-07,  avg # of iterations =  1.4

     total cpu time spent up to now is      304.1 secs

     total energy              =   -1264.08736523 Ry
     Harris-Foulkes estimate   =   -1264.08736921 Ry
     estimated scf accuracy    <       0.00001459 Ry

     iteration #  7     ecut=    50.00 Ry     beta= 0.10
     Davidson diagonalization with overlap
     ethr =  1.52E-08,  avg # of iterations =  4.2

     total cpu time spent up to now is      353.3 secs

     total energy              =   -1264.08737064 Ry
     Harris-Foulkes estimate   =   -1264.08736972 Ry
     estimated scf accuracy    <       0.00000481 Ry

     iteration #  8     ecut=    50.00 Ry     beta= 0.10
     Davidson diagonalization with overlap
     ethr =  5.01E-09,  avg # of iterations =  2.4

     total cpu time spent up to now is      386.6 secs

     total energy              =   -1264.08736981 Ry
     Harris-Foulkes estimate   =   -1264.08737106 Ry
     estimated scf accuracy    <       0.00001441 Ry

     iteration #  9     ecut=    50.00 Ry     beta= 0.10
     Davidson diagonalization with overlap
     ethr =  5.01E-09,  avg # of iterations =  1.1

     total cpu time spent up to now is      415.0 secs

     total energy              =   -1264.08736812 Ry
     Harris-Foulkes estimate   =   -1264.08737000 Ry
     estimated scf accuracy    <       0.00000866 Ry

     iteration # 10     ecut=    50.00 Ry     beta= 0.10
     Davidson diagonalization with overlap
     c_bands:  1 eigenvalues not converged
     ethr =  5.01E-09,  avg # of iterations =  3.5

     total cpu time spent up to now is      455.9 secs

     End of self-consistent calculation

     Number of k-points >= 100: set verbosity='high' to print the bands.

     the Fermi energy is     7.9284 ev

!    total energy              =   -1264.08736905 Ry
     Harris-Foulkes estimate   =   -1264.08736905 Ry
     estimated scf accuracy    <       0.00000011 Ry

     total all-electron energy =    -15540.656391 Ry

     The total energy is the sum of the following terms:

     one-electron contribution =     101.33524115 Ry
     hartree contribution      =       0.19706230 Ry
     xc contribution           =     -82.93461119 Ry
     ewald contribution        =    -172.99996591 Ry
     one-center paw contrib.   =   -1109.68235910 Ry
     smearing contrib. (-TS)   =      -0.00273631 Ry

     convergence has been achieved in  10 iterations

     Forces acting on atoms (cartesian axes, Ry/au):

     atom    1 type  1   force =     0.00000000    0.00000000    0.00000000
     atom    2 type  1   force =    -0.00000520    0.00000940   -0.00000137
     atom    3 type  1   force =    -0.00000329    0.00000000   -0.00000329
     atom    4 type  1   force =    -0.00000137    0.00000940   -0.00000520
     atom    5 type  1   force =     0.00000000    0.00000000    0.00000000
     atom    6 type  1   force =    -0.00000146    0.00000649    0.00000400
     atom    7 type  1   force =    -0.00000050   -0.00000000    0.00000050
     atom    8 type  1   force =     0.00000137    0.00000940    0.00000520
     atom    9 type  1   force =     0.00000000    0.00000000    0.00000000
     atom   10 type  1   force =    -0.00000520   -0.00000940   -0.00000137
     atom   11 type  1   force =    -0.00000672    0.00000000   -0.00000672
     atom   12 type  1   force =    -0.00000137   -0.00000940   -0.00000520
     atom   13 type  1   force =     0.00000000    0.00000000    0.00000000
     atom   14 type  1   force =    -0.00000146   -0.00000649    0.00000400
     atom   15 type  1   force =    -0.00000445    0.00000000    0.00000445
     atom   16 type  1   force =     0.00000137   -0.00000940    0.00000520
     atom   17 type  1   force =     0.00000000    0.00000000    0.00000000
     atom   18 type  1   force =     0.00000520    0.00000940    0.00000137
     atom   19 type  1   force =     0.00000050   -0.00000000   -0.00000050
     atom   20 type  1   force =     0.00000400    0.00000649   -0.00000146
     atom   21 type  1   force =     0.00000000    0.00000000    0.00000000
     atom   22 type  1   force =     0.00000146    0.00000649   -0.00000400
     atom   23 type  1   force =     0.00000329    0.00000000    0.00000329
     atom   24 type  1   force =    -0.00000400    0.00000649    0.00000146
     atom   25 type  1   force =     0.00000000    0.00000000    0.00000000
     atom   26 type  1   force =     0.00000520   -0.00000940    0.00000137
     atom   27 type  1   force =     0.00000445    0.00000000   -0.00000445
     atom   28 type  1   force =     0.00000400   -0.00000649   -0.00000146
     atom   29 type  1   force =     0.00000000    0.00000000    0.00000000
     atom   30 type  1   force =     0.00000146   -0.00000649   -0.00000400
     atom   31 type  1   force =     0.00000672    0.00000000    0.00000672
     atom   32 type  1   force =    -0.00000400   -0.00000649    0.00000146

     Total force =     0.000042     Total SCF correction =     0.000239
     SCF correction compared to forces is large: reduce conv_thr to get better values


     Computing stress (Cartesian axis) and pressure

          total   stress  (Ry/bohr**3)                   (kbar)     P=    0.10
   0.00000075   0.00000000  -0.00001294          0.11      0.00     -1.90
   0.00000000   0.00000053   0.00000000          0.00      0.08      0.00
  -0.00001294   0.00000000   0.00000075         -1.90      0.00      0.11


     Writing output data file ymxjzjdWoKhHEtJh.save/
 
     init_run     :     23.89s CPU     24.51s WALL (       1 calls)
     electrons    :    422.26s CPU    430.54s WALL (       1 calls)
     forces       :      4.43s CPU      4.60s WALL (       1 calls)
     stress       :     21.86s CPU     21.97s WALL (       1 calls)

     Called by init_run:
     wfcinit      :     23.48s CPU     24.04s WALL (       1 calls)
     potinit      :      0.13s CPU      0.14s WALL (       1 calls)
     hinit0       :      0.14s CPU      0.15s WALL (       1 calls)

     Called by electrons:
     c_bands      :    370.08s CPU    376.95s WALL (      11 calls)
     sum_band     :     51.37s CPU     52.68s WALL (      11 calls)
     v_of_rho     :      0.13s CPU      0.14s WALL (      11 calls)
     newd         :      0.09s CPU      0.13s WALL (      11 calls)
     PAW_pot      :      0.64s CPU      0.65s WALL (      11 calls)
     mix_rho      :      0.03s CPU      0.04s WALL (      11 calls)

     Called by c_bands:
     init_us_2    :      8.03s CPU      8.19s WALL (    5400 calls)
     cegterg      :    348.54s CPU    354.75s WALL (    2376 calls)

     Called by sum_band:
     sum_band:bec :      0.23s CPU      0.24s WALL (    2376 calls)
     addusdens    :      0.06s CPU      0.11s WALL (      11 calls)

     Called by *egterg:
     h_psi        :    252.42s CPU    257.66s WALL (    9559 calls)
     s_psi        :     20.65s CPU     20.76s WALL (    9559 calls)
     g_psi        :      0.92s CPU      0.93s WALL (    6967 calls)
     cdiaghg      :     50.74s CPU     50.93s WALL (    9127 calls)

     Called by h_psi:
     h_psi:pot    :    250.78s CPU    256.00s WALL (    9559 calls)
     h_psi:calbec :     20.95s CPU     22.48s WALL (    9559 calls)
     vloc_psi     :    208.39s CPU    211.98s WALL (    9559 calls)
     add_vuspsi   :     21.37s CPU     21.49s WALL (    9559 calls)

     General routines
     calbec       :     32.19s CPU     34.41s WALL (   13015 calls)
     fft          :      0.15s CPU      0.18s WALL (     148 calls)
     ffts         :      0.01s CPU      0.01s WALL (      11 calls)
     fftw         :    229.63s CPU    233.55s WALL (  907458 calls)
 
     Parallel routines
     fft_scatt_xy :     21.57s CPU     21.93s WALL (  907617 calls)
     fft_scatt_yz :    134.21s CPU    136.59s WALL (  907617 calls)
 
     PWSCF        :  7m56.77s CPU     8m30.32s WALL

 
   This run was terminated on:  14: 3:26  25Mar2020            

=------------------------------------------------------------------------------=
   JOB DONE.
=------------------------------------------------------------------------------=
