
     Program PWSCF v.6.3 starts on 25Mar2020 at 18: 0:25 

     This program is part of the open-source Quantum ESPRESSO suite
     for quantum simulation of materials; please cite
         "P. Giannozzi et al., J. Phys.:Condens. Matter 21 395502 (2009);
         "P. Giannozzi et al., J. Phys.:Condens. Matter 29 465901 (2017);
          URL http://www.quantum-espresso.org", 
     in publications or presentations arising from this work. More details at
     http://www.quantum-espresso.org/quote

     Parallel version (MPI & OpenMP), running on      20 processor cores
     Number of MPI processes:                20
     Threads/MPI process:                     1

     MPI processes distributed on     1 nodes
     R & G space division:  proc/nbgrp/npool/nimage =      20
     Reading input from /rds/homes/b/bxp912/jobs/20200324_al_eos_e/wd/pwscf_ec/ec_6_7.in
Warning: card &IONS ignored
Warning: card ION_DYNAMICS = 'BFGS', ignored
Warning: card / ignored
Warning: card &CELL ignored
Warning: card CELL_DYNAMICS = 'BFGS', ignored
Warning: card CELL_FACTOR = 2.0, ignored
Warning: card PRESS = 0.0, ignored
Warning: card / ignored

     Current dimensions of program PWSCF are:
     Max number of different atomic species (ntypx) = 10
     Max number of k-points (npk) =  40000
     Max angular momentum in pseudopotentials (lmaxx) =  3
     Message from routine read_upf::
     Pseudo file /rds/homes/b/bxp912/pp/Al.pbe-nl-kjpaw_psl.1.0.0.UPF has been successfully fixed on the fly.
To avoid this message in the future you can permanently fix 
 your pseudo files following instructions given in: 
https://gitlab.com/QEF/q-e/blob/master/upftools/how_to_fix_upf.md
               file Al.pbe-nl-kjpaw_psl.1.0.0.UPF: wavefunction(s)  3S 3P renormalized

     Subspace diagonalization in iterative solution of the eigenvalue problem:
     a serial algorithm will be used

     Found symmetry operation: I + (  0.2500  0.2500  0.0000)
     This is a supercell, fractional translations are disabled
 
     Parallelization info
     --------------------
     sticks:   dense  smooth     PW     G-vecs:    dense   smooth      PW
     Min         185     185     51                 8497     8497    1229
     Max         186     186     53                 8500     8500    1231
     Sum        3717    3717   1025               169969   169969   24585
 


     bravais-lattice index     =            0
     lattice parameter (alat)  =      15.2652  a.u.
     unit-cell volume          =    3557.1654 (a.u.)^3
     number of atoms/cell      =           32
     number of atomic types    =            1
     number of electrons       =        96.00
     number of Kohn-Sham states=           58
     kinetic-energy cutoff     =      50.0000  Ry
     charge density cutoff     =     200.0000  Ry
     convergence threshold     =      1.0E-06
     mixing beta               =       0.1000
     number of iterations used =           10  plain     mixing
     Exchange-correlation      = SLA PW PBX PBC ( 1  4  3  4 0 0)

     celldm(1)=  15.265160  celldm(2)=   0.000000  celldm(3)=   0.000000
     celldm(4)=   0.000000  celldm(5)=   0.000000  celldm(6)=   0.000000

     crystal axes: (cart. coord. in units of alat)
               a(1) = (   1.000005   0.003889   0.000000 )  
               a(2) = (   0.003889   1.000005   0.000000 )  
               a(3) = (   0.000000   0.000000   1.000005 )  

     reciprocal axes: (cart. coord. in units 2 pi/alat)
               b(1) = (  1.000010 -0.003889  0.000000 )  
               b(2) = ( -0.003889  1.000010  0.000000 )  
               b(3) = (  0.000000  0.000000  0.999995 )  


     PseudoPot. # 1 for Al read from file:
     /rds/homes/b/bxp912/pp/Al.pbe-nl-kjpaw_psl.1.0.0.UPF
     MD5 check sum: 339dbea23cf3ab9a065ad45c0f9085d7
     Pseudo is Projector augmented-wave + core cor, Zval =  3.0
     Generated using "atomic" code by A. Dal Corso v.5.1
     Shape of augmentation charge: PSQ
     Using radial grid of 1135 points,  4 beta functions with: 
                l(1) =   0
                l(2) =   0
                l(3) =   1
                l(4) =   1
     Q(r) pseudized with 0 coefficients 


     atomic species   valence    mass     pseudopotential
        Al             3.00    26.98200     Al( 1.00)

      8 Sym. Ops., with inversion, found



   Cartesian axes

     site n.     atom                  positions (alat units)
         1           Al  tau(   1) = (   0.0000000   0.0000000   0.0000000  )
         2           Al  tau(   2) = (   0.2509735   0.2509735   0.0000000  )
         3           Al  tau(   3) = (   0.2500013   0.0009722   0.2500013  )
         4           Al  tau(   4) = (   0.0009722   0.2500013   0.2500013  )
         5           Al  tau(   5) = (   0.0000000   0.0000000   0.5000025  )
         6           Al  tau(   6) = (   0.2509735   0.2509735   0.5000025  )
         7           Al  tau(   7) = (   0.2500013   0.0009722   0.7500038  )
         8           Al  tau(   8) = (   0.0009722   0.2500013   0.7500038  )
         9           Al  tau(   9) = (   0.0019445   0.5000025   0.0000000  )
        10           Al  tau(  10) = (   0.2529179   0.7509760   0.0000000  )
        11           Al  tau(  11) = (   0.2519457   0.5009747   0.2500013  )
        12           Al  tau(  12) = (   0.0029167   0.7500038   0.2500013  )
        13           Al  tau(  13) = (   0.0019445   0.5000025   0.5000025  )
        14           Al  tau(  14) = (   0.2529179   0.7509760   0.5000025  )
        15           Al  tau(  15) = (   0.2519457   0.5009747   0.7500038  )
        16           Al  tau(  16) = (   0.0029167   0.7500038   0.7500038  )
        17           Al  tau(  17) = (   0.5000025   0.0019445   0.0000000  )
        18           Al  tau(  18) = (   0.7509760   0.2529179   0.0000000  )
        19           Al  tau(  19) = (   0.7500038   0.0029167   0.2500013  )
        20           Al  tau(  20) = (   0.5009747   0.2519457   0.2500013  )
        21           Al  tau(  21) = (   0.5000025   0.0019445   0.5000025  )
        22           Al  tau(  22) = (   0.7509760   0.2529179   0.5000025  )
        23           Al  tau(  23) = (   0.7500038   0.0029167   0.7500038  )
        24           Al  tau(  24) = (   0.5009747   0.2519457   0.7500038  )
        25           Al  tau(  25) = (   0.5019470   0.5019470   0.0000000  )
        26           Al  tau(  26) = (   0.7529205   0.7529205   0.0000000  )
        27           Al  tau(  27) = (   0.7519482   0.5029192   0.2500013  )
        28           Al  tau(  28) = (   0.5029192   0.7519482   0.2500013  )
        29           Al  tau(  29) = (   0.5019470   0.5019470   0.5000025  )
        30           Al  tau(  30) = (   0.7529205   0.7529205   0.5000025  )
        31           Al  tau(  31) = (   0.7519482   0.5029192   0.7500038  )
        32           Al  tau(  32) = (   0.5029192   0.7519482   0.7500038  )

     number of k points=   216  Marzari-Vanderbilt smearing, width (Ry)=  0.0400

     Number of k-points >= 100: set verbosity='high' to print them.

     Dense  grid:   169969 G-vectors     FFT dimensions: (  72,  72,  72)

     Estimated max dynamical RAM per process >     232.03 MB

     Estimated total dynamical RAM >       4.53 GB

     Initial potential from superposition of free atoms

     starting charge   95.92671, renormalised to   96.00000
     Starting wfcs are  128 randomized atomic wfcs
     Checking if some PAW data can be deallocated... 

     total cpu time spent up to now is       30.1 secs

     Self-consistent Calculation

     iteration #  1     ecut=    50.00 Ry     beta= 0.10
     Davidson diagonalization with overlap
     ethr =  1.00E-02,  avg # of iterations =  3.1

     Threshold (ethr) on eigenvalues was too large:
     Diagonalizing with lowered threshold

     Davidson diagonalization with overlap
     ethr =  1.91E-04,  avg # of iterations =  4.6

     total cpu time spent up to now is      141.3 secs

     total energy              =   -1264.12463137 Ry
     Harris-Foulkes estimate   =   -1264.13410590 Ry
     estimated scf accuracy    <       0.17942752 Ry

     iteration #  2     ecut=    50.00 Ry     beta= 0.10
     Davidson diagonalization with overlap
     ethr =  1.87E-04,  avg # of iterations =  1.1

     total cpu time spent up to now is      181.5 secs

     total energy              =   -1264.08371947 Ry
     Harris-Foulkes estimate   =   -1264.12541163 Ry
     estimated scf accuracy    <       0.14412643 Ry

     iteration #  3     ecut=    50.00 Ry     beta= 0.10
     Davidson diagonalization with overlap
     ethr =  1.50E-04,  avg # of iterations =  1.0

     total cpu time spent up to now is      219.5 secs

     total energy              =   -1264.08646042 Ry
     Harris-Foulkes estimate   =   -1264.08646541 Ry
     estimated scf accuracy    <       0.00024224 Ry

     iteration #  4     ecut=    50.00 Ry     beta= 0.10
     Davidson diagonalization with overlap
     c_bands:  2 eigenvalues not converged
     c_bands:  1 eigenvalues not converged
     c_bands:  1 eigenvalues not converged
     c_bands:  1 eigenvalues not converged
     c_bands:  2 eigenvalues not converged
     c_bands:  1 eigenvalues not converged
     c_bands:  3 eigenvalues not converged
     c_bands:  1 eigenvalues not converged
     c_bands:  1 eigenvalues not converged
     c_bands:  1 eigenvalues not converged
     c_bands:  1 eigenvalues not converged
     c_bands:  1 eigenvalues not converged
     c_bands:  1 eigenvalues not converged
     c_bands:  1 eigenvalues not converged
     c_bands:  2 eigenvalues not converged
     c_bands:  1 eigenvalues not converged
     c_bands:  1 eigenvalues not converged
     c_bands:  2 eigenvalues not converged
     ethr =  2.52E-07,  avg # of iterations =  7.7

     total cpu time spent up to now is      303.8 secs

     total energy              =   -1264.08738694 Ry
     Harris-Foulkes estimate   =   -1264.08731885 Ry
     estimated scf accuracy    <       0.00021497 Ry

     iteration #  5     ecut=    50.00 Ry     beta= 0.10
     Davidson diagonalization with overlap
     c_bands:  1 eigenvalues not converged
     ethr =  2.24E-07,  avg # of iterations =  1.6

     total cpu time spent up to now is      341.5 secs

     total energy              =   -1264.08722795 Ry
     Harris-Foulkes estimate   =   -1264.08738844 Ry
     estimated scf accuracy    <       0.00036009 Ry

     iteration #  6     ecut=    50.00 Ry     beta= 0.10
     Davidson diagonalization with overlap
     ethr =  2.24E-07,  avg # of iterations =  1.3

     total cpu time spent up to now is      376.3 secs

     total energy              =   -1264.08724195 Ry
     Harris-Foulkes estimate   =   -1264.08724330 Ry
     estimated scf accuracy    <       0.00000524 Ry

     iteration #  7     ecut=    50.00 Ry     beta= 0.10
     Davidson diagonalization with overlap
     c_bands:  2 eigenvalues not converged
     c_bands:  1 eigenvalues not converged
     c_bands:  2 eigenvalues not converged
     c_bands:  1 eigenvalues not converged
     ethr =  5.46E-09,  avg # of iterations =  5.3

     total cpu time spent up to now is      448.3 secs

     total energy              =   -1264.08724712 Ry
     Harris-Foulkes estimate   =   -1264.08724666 Ry
     estimated scf accuracy    <       0.00000231 Ry

     iteration #  8     ecut=    50.00 Ry     beta= 0.10
     Davidson diagonalization with overlap
     ethr =  2.41E-09,  avg # of iterations =  1.8

     total cpu time spent up to now is      484.1 secs

     total energy              =   -1264.08724626 Ry
     Harris-Foulkes estimate   =   -1264.08724725 Ry
     estimated scf accuracy    <       0.00000520 Ry

     iteration #  9     ecut=    50.00 Ry     beta= 0.10
     Davidson diagonalization with overlap
     ethr =  2.41E-09,  avg # of iterations =  2.0

     total cpu time spent up to now is      520.1 secs

     total energy              =   -1264.08724604 Ry
     Harris-Foulkes estimate   =   -1264.08724646 Ry
     estimated scf accuracy    <       0.00000180 Ry

     iteration # 10     ecut=    50.00 Ry     beta= 0.10
     Davidson diagonalization with overlap
     ethr =  1.87E-09,  avg # of iterations =  2.8

     total cpu time spent up to now is      561.1 secs

     End of self-consistent calculation

     Number of k-points >= 100: set verbosity='high' to print the bands.

     the Fermi energy is     7.9283 ev

!    total energy              =   -1264.08724625 Ry
     Harris-Foulkes estimate   =   -1264.08724624 Ry
     estimated scf accuracy    <       0.00000012 Ry

     total all-electron energy =    -15540.656268 Ry

     The total energy is the sum of the following terms:

     one-electron contribution =     101.33493698 Ry
     hartree contribution      =       0.19723522 Ry
     xc contribution           =     -82.93478111 Ry
     ewald contribution        =    -172.99943574 Ry
     one-center paw contrib.   =   -1109.68247366 Ry
     smearing contrib. (-TS)   =      -0.00272793 Ry

     convergence has been achieved in  10 iterations

     Forces acting on atoms (cartesian axes, Ry/au):

     atom    1 type  1   force =     0.00000000    0.00000000    0.00000000
     atom    2 type  1   force =     0.00001122    0.00001122    0.00000000
     atom    3 type  1   force =     0.00000429   -0.00000654   -0.00000188
     atom    4 type  1   force =    -0.00000654    0.00000429   -0.00000188
     atom    5 type  1   force =     0.00000000    0.00000000    0.00000000
     atom    6 type  1   force =     0.00000180    0.00000180    0.00000000
     atom    7 type  1   force =     0.00000429   -0.00000654    0.00000188
     atom    8 type  1   force =    -0.00000654    0.00000429    0.00000188
     atom    9 type  1   force =     0.00000000    0.00000000    0.00000000
     atom   10 type  1   force =     0.00000810   -0.00000810    0.00000000
     atom   11 type  1   force =     0.00000946    0.00000447   -0.00000795
     atom   12 type  1   force =     0.00000654   -0.00000429   -0.00000188
     atom   13 type  1   force =     0.00000000    0.00000000    0.00000000
     atom   14 type  1   force =     0.00000397   -0.00000397    0.00000000
     atom   15 type  1   force =     0.00000946    0.00000447    0.00000795
     atom   16 type  1   force =     0.00000654   -0.00000429    0.00000188
     atom   17 type  1   force =     0.00000000    0.00000000    0.00000000
     atom   18 type  1   force =    -0.00000810    0.00000810    0.00000000
     atom   19 type  1   force =    -0.00000429    0.00000654   -0.00000188
     atom   20 type  1   force =     0.00000447    0.00000946   -0.00000795
     atom   21 type  1   force =     0.00000000    0.00000000    0.00000000
     atom   22 type  1   force =    -0.00000397    0.00000397    0.00000000
     atom   23 type  1   force =    -0.00000429    0.00000654    0.00000188
     atom   24 type  1   force =     0.00000447    0.00000946    0.00000795
     atom   25 type  1   force =     0.00000000    0.00000000    0.00000000
     atom   26 type  1   force =    -0.00001122   -0.00001122    0.00000000
     atom   27 type  1   force =    -0.00000946   -0.00000447   -0.00000795
     atom   28 type  1   force =    -0.00000447   -0.00000946   -0.00000795
     atom   29 type  1   force =     0.00000000    0.00000000    0.00000000
     atom   30 type  1   force =    -0.00000180   -0.00000180    0.00000000
     atom   31 type  1   force =    -0.00000946   -0.00000447    0.00000795
     atom   32 type  1   force =    -0.00000447   -0.00000946    0.00000795

     Total force =     0.000052     Total SCF correction =     0.000180
     SCF correction compared to forces is large: reduce conv_thr to get better values


     Computing stress (Cartesian axis) and pressure

          total   stress  (Ry/bohr**3)                   (kbar)     P=    0.12
   0.00000098  -0.00001814   0.00000000          0.14     -2.67      0.00
  -0.00001814   0.00000098   0.00000000         -2.67      0.14      0.00
   0.00000000   0.00000000   0.00000053          0.00      0.00      0.08


     Writing output data file caNmItTSegiCAkWu.save/
 
     init_run     :     28.86s CPU     29.55s WALL (       1 calls)
     electrons    :    517.32s CPU    531.02s WALL (       1 calls)
     forces       :      5.96s CPU      6.18s WALL (       1 calls)
     stress       :     34.12s CPU     34.24s WALL (       1 calls)

     Called by init_run:
     wfcinit      :     28.43s CPU     29.09s WALL (       1 calls)
     potinit      :      0.13s CPU      0.13s WALL (       1 calls)
     hinit0       :      0.19s CPU      0.20s WALL (       1 calls)

     Called by electrons:
     c_bands      :    452.15s CPU    463.72s WALL (      11 calls)
     sum_band     :     64.25s CPU     66.31s WALL (      11 calls)
     v_of_rho     :      0.14s CPU      0.15s WALL (      11 calls)
     newd         :      0.10s CPU      0.14s WALL (      11 calls)
     PAW_pot      :      0.71s CPU      0.72s WALL (      11 calls)
     mix_rho      :      0.04s CPU      0.04s WALL (      11 calls)

     Called by c_bands:
     init_us_2    :     10.41s CPU     10.64s WALL (    5400 calls)
     cegterg      :    426.51s CPU    436.00s WALL (    2376 calls)

     Called by sum_band:
     sum_band:bec :      0.27s CPU      0.27s WALL (    2376 calls)
     addusdens    :      0.08s CPU      0.12s WALL (      11 calls)

     Called by *egterg:
     h_psi        :    307.66s CPU    315.86s WALL (    9560 calls)
     s_psi        :     28.39s CPU     28.53s WALL (    9560 calls)
     g_psi        :      2.03s CPU      2.04s WALL (    6968 calls)
     cdiaghg      :     56.11s CPU     56.37s WALL (    9128 calls)

     Called by h_psi:
     h_psi:pot    :    306.30s CPU    314.48s WALL (    9560 calls)
     h_psi:calbec :     30.16s CPU     31.79s WALL (    9560 calls)
     vloc_psi     :    247.90s CPU    254.29s WALL (    9560 calls)
     add_vuspsi   :     28.16s CPU     28.34s WALL (    9560 calls)

     General routines
     calbec       :     45.93s CPU     48.45s WALL (   13016 calls)
     fft          :      0.20s CPU      0.23s WALL (     148 calls)
     ffts         :      0.01s CPU      0.01s WALL (      11 calls)
     fftw         :    271.31s CPU    278.20s WALL (  913648 calls)
 
     Parallel routines
     fft_scatt_xy :     27.76s CPU     28.47s WALL (  913807 calls)
     fft_scatt_yz :    132.62s CPU    136.41s WALL (  913807 calls)
 
     PWSCF        :  9m51.93s CPU    10m23.25s WALL

 
   This run was terminated on:  18:10:49  25Mar2020            

=------------------------------------------------------------------------------=
   JOB DONE.
=------------------------------------------------------------------------------=
