
     Program PWSCF v.6.3 starts on 25Mar2020 at 14:53: 1 

     This program is part of the open-source Quantum ESPRESSO suite
     for quantum simulation of materials; please cite
         "P. Giannozzi et al., J. Phys.:Condens. Matter 21 395502 (2009);
         "P. Giannozzi et al., J. Phys.:Condens. Matter 29 465901 (2017);
          URL http://www.quantum-espresso.org", 
     in publications or presentations arising from this work. More details at
     http://www.quantum-espresso.org/quote

     Parallel version (MPI & OpenMP), running on      20 processor cores
     Number of MPI processes:                20
     Threads/MPI process:                     1

     MPI processes distributed on     1 nodes
     R & G space division:  proc/nbgrp/npool/nimage =      20
     Reading input from /rds/homes/b/bxp912/jobs/20200324_al_eos_e/wd/pwscf_ec/ec_6_2.in
Warning: card &IONS ignored
Warning: card ION_DYNAMICS = 'BFGS', ignored
Warning: card / ignored
Warning: card &CELL ignored
Warning: card CELL_DYNAMICS = 'BFGS', ignored
Warning: card CELL_FACTOR = 2.0, ignored
Warning: card PRESS = 0.0, ignored
Warning: card / ignored

     Current dimensions of program PWSCF are:
     Max number of different atomic species (ntypx) = 10
     Max number of k-points (npk) =  40000
     Max angular momentum in pseudopotentials (lmaxx) =  3
     Message from routine read_upf::
     Pseudo file /rds/homes/b/bxp912/pp/Al.pbe-nl-kjpaw_psl.1.0.0.UPF has been successfully fixed on the fly.
To avoid this message in the future you can permanently fix 
 your pseudo files following instructions given in: 
https://gitlab.com/QEF/q-e/blob/master/upftools/how_to_fix_upf.md
               file Al.pbe-nl-kjpaw_psl.1.0.0.UPF: wavefunction(s)  3S 3P renormalized

     Subspace diagonalization in iterative solution of the eigenvalue problem:
     a serial algorithm will be used

     Found symmetry operation: I + (  0.2500  0.2500  0.0000)
     This is a supercell, fractional translations are disabled
 
     Parallelization info
     --------------------
     sticks:   dense  smooth     PW     G-vecs:    dense   smooth      PW
     Min         185     185     51                 8499     8499    1230
     Max         187     187     53                 8502     8502    1231
     Sum        3709    3709   1029               169997   169997   24617
 


     bravais-lattice index     =            0
     lattice parameter (alat)  =      15.2652  a.u.
     unit-cell volume          =    3557.1654 (a.u.)^3
     number of atoms/cell      =           32
     number of atomic types    =            1
     number of electrons       =        96.00
     number of Kohn-Sham states=           58
     kinetic-energy cutoff     =      50.0000  Ry
     charge density cutoff     =     200.0000  Ry
     convergence threshold     =      1.0E-06
     mixing beta               =       0.1000
     number of iterations used =           10  plain     mixing
     Exchange-correlation      = SLA PW PBX PBC ( 1  4  3  4 0 0)

     celldm(1)=  15.265160  celldm(2)=   0.000000  celldm(3)=   0.000000
     celldm(4)=   0.000000  celldm(5)=   0.000000  celldm(6)=   0.000000

     crystal axes: (cart. coord. in units of alat)
               a(1) = (   1.000000   0.001111   0.000000 )  
               a(2) = (   0.001111   1.000000   0.000000 )  
               a(3) = (   0.000000   0.000000   1.000000 )  

     reciprocal axes: (cart. coord. in units 2 pi/alat)
               b(1) = (  1.000001 -0.001111  0.000000 )  
               b(2) = ( -0.001111  1.000001  0.000000 )  
               b(3) = (  0.000000  0.000000  1.000000 )  


     PseudoPot. # 1 for Al read from file:
     /rds/homes/b/bxp912/pp/Al.pbe-nl-kjpaw_psl.1.0.0.UPF
     MD5 check sum: 339dbea23cf3ab9a065ad45c0f9085d7
     Pseudo is Projector augmented-wave + core cor, Zval =  3.0
     Generated using "atomic" code by A. Dal Corso v.5.1
     Shape of augmentation charge: PSQ
     Using radial grid of 1135 points,  4 beta functions with: 
                l(1) =   0
                l(2) =   0
                l(3) =   1
                l(4) =   1
     Q(r) pseudized with 0 coefficients 


     atomic species   valence    mass     pseudopotential
        Al             3.00    26.98200     Al( 1.00)

      8 Sym. Ops., with inversion, found



   Cartesian axes

     site n.     atom                  positions (alat units)
         1           Al  tau(   1) = (   0.0000000   0.0000000   0.0000000  )
         2           Al  tau(   2) = (   0.2502779   0.2502779   0.0000000  )
         3           Al  tau(   3) = (   0.2500001   0.0002778   0.2500001  )
         4           Al  tau(   4) = (   0.0002778   0.2500001   0.2500001  )
         5           Al  tau(   5) = (   0.0000000   0.0000000   0.5000002  )
         6           Al  tau(   6) = (   0.2502779   0.2502779   0.5000002  )
         7           Al  tau(   7) = (   0.2500001   0.0002778   0.7500003  )
         8           Al  tau(   8) = (   0.0002778   0.2500001   0.7500003  )
         9           Al  tau(   9) = (   0.0005556   0.5000002   0.0000000  )
        10           Al  tau(  10) = (   0.2508334   0.7502781   0.0000000  )
        11           Al  tau(  11) = (   0.2505557   0.5002780   0.2500001  )
        12           Al  tau(  12) = (   0.0008333   0.7500003   0.2500001  )
        13           Al  tau(  13) = (   0.0005556   0.5000002   0.5000002  )
        14           Al  tau(  14) = (   0.2508334   0.7502781   0.5000002  )
        15           Al  tau(  15) = (   0.2505557   0.5002780   0.7500003  )
        16           Al  tau(  16) = (   0.0008333   0.7500003   0.7500003  )
        17           Al  tau(  17) = (   0.5000002   0.0005556   0.0000000  )
        18           Al  tau(  18) = (   0.7502781   0.2508334   0.0000000  )
        19           Al  tau(  19) = (   0.7500003   0.0008333   0.2500001  )
        20           Al  tau(  20) = (   0.5002780   0.2505557   0.2500001  )
        21           Al  tau(  21) = (   0.5000002   0.0005556   0.5000002  )
        22           Al  tau(  22) = (   0.7502781   0.2508334   0.5000002  )
        23           Al  tau(  23) = (   0.7500003   0.0008333   0.7500003  )
        24           Al  tau(  24) = (   0.5002780   0.2505557   0.7500003  )
        25           Al  tau(  25) = (   0.5005558   0.5005558   0.0000000  )
        26           Al  tau(  26) = (   0.7508336   0.7508336   0.0000000  )
        27           Al  tau(  27) = (   0.7505559   0.5008335   0.2500001  )
        28           Al  tau(  28) = (   0.5008335   0.7505559   0.2500001  )
        29           Al  tau(  29) = (   0.5005558   0.5005558   0.5000002  )
        30           Al  tau(  30) = (   0.7508336   0.7508336   0.5000002  )
        31           Al  tau(  31) = (   0.7505559   0.5008335   0.7500003  )
        32           Al  tau(  32) = (   0.5008335   0.7505559   0.7500003  )

     number of k points=   216  Marzari-Vanderbilt smearing, width (Ry)=  0.0400

     Number of k-points >= 100: set verbosity='high' to print them.

     Dense  grid:   169997 G-vectors     FFT dimensions: (  72,  72,  72)

     Estimated max dynamical RAM per process >     232.03 MB

     Estimated total dynamical RAM >       4.53 GB

     Initial potential from superposition of free atoms

     starting charge   95.92671, renormalised to   96.00000
     Starting wfcs are  128 randomized atomic wfcs
     Checking if some PAW data can be deallocated... 

     total cpu time spent up to now is       32.1 secs

     Self-consistent Calculation

     iteration #  1     ecut=    50.00 Ry     beta= 0.10
     Davidson diagonalization with overlap
     ethr =  1.00E-02,  avg # of iterations =  3.1

     Threshold (ethr) on eigenvalues was too large:
     Diagonalizing with lowered threshold

     Davidson diagonalization with overlap
     ethr =  1.91E-04,  avg # of iterations =  4.6

     total cpu time spent up to now is      149.3 secs

     total energy              =   -1264.12488670 Ry
     Harris-Foulkes estimate   =   -1264.13436144 Ry
     estimated scf accuracy    <       0.17941118 Ry

     iteration #  2     ecut=    50.00 Ry     beta= 0.10
     Davidson diagonalization with overlap
     ethr =  1.87E-04,  avg # of iterations =  1.1

     total cpu time spent up to now is      185.4 secs

     total energy              =   -1264.08395081 Ry
     Harris-Foulkes estimate   =   -1264.12565339 Ry
     estimated scf accuracy    <       0.14411633 Ry

     iteration #  3     ecut=    50.00 Ry     beta= 0.10
     Davidson diagonalization with overlap
     ethr =  1.50E-04,  avg # of iterations =  1.0

     total cpu time spent up to now is      222.0 secs

     total energy              =   -1264.08669190 Ry
     Harris-Foulkes estimate   =   -1264.08669746 Ry
     estimated scf accuracy    <       0.00024265 Ry

     iteration #  4     ecut=    50.00 Ry     beta= 0.10
     Davidson diagonalization with overlap
     c_bands:  1 eigenvalues not converged
     c_bands:  1 eigenvalues not converged
     c_bands:  1 eigenvalues not converged
     c_bands:  1 eigenvalues not converged
     c_bands:  1 eigenvalues not converged
     c_bands:  1 eigenvalues not converged
     c_bands:  1 eigenvalues not converged
     c_bands:  1 eigenvalues not converged
     c_bands:  2 eigenvalues not converged
     c_bands:  1 eigenvalues not converged
     c_bands:  2 eigenvalues not converged
     c_bands:  2 eigenvalues not converged
     ethr =  2.53E-07,  avg # of iterations =  7.3

     total cpu time spent up to now is      307.1 secs

     total energy              =   -1264.08760046 Ry
     Harris-Foulkes estimate   =   -1264.08754979 Ry
     estimated scf accuracy    <       0.00021512 Ry

     iteration #  5     ecut=    50.00 Ry     beta= 0.10
     Davidson diagonalization with overlap
     c_bands:  1 eigenvalues not converged
     c_bands:  1 eigenvalues not converged
     ethr =  2.24E-07,  avg # of iterations =  1.3

     total cpu time spent up to now is      343.7 secs

     total energy              =   -1264.08746037 Ry
     Harris-Foulkes estimate   =   -1264.08760160 Ry
     estimated scf accuracy    <       0.00032193 Ry

     iteration #  6     ecut=    50.00 Ry     beta= 0.10
     Davidson diagonalization with overlap
     ethr =  2.24E-07,  avg # of iterations =  1.4

     total cpu time spent up to now is      391.2 secs

     total energy              =   -1264.08747317 Ry
     Harris-Foulkes estimate   =   -1264.08747527 Ry
     estimated scf accuracy    <       0.00000730 Ry

     iteration #  7     ecut=    50.00 Ry     beta= 0.10
     Davidson diagonalization with overlap
     c_bands:  1 eigenvalues not converged
     ethr =  7.60E-09,  avg # of iterations =  4.9

     total cpu time spent up to now is      471.5 secs

     total energy              =   -1264.08747707 Ry
     Harris-Foulkes estimate   =   -1264.08747658 Ry
     estimated scf accuracy    <       0.00000251 Ry

     iteration #  8     ecut=    50.00 Ry     beta= 0.10
     Davidson diagonalization with overlap
     ethr =  2.62E-09,  avg # of iterations =  1.7

     total cpu time spent up to now is      509.0 secs

     total energy              =   -1264.08747609 Ry
     Harris-Foulkes estimate   =   -1264.08747721 Ry
     estimated scf accuracy    <       0.00000565 Ry

     iteration #  9     ecut=    50.00 Ry     beta= 0.10
     Davidson diagonalization with overlap
     ethr =  2.62E-09,  avg # of iterations =  2.1

     total cpu time spent up to now is      548.4 secs

     total energy              =   -1264.08747594 Ry
     Harris-Foulkes estimate   =   -1264.08747635 Ry
     estimated scf accuracy    <       0.00000176 Ry

     iteration # 10     ecut=    50.00 Ry     beta= 0.10
     Davidson diagonalization with overlap
     ethr =  1.83E-09,  avg # of iterations =  2.6

     total cpu time spent up to now is      591.1 secs

     End of self-consistent calculation

     Number of k-points >= 100: set verbosity='high' to print the bands.

     the Fermi energy is     7.9284 ev

!    total energy              =   -1264.08747609 Ry
     Harris-Foulkes estimate   =   -1264.08747612 Ry
     estimated scf accuracy    <       0.00000017 Ry

     total all-electron energy =    -15540.656498 Ry

     The total energy is the sum of the following terms:

     one-electron contribution =     101.33554535 Ry
     hartree contribution      =       0.19691239 Ry
     xc contribution           =     -82.93449068 Ry
     ewald contribution        =    -173.00042978 Ry
     one-center paw contrib.   =   -1109.68227104 Ry
     smearing contrib. (-TS)   =      -0.00274233 Ry

     convergence has been achieved in  10 iterations

     Forces acting on atoms (cartesian axes, Ry/au):

     atom    1 type  1   force =     0.00000000    0.00000000    0.00000000
     atom    2 type  1   force =     0.00001623    0.00001623    0.00000000
     atom    3 type  1   force =     0.00000470   -0.00001160   -0.00000212
     atom    4 type  1   force =    -0.00001160    0.00000470   -0.00000212
     atom    5 type  1   force =     0.00000000    0.00000000    0.00000000
     atom    6 type  1   force =     0.00000183    0.00000183    0.00000000
     atom    7 type  1   force =     0.00000470   -0.00001160    0.00000212
     atom    8 type  1   force =    -0.00001160    0.00000470    0.00000212
     atom    9 type  1   force =     0.00000000    0.00000000    0.00000000
     atom   10 type  1   force =     0.00001253   -0.00001253    0.00000000
     atom   11 type  1   force =     0.00001546    0.00000988   -0.00001284
     atom   12 type  1   force =     0.00001160   -0.00000470   -0.00000212
     atom   13 type  1   force =     0.00000000    0.00000000    0.00000000
     atom   14 type  1   force =     0.00000449   -0.00000449    0.00000000
     atom   15 type  1   force =     0.00001546    0.00000988    0.00001284
     atom   16 type  1   force =     0.00001160   -0.00000470    0.00000212
     atom   17 type  1   force =     0.00000000    0.00000000    0.00000000
     atom   18 type  1   force =    -0.00001253    0.00001253    0.00000000
     atom   19 type  1   force =    -0.00000470    0.00001160   -0.00000212
     atom   20 type  1   force =     0.00000988    0.00001546   -0.00001284
     atom   21 type  1   force =     0.00000000    0.00000000    0.00000000
     atom   22 type  1   force =    -0.00000449    0.00000449    0.00000000
     atom   23 type  1   force =    -0.00000470    0.00001160    0.00000212
     atom   24 type  1   force =     0.00000988    0.00001546    0.00001284
     atom   25 type  1   force =     0.00000000    0.00000000    0.00000000
     atom   26 type  1   force =    -0.00001623   -0.00001623    0.00000000
     atom   27 type  1   force =    -0.00001546   -0.00000988   -0.00001284
     atom   28 type  1   force =    -0.00000988   -0.00001546   -0.00001284
     atom   29 type  1   force =     0.00000000    0.00000000    0.00000000
     atom   30 type  1   force =    -0.00000183   -0.00000183    0.00000000
     atom   31 type  1   force =    -0.00001546   -0.00000988    0.00001284
     atom   32 type  1   force =    -0.00000988   -0.00001546    0.00001284

     Total force =     0.000084     Total SCF correction =     0.000274
     SCF correction compared to forces is large: reduce conv_thr to get better values


     Computing stress (Cartesian axis) and pressure

          total   stress  (Ry/bohr**3)                   (kbar)     P=    0.08
   0.00000055  -0.00000517   0.00000000          0.08     -0.76      0.00
  -0.00000517   0.00000055   0.00000000         -0.76      0.08      0.00
   0.00000000   0.00000000   0.00000052          0.00      0.00      0.08


     Writing output data file pDBVeunMXoNUBbSB.save/
 
     init_run     :     30.77s CPU     31.53s WALL (       1 calls)
     electrons    :    547.29s CPU    559.04s WALL (       1 calls)
     forces       :      6.42s CPU      6.64s WALL (       1 calls)
     stress       :     41.12s CPU     41.22s WALL (       1 calls)

     Called by init_run:
     wfcinit      :     30.41s CPU     31.13s WALL (       1 calls)
     potinit      :      0.12s CPU      0.12s WALL (       1 calls)
     hinit0       :      0.11s CPU      0.15s WALL (       1 calls)

     Called by electrons:
     c_bands      :    478.49s CPU    488.29s WALL (      11 calls)
     sum_band     :     67.85s CPU     69.72s WALL (      11 calls)
     v_of_rho     :      0.14s CPU      0.15s WALL (      11 calls)
     newd         :      0.12s CPU      0.16s WALL (      11 calls)
     PAW_pot      :      0.74s CPU      0.75s WALL (      11 calls)
     mix_rho      :      0.03s CPU      0.04s WALL (      11 calls)

     Called by c_bands:
     init_us_2    :      9.60s CPU      9.78s WALL (    5400 calls)
     cegterg      :    451.00s CPU    460.47s WALL (    2376 calls)

     Called by sum_band:
     sum_band:bec :      0.28s CPU      0.29s WALL (    2376 calls)
     addusdens    :      0.08s CPU      0.12s WALL (      11 calls)

     Called by *egterg:
     h_psi        :    327.99s CPU    336.15s WALL (    9332 calls)
     s_psi        :     31.67s CPU     31.84s WALL (    9332 calls)
     g_psi        :      1.77s CPU      1.79s WALL (    6740 calls)
     cdiaghg      :     55.46s CPU     55.70s WALL (    8900 calls)

     Called by h_psi:
     h_psi:pot    :    326.51s CPU    334.65s WALL (    9332 calls)
     h_psi:calbec :     33.53s CPU     35.28s WALL (    9332 calls)
     vloc_psi     :    261.57s CPU    267.80s WALL (    9332 calls)
     add_vuspsi   :     31.33s CPU     31.51s WALL (    9332 calls)

     General routines
     calbec       :     49.63s CPU     52.22s WALL (   12788 calls)
     fft          :      0.13s CPU      0.18s WALL (     148 calls)
     ffts         :      0.01s CPU      0.01s WALL (      11 calls)
     fftw         :    287.02s CPU    293.64s WALL (  902204 calls)
 
     Parallel routines
     fft_scatt_xy :     29.29s CPU     29.92s WALL (  902363 calls)
     fft_scatt_yz :    138.16s CPU    141.61s WALL (  902363 calls)
 
     PWSCF        : 10m30.29s CPU    10m58.44s WALL

 
   This run was terminated on:  15: 4: 0  25Mar2020            

=------------------------------------------------------------------------------=
   JOB DONE.
=------------------------------------------------------------------------------=
