
     Program PWSCF v.6.3 starts on 25Mar2020 at 19:19:43 

     This program is part of the open-source Quantum ESPRESSO suite
     for quantum simulation of materials; please cite
         "P. Giannozzi et al., J. Phys.:Condens. Matter 21 395502 (2009);
         "P. Giannozzi et al., J. Phys.:Condens. Matter 29 465901 (2017);
          URL http://www.quantum-espresso.org", 
     in publications or presentations arising from this work. More details at
     http://www.quantum-espresso.org/quote

     Parallel version (MPI & OpenMP), running on      20 processor cores
     Number of MPI processes:                20
     Threads/MPI process:                     1

     MPI processes distributed on     1 nodes
     R & G space division:  proc/nbgrp/npool/nimage =      20
     Reading input from /rds/homes/b/bxp912/jobs/20200324_al_eos_e/wd/pwscf_ec/ec_7_7.in
Warning: card &IONS ignored
Warning: card ION_DYNAMICS = 'BFGS', ignored
Warning: card / ignored
Warning: card &CELL ignored
Warning: card CELL_DYNAMICS = 'BFGS', ignored
Warning: card CELL_FACTOR = 2.0, ignored
Warning: card PRESS = 0.0, ignored
Warning: card / ignored

     Current dimensions of program PWSCF are:
     Max number of different atomic species (ntypx) = 10
     Max number of k-points (npk) =  40000
     Max angular momentum in pseudopotentials (lmaxx) =  3
     Message from routine read_upf::
     Pseudo file /rds/homes/b/bxp912/pp/Al.pbe-nl-kjpaw_psl.1.0.0.UPF has been successfully fixed on the fly.
To avoid this message in the future you can permanently fix 
 your pseudo files following instructions given in: 
https://gitlab.com/QEF/q-e/blob/master/upftools/how_to_fix_upf.md
               file Al.pbe-nl-kjpaw_psl.1.0.0.UPF: wavefunction(s)  3S 3P renormalized

     Subspace diagonalization in iterative solution of the eigenvalue problem:
     a serial algorithm will be used

     Found symmetry operation: I + (  0.2500  0.2500  0.0000)
     This is a supercell, fractional translations are disabled
 
     Parallelization info
     --------------------
     sticks:   dense  smooth     PW     G-vecs:    dense   smooth      PW
     Min         185     185     51                 8495     8495    1231
     Max         186     186     53                 8498     8498    1233
     Sum        3709    3709   1023               169913   169913   24631
 


     bravais-lattice index     =            0
     lattice parameter (alat)  =      15.2652  a.u.
     unit-cell volume          =    3557.1654 (a.u.)^3
     number of atoms/cell      =           32
     number of atomic types    =            1
     number of electrons       =        96.00
     number of Kohn-Sham states=           58
     kinetic-energy cutoff     =      50.0000  Ry
     charge density cutoff     =     200.0000  Ry
     convergence threshold     =      1.0E-06
     mixing beta               =       0.1000
     number of iterations used =           10  plain     mixing
     Exchange-correlation      = SLA PW PBX PBC ( 1  4  3  4 0 0)

     celldm(1)=  15.265160  celldm(2)=   0.000000  celldm(3)=   0.000000
     celldm(4)=   0.000000  celldm(5)=   0.000000  celldm(6)=   0.000000

     crystal axes: (cart. coord. in units of alat)
               a(1) = (   1.003894   0.000000   0.000000 )  
               a(2) = (   0.000000   0.996116   0.000000 )  
               a(3) = (   0.000000   0.000000   1.000005 )  

     reciprocal axes: (cart. coord. in units 2 pi/alat)
               b(1) = (  0.996121  0.000000  0.000000 )  
               b(2) = (  0.000000  1.003899  0.000000 )  
               b(3) = (  0.000000  0.000000  0.999995 )  


     PseudoPot. # 1 for Al read from file:
     /rds/homes/b/bxp912/pp/Al.pbe-nl-kjpaw_psl.1.0.0.UPF
     MD5 check sum: 339dbea23cf3ab9a065ad45c0f9085d7
     Pseudo is Projector augmented-wave + core cor, Zval =  3.0
     Generated using "atomic" code by A. Dal Corso v.5.1
     Shape of augmentation charge: PSQ
     Using radial grid of 1135 points,  4 beta functions with: 
                l(1) =   0
                l(2) =   0
                l(3) =   1
                l(4) =   1
     Q(r) pseudized with 0 coefficients 


     atomic species   valence    mass     pseudopotential
        Al             3.00    26.98200     Al( 1.00)

      8 Sym. Ops., with inversion, found



   Cartesian axes

     site n.     atom                  positions (alat units)
         1           Al  tau(   1) = (   0.0000000   0.0000000   0.0000000  )
         2           Al  tau(   2) = (   0.2509735   0.2490290   0.0000000  )
         3           Al  tau(   3) = (   0.2509735   0.0000000   0.2500013  )
         4           Al  tau(   4) = (   0.0000000   0.2490290   0.2500013  )
         5           Al  tau(   5) = (   0.0000000   0.0000000   0.5000025  )
         6           Al  tau(   6) = (   0.2509735   0.2490290   0.5000025  )
         7           Al  tau(   7) = (   0.2509735   0.0000000   0.7500038  )
         8           Al  tau(   8) = (   0.0000000   0.2490290   0.7500038  )
         9           Al  tau(   9) = (   0.0000000   0.4980581   0.0000000  )
        10           Al  tau(  10) = (   0.2509735   0.7470871   0.0000000  )
        11           Al  tau(  11) = (   0.2509735   0.4980581   0.2500013  )
        12           Al  tau(  12) = (   0.0000000   0.7470871   0.2500013  )
        13           Al  tau(  13) = (   0.0000000   0.4980581   0.5000025  )
        14           Al  tau(  14) = (   0.2509735   0.7470871   0.5000025  )
        15           Al  tau(  15) = (   0.2509735   0.4980581   0.7500038  )
        16           Al  tau(  16) = (   0.0000000   0.7470871   0.7500038  )
        17           Al  tau(  17) = (   0.5019470   0.0000000   0.0000000  )
        18           Al  tau(  18) = (   0.7529205   0.2490290   0.0000000  )
        19           Al  tau(  19) = (   0.7529205   0.0000000   0.2500013  )
        20           Al  tau(  20) = (   0.5019470   0.2490290   0.2500013  )
        21           Al  tau(  21) = (   0.5019470   0.0000000   0.5000025  )
        22           Al  tau(  22) = (   0.7529205   0.2490290   0.5000025  )
        23           Al  tau(  23) = (   0.7529205   0.0000000   0.7500038  )
        24           Al  tau(  24) = (   0.5019470   0.2490290   0.7500038  )
        25           Al  tau(  25) = (   0.5019470   0.4980581   0.0000000  )
        26           Al  tau(  26) = (   0.7529205   0.7470871   0.0000000  )
        27           Al  tau(  27) = (   0.7529205   0.4980581   0.2500013  )
        28           Al  tau(  28) = (   0.5019470   0.7470871   0.2500013  )
        29           Al  tau(  29) = (   0.5019470   0.4980581   0.5000025  )
        30           Al  tau(  30) = (   0.7529205   0.7470871   0.5000025  )
        31           Al  tau(  31) = (   0.7529205   0.4980581   0.7500038  )
        32           Al  tau(  32) = (   0.5019470   0.7470871   0.7500038  )

     number of k points=   216  Marzari-Vanderbilt smearing, width (Ry)=  0.0400

     Number of k-points >= 100: set verbosity='high' to print them.

     Dense  grid:   169913 G-vectors     FFT dimensions: (  72,  72,  72)

     Estimated max dynamical RAM per process >     232.03 MB

     Estimated total dynamical RAM >       4.53 GB

     Initial potential from superposition of free atoms

     starting charge   95.92671, renormalised to   96.00000
     Starting wfcs are  128 randomized atomic wfcs
     Checking if some PAW data can be deallocated... 

     total cpu time spent up to now is       29.8 secs

     Self-consistent Calculation

     iteration #  1     ecut=    50.00 Ry     beta= 0.10
     Davidson diagonalization with overlap
     ethr =  1.00E-02,  avg # of iterations =  3.0

     Threshold (ethr) on eigenvalues was too large:
     Diagonalizing with lowered threshold

     Davidson diagonalization with overlap
     ethr =  1.91E-04,  avg # of iterations =  4.7

     total cpu time spent up to now is      138.8 secs

     total energy              =   -1264.12482716 Ry
     Harris-Foulkes estimate   =   -1264.13433973 Ry
     estimated scf accuracy    <       0.17938514 Ry

     iteration #  2     ecut=    50.00 Ry     beta= 0.10
     Davidson diagonalization with overlap
     ethr =  1.87E-04,  avg # of iterations =  1.0

     total cpu time spent up to now is      171.7 secs

     total energy              =   -1264.08375682 Ry
     Harris-Foulkes estimate   =   -1264.12560152 Ry
     estimated scf accuracy    <       0.14409243 Ry

     iteration #  3     ecut=    50.00 Ry     beta= 0.10
     Davidson diagonalization with overlap
     ethr =  1.50E-04,  avg # of iterations =  1.0

     total cpu time spent up to now is      204.7 secs

     total energy              =   -1264.08651440 Ry
     Harris-Foulkes estimate   =   -1264.08652084 Ry
     estimated scf accuracy    <       0.00025063 Ry

     iteration #  4     ecut=    50.00 Ry     beta= 0.10
     Davidson diagonalization with overlap
     c_bands:  2 eigenvalues not converged
     c_bands:  2 eigenvalues not converged
     c_bands:  1 eigenvalues not converged
     c_bands:  2 eigenvalues not converged
     c_bands:  1 eigenvalues not converged
     c_bands:  1 eigenvalues not converged
     c_bands:  1 eigenvalues not converged
     c_bands:  1 eigenvalues not converged
     c_bands:  1 eigenvalues not converged
     c_bands:  1 eigenvalues not converged
     c_bands:  1 eigenvalues not converged
     c_bands:  1 eigenvalues not converged
     c_bands:  1 eigenvalues not converged
     c_bands:  1 eigenvalues not converged
     c_bands:  1 eigenvalues not converged
     c_bands:  1 eigenvalues not converged
     c_bands:  1 eigenvalues not converged
     c_bands:  1 eigenvalues not converged
     c_bands:  1 eigenvalues not converged
     c_bands:  1 eigenvalues not converged
     c_bands:  3 eigenvalues not converged
     ethr =  2.61E-07,  avg # of iterations =  7.6

     total cpu time spent up to now is      283.5 secs

     total energy              =   -1264.08742057 Ry
     Harris-Foulkes estimate   =   -1264.08737394 Ry
     estimated scf accuracy    <       0.00021875 Ry

     iteration #  5     ecut=    50.00 Ry     beta= 0.10
     Davidson diagonalization with overlap
     c_bands:  2 eigenvalues not converged
     c_bands:  1 eigenvalues not converged
     c_bands:  1 eigenvalues not converged
     c_bands:  1 eigenvalues not converged
     c_bands:  1 eigenvalues not converged
     ethr =  2.28E-07,  avg # of iterations =  1.8

     total cpu time spent up to now is      318.3 secs

     total energy              =   -1264.08729333 Ry
     Harris-Foulkes estimate   =   -1264.08742180 Ry
     estimated scf accuracy    <       0.00032001 Ry

     iteration #  6     ecut=    50.00 Ry     beta= 0.10
     Davidson diagonalization with overlap
     c_bands:  1 eigenvalues not converged
     ethr =  2.28E-07,  avg # of iterations =  1.2

     total cpu time spent up to now is      351.6 secs

     total energy              =   -1264.08729742 Ry
     Harris-Foulkes estimate   =   -1264.08730415 Ry
     estimated scf accuracy    <       0.00001788 Ry

     iteration #  7     ecut=    50.00 Ry     beta= 0.10
     Davidson diagonalization with overlap
     c_bands:  1 eigenvalues not converged
     ethr =  1.86E-08,  avg # of iterations =  4.1

     total cpu time spent up to now is      406.2 secs

     total energy              =   -1264.08730245 Ry
     Harris-Foulkes estimate   =   -1264.08730197 Ry
     estimated scf accuracy    <       0.00000441 Ry

     iteration #  8     ecut=    50.00 Ry     beta= 0.10
     Davidson diagonalization with overlap
     ethr =  4.59E-09,  avg # of iterations =  1.9

     total cpu time spent up to now is      441.7 secs

     total energy              =   -1264.08730195 Ry
     Harris-Foulkes estimate   =   -1264.08730267 Ry
     estimated scf accuracy    <       0.00000875 Ry

     iteration #  9     ecut=    50.00 Ry     beta= 0.10
     Davidson diagonalization with overlap
     ethr =  4.59E-09,  avg # of iterations =  1.0

     total cpu time spent up to now is      474.5 secs

     total energy              =   -1264.08730089 Ry
     Harris-Foulkes estimate   =   -1264.08730210 Ry
     estimated scf accuracy    <       0.00000540 Ry

     iteration # 10     ecut=    50.00 Ry     beta= 0.10
     Davidson diagonalization with overlap
     ethr =  4.59E-09,  avg # of iterations =  2.7

     total cpu time spent up to now is      515.9 secs

     End of self-consistent calculation

     Number of k-points >= 100: set verbosity='high' to print the bands.

     the Fermi energy is     7.9283 ev

!    total energy              =   -1264.08730126 Ry
     Harris-Foulkes estimate   =   -1264.08730137 Ry
     estimated scf accuracy    <       0.00000026 Ry

     total all-electron energy =    -15540.656323 Ry

     The total energy is the sum of the following terms:

     one-electron contribution =     101.33598513 Ry
     hartree contribution      =       0.19683884 Ry
     xc contribution           =     -82.93452601 Ry
     ewald contribution        =    -173.00039735 Ry
     one-center paw contrib.   =   -1109.68243870 Ry
     smearing contrib. (-TS)   =      -0.00276317 Ry

     convergence has been achieved in  10 iterations

     Forces acting on atoms (cartesian axes, Ry/au):

     atom    1 type  1   force =     0.00000000    0.00000000    0.00000000
     atom    2 type  1   force =    -0.00000681    0.00001788    0.00000000
     atom    3 type  1   force =    -0.00000478    0.00000000   -0.00000012
     atom    4 type  1   force =     0.00000000    0.00001870   -0.00000587
     atom    5 type  1   force =     0.00000000    0.00000000    0.00000000
     atom    6 type  1   force =    -0.00000595    0.00001440   -0.00000000
     atom    7 type  1   force =    -0.00000478    0.00000000    0.00000012
     atom    8 type  1   force =     0.00000000    0.00001870    0.00000587
     atom    9 type  1   force =     0.00000000    0.00000000    0.00000000
     atom   10 type  1   force =    -0.00000681   -0.00001788   -0.00000000
     atom   11 type  1   force =    -0.00000966    0.00000000   -0.00000662
     atom   12 type  1   force =     0.00000000   -0.00001870   -0.00000587
     atom   13 type  1   force =     0.00000000    0.00000000    0.00000000
     atom   14 type  1   force =    -0.00000595   -0.00001440    0.00000000
     atom   15 type  1   force =    -0.00000966    0.00000000    0.00000662
     atom   16 type  1   force =    -0.00000000   -0.00001870    0.00000587
     atom   17 type  1   force =     0.00000000    0.00000000    0.00000000
     atom   18 type  1   force =     0.00000681    0.00001788   -0.00000000
     atom   19 type  1   force =     0.00000478   -0.00000000   -0.00000012
     atom   20 type  1   force =     0.00000000    0.00001265   -0.00000141
     atom   21 type  1   force =     0.00000000    0.00000000    0.00000000
     atom   22 type  1   force =     0.00000595    0.00001440    0.00000000
     atom   23 type  1   force =     0.00000478    0.00000000    0.00000012
     atom   24 type  1   force =    -0.00000000    0.00001265    0.00000141
     atom   25 type  1   force =     0.00000000    0.00000000    0.00000000
     atom   26 type  1   force =     0.00000681   -0.00001788    0.00000000
     atom   27 type  1   force =     0.00000966    0.00000000   -0.00000662
     atom   28 type  1   force =     0.00000000   -0.00001265   -0.00000141
     atom   29 type  1   force =     0.00000000    0.00000000    0.00000000
     atom   30 type  1   force =     0.00000595   -0.00001440   -0.00000000
     atom   31 type  1   force =     0.00000966   -0.00000000    0.00000662
     atom   32 type  1   force =     0.00000000   -0.00001265    0.00000141

     Total force =     0.000073     Total SCF correction =     0.000371
     SCF correction compared to forces is large: reduce conv_thr to get better values


     Computing stress (Cartesian axis) and pressure

          total   stress  (Ry/bohr**3)                   (kbar)     P=    0.12
  -0.00001336   0.00000000   0.00000000         -1.97      0.00      0.00
   0.00000000   0.00001494   0.00000000          0.00      2.20      0.00
   0.00000000   0.00000000   0.00000084          0.00      0.00      0.12


     Writing output data file QXLYSVGveyWFfECh.save/
 
     init_run     :     28.54s CPU     29.30s WALL (       1 calls)
     electrons    :    475.64s CPU    486.08s WALL (       1 calls)
     forces       :      7.83s CPU      8.08s WALL (       1 calls)
     stress       :    101.83s CPU    102.05s WALL (       1 calls)

     Called by init_run:
     wfcinit      :     28.08s CPU     28.81s WALL (       1 calls)
     potinit      :      0.15s CPU      0.15s WALL (       1 calls)
     hinit0       :      0.20s CPU      0.24s WALL (       1 calls)

     Called by electrons:
     c_bands      :    415.50s CPU    424.09s WALL (      11 calls)
     sum_band     :     59.22s CPU     60.95s WALL (      11 calls)
     v_of_rho     :      0.14s CPU      0.15s WALL (      11 calls)
     newd         :      0.12s CPU      0.21s WALL (      11 calls)
     PAW_pot      :      0.71s CPU      0.72s WALL (      11 calls)
     mix_rho      :      0.04s CPU      0.04s WALL (      11 calls)

     Called by c_bands:
     init_us_2    :      9.14s CPU      9.30s WALL (    5400 calls)
     cegterg      :    389.95s CPU    398.24s WALL (    2376 calls)

     Called by sum_band:
     sum_band:bec :      0.24s CPU      0.25s WALL (    2376 calls)
     addusdens    :      0.10s CPU      0.17s WALL (      11 calls)

     Called by *egterg:
     h_psi        :    284.16s CPU    291.44s WALL (    9096 calls)
     s_psi        :     27.48s CPU     27.64s WALL (    9096 calls)
     g_psi        :      1.93s CPU      1.95s WALL (    6504 calls)
     cdiaghg      :     49.96s CPU     50.16s WALL (    8664 calls)

     Called by h_psi:
     h_psi:pot    :    282.85s CPU    290.11s WALL (    9096 calls)
     h_psi:calbec :     28.50s CPU     30.07s WALL (    9096 calls)
     vloc_psi     :    227.08s CPU    232.64s WALL (    9096 calls)
     add_vuspsi   :     27.20s CPU     27.35s WALL (    9096 calls)

     General routines
     calbec       :     44.24s CPU     46.62s WALL (   12552 calls)
     fft          :      0.17s CPU      0.21s WALL (     148 calls)
     ffts         :      0.01s CPU      0.01s WALL (      11 calls)
     fftw         :    247.40s CPU    253.29s WALL (  890960 calls)
 
     Parallel routines
     fft_scatt_xy :     27.48s CPU     28.14s WALL (  891119 calls)
     fft_scatt_yz :    112.16s CPU    115.12s WALL (  891119 calls)
 
     PWSCF        : 10m19.56s CPU    10m48.80s WALL

 
   This run was terminated on:  19:30:31  25Mar2020            

=------------------------------------------------------------------------------=
   JOB DONE.
=------------------------------------------------------------------------------=
