
     Program PWSCF v.6.3 starts on 25Mar2020 at 18:30:38 

     This program is part of the open-source Quantum ESPRESSO suite
     for quantum simulation of materials; please cite
         "P. Giannozzi et al., J. Phys.:Condens. Matter 21 395502 (2009);
         "P. Giannozzi et al., J. Phys.:Condens. Matter 29 465901 (2017);
          URL http://www.quantum-espresso.org", 
     in publications or presentations arising from this work. More details at
     http://www.quantum-espresso.org/quote

     Parallel version (MPI & OpenMP), running on      20 processor cores
     Number of MPI processes:                20
     Threads/MPI process:                     1

     MPI processes distributed on     1 nodes
     R & G space division:  proc/nbgrp/npool/nimage =      20
     Reading input from /rds/homes/b/bxp912/jobs/20200324_al_eos_e/wd/pwscf_ec/ec_7_2.in
Warning: card &IONS ignored
Warning: card ION_DYNAMICS = 'BFGS', ignored
Warning: card / ignored
Warning: card &CELL ignored
Warning: card CELL_DYNAMICS = 'BFGS', ignored
Warning: card CELL_FACTOR = 2.0, ignored
Warning: card PRESS = 0.0, ignored
Warning: card / ignored

     Current dimensions of program PWSCF are:
     Max number of different atomic species (ntypx) = 10
     Max number of k-points (npk) =  40000
     Max angular momentum in pseudopotentials (lmaxx) =  3
     Message from routine read_upf::
     Pseudo file /rds/homes/b/bxp912/pp/Al.pbe-nl-kjpaw_psl.1.0.0.UPF has been successfully fixed on the fly.
To avoid this message in the future you can permanently fix 
 your pseudo files following instructions given in: 
https://gitlab.com/QEF/q-e/blob/master/upftools/how_to_fix_upf.md
               file Al.pbe-nl-kjpaw_psl.1.0.0.UPF: wavefunction(s)  3S 3P renormalized

     Subspace diagonalization in iterative solution of the eigenvalue problem:
     a serial algorithm will be used

     Found symmetry operation: I + (  0.2500  0.2500  0.0000)
     This is a supercell, fractional translations are disabled
 
     Parallelization info
     --------------------
     sticks:   dense  smooth     PW     G-vecs:    dense   smooth      PW
     Min         185     185     51                 8499     8499    1229
     Max         186     186     52                 8504     8504    1231
     Sum        3709    3709   1029               170013   170013   24601
 


     bravais-lattice index     =            0
     lattice parameter (alat)  =      15.2652  a.u.
     unit-cell volume          =    3557.1654 (a.u.)^3
     number of atoms/cell      =           32
     number of atomic types    =            1
     number of electrons       =        96.00
     number of Kohn-Sham states=           58
     kinetic-energy cutoff     =      50.0000  Ry
     charge density cutoff     =     200.0000  Ry
     convergence threshold     =      1.0E-06
     mixing beta               =       0.1000
     number of iterations used =           10  plain     mixing
     Exchange-correlation      = SLA PW PBX PBC ( 1  4  3  4 0 0)

     celldm(1)=  15.265160  celldm(2)=   0.000000  celldm(3)=   0.000000
     celldm(4)=   0.000000  celldm(5)=   0.000000  celldm(6)=   0.000000

     crystal axes: (cart. coord. in units of alat)
               a(1) = (   1.001112   0.000000   0.000000 )  
               a(2) = (   0.000000   0.998889   0.000000 )  
               a(3) = (   0.000000   0.000000   1.000000 )  

     reciprocal axes: (cart. coord. in units 2 pi/alat)
               b(1) = (  0.998890  0.000000  0.000000 )  
               b(2) = (  0.000000  1.001112  0.000000 )  
               b(3) = (  0.000000  0.000000  1.000000 )  


     PseudoPot. # 1 for Al read from file:
     /rds/homes/b/bxp912/pp/Al.pbe-nl-kjpaw_psl.1.0.0.UPF
     MD5 check sum: 339dbea23cf3ab9a065ad45c0f9085d7
     Pseudo is Projector augmented-wave + core cor, Zval =  3.0
     Generated using "atomic" code by A. Dal Corso v.5.1
     Shape of augmentation charge: PSQ
     Using radial grid of 1135 points,  4 beta functions with: 
                l(1) =   0
                l(2) =   0
                l(3) =   1
                l(4) =   1
     Q(r) pseudized with 0 coefficients 


     atomic species   valence    mass     pseudopotential
        Al             3.00    26.98200     Al( 1.00)

      8 Sym. Ops., with inversion, found



   Cartesian axes

     site n.     atom                  positions (alat units)
         1           Al  tau(   1) = (   0.0000000   0.0000000   0.0000000  )
         2           Al  tau(   2) = (   0.2502779   0.2497223   0.0000000  )
         3           Al  tau(   3) = (   0.2502779   0.0000000   0.2500001  )
         4           Al  tau(   4) = (   0.0000000   0.2497223   0.2500001  )
         5           Al  tau(   5) = (   0.0000000   0.0000000   0.5000002  )
         6           Al  tau(   6) = (   0.2502779   0.2497223   0.5000002  )
         7           Al  tau(   7) = (   0.2502779   0.0000000   0.7500003  )
         8           Al  tau(   8) = (   0.0000000   0.2497223   0.7500003  )
         9           Al  tau(   9) = (   0.0000000   0.4994446   0.0000000  )
        10           Al  tau(  10) = (   0.2502779   0.7491670   0.0000000  )
        11           Al  tau(  11) = (   0.2502779   0.4994446   0.2500001  )
        12           Al  tau(  12) = (   0.0000000   0.7491670   0.2500001  )
        13           Al  tau(  13) = (   0.0000000   0.4994446   0.5000002  )
        14           Al  tau(  14) = (   0.2502779   0.7491670   0.5000002  )
        15           Al  tau(  15) = (   0.2502779   0.4994446   0.7500003  )
        16           Al  tau(  16) = (   0.0000000   0.7491670   0.7500003  )
        17           Al  tau(  17) = (   0.5005558   0.0000000   0.0000000  )
        18           Al  tau(  18) = (   0.7508336   0.2497223   0.0000000  )
        19           Al  tau(  19) = (   0.7508336   0.0000000   0.2500001  )
        20           Al  tau(  20) = (   0.5005558   0.2497223   0.2500001  )
        21           Al  tau(  21) = (   0.5005558   0.0000000   0.5000002  )
        22           Al  tau(  22) = (   0.7508336   0.2497223   0.5000002  )
        23           Al  tau(  23) = (   0.7508336   0.0000000   0.7500003  )
        24           Al  tau(  24) = (   0.5005558   0.2497223   0.7500003  )
        25           Al  tau(  25) = (   0.5005558   0.4994446   0.0000000  )
        26           Al  tau(  26) = (   0.7508336   0.7491670   0.0000000  )
        27           Al  tau(  27) = (   0.7508336   0.4994446   0.2500001  )
        28           Al  tau(  28) = (   0.5005558   0.7491670   0.2500001  )
        29           Al  tau(  29) = (   0.5005558   0.4994446   0.5000002  )
        30           Al  tau(  30) = (   0.7508336   0.7491670   0.5000002  )
        31           Al  tau(  31) = (   0.7508336   0.4994446   0.7500003  )
        32           Al  tau(  32) = (   0.5005558   0.7491670   0.7500003  )

     number of k points=   216  Marzari-Vanderbilt smearing, width (Ry)=  0.0400

     Number of k-points >= 100: set verbosity='high' to print them.

     Dense  grid:   170013 G-vectors     FFT dimensions: (  72,  72,  72)

     Estimated max dynamical RAM per process >     232.04 MB

     Estimated total dynamical RAM >       4.53 GB

     Initial potential from superposition of free atoms

     starting charge   95.92671, renormalised to   96.00000
     Starting wfcs are  128 randomized atomic wfcs
     Checking if some PAW data can be deallocated... 

     total cpu time spent up to now is       30.0 secs

     Self-consistent Calculation

     iteration #  1     ecut=    50.00 Ry     beta= 0.10
     Davidson diagonalization with overlap
     ethr =  1.00E-02,  avg # of iterations =  3.1

     Threshold (ethr) on eigenvalues was too large:
     Diagonalizing with lowered threshold

     Davidson diagonalization with overlap
     ethr =  1.91E-04,  avg # of iterations =  4.6

     total cpu time spent up to now is      142.4 secs

     total energy              =   -1264.12502172 Ry
     Harris-Foulkes estimate   =   -1264.13453274 Ry
     estimated scf accuracy    <       0.17939529 Ry

     iteration #  2     ecut=    50.00 Ry     beta= 0.10
     Davidson diagonalization with overlap
     ethr =  1.87E-04,  avg # of iterations =  1.0

     total cpu time spent up to now is      181.9 secs

     total energy              =   -1264.08393955 Ry
     Harris-Foulkes estimate   =   -1264.12579245 Ry
     estimated scf accuracy    <       0.14411035 Ry

     iteration #  3     ecut=    50.00 Ry     beta= 0.10
     Davidson diagonalization with overlap
     ethr =  1.50E-04,  avg # of iterations =  1.0

     total cpu time spent up to now is      218.6 secs

     total energy              =   -1264.08669512 Ry
     Harris-Foulkes estimate   =   -1264.08670264 Ry
     estimated scf accuracy    <       0.00025088 Ry

     iteration #  4     ecut=    50.00 Ry     beta= 0.10
     Davidson diagonalization with overlap
     c_bands:  2 eigenvalues not converged
     c_bands:  1 eigenvalues not converged
     c_bands:  1 eigenvalues not converged
     c_bands:  1 eigenvalues not converged
     c_bands:  1 eigenvalues not converged
     c_bands:  1 eigenvalues not converged
     c_bands:  1 eigenvalues not converged
     c_bands:  1 eigenvalues not converged
     c_bands:  1 eigenvalues not converged
     c_bands:  2 eigenvalues not converged
     c_bands:  1 eigenvalues not converged
     c_bands:  1 eigenvalues not converged
     c_bands:  2 eigenvalues not converged
     ethr =  2.61E-07,  avg # of iterations =  7.1

     total cpu time spent up to now is      300.0 secs

     total energy              =   -1264.08757871 Ry
     Harris-Foulkes estimate   =   -1264.08755313 Ry
     estimated scf accuracy    <       0.00021893 Ry

     iteration #  5     ecut=    50.00 Ry     beta= 0.10
     Davidson diagonalization with overlap
     ethr =  2.28E-07,  avg # of iterations =  1.4

     total cpu time spent up to now is      333.8 secs

     total energy              =   -1264.08746997 Ry
     Harris-Foulkes estimate   =   -1264.08757957 Ry
     estimated scf accuracy    <       0.00027371 Ry

     iteration #  6     ecut=    50.00 Ry     beta= 0.10
     Davidson diagonalization with overlap
     ethr =  2.28E-07,  avg # of iterations =  1.0

     total cpu time spent up to now is      366.8 secs

     total energy              =   -1264.08747748 Ry
     Harris-Foulkes estimate   =   -1264.08748135 Ry
     estimated scf accuracy    <       0.00001620 Ry

     iteration #  7     ecut=    50.00 Ry     beta= 0.10
     Davidson diagonalization with overlap
     c_bands:  1 eigenvalues not converged
     c_bands:  1 eigenvalues not converged
     c_bands:  1 eigenvalues not converged
     ethr =  1.69E-08,  avg # of iterations =  4.2

     total cpu time spent up to now is      421.1 secs

     total energy              =   -1264.08748182 Ry
     Harris-Foulkes estimate   =   -1264.08748157 Ry
     estimated scf accuracy    <       0.00000525 Ry

     iteration #  8     ecut=    50.00 Ry     beta= 0.10
     Davidson diagonalization with overlap
     ethr =  5.47E-09,  avg # of iterations =  1.1

     total cpu time spent up to now is      454.1 secs

     total energy              =   -1264.08748139 Ry
     Harris-Foulkes estimate   =   -1264.08748194 Ry
     estimated scf accuracy    <       0.00000743 Ry

     iteration #  9     ecut=    50.00 Ry     beta= 0.10
     Davidson diagonalization with overlap
     ethr =  5.47E-09,  avg # of iterations =  1.0

     total cpu time spent up to now is      487.0 secs

     total energy              =   -1264.08748032 Ry
     Harris-Foulkes estimate   =   -1264.08748151 Ry
     estimated scf accuracy    <       0.00000467 Ry

     iteration # 10     ecut=    50.00 Ry     beta= 0.10
     Davidson diagonalization with overlap
     ethr =  4.87E-09,  avg # of iterations =  2.6

     total cpu time spent up to now is      526.5 secs

     End of self-consistent calculation

     Number of k-points >= 100: set verbosity='high' to print the bands.

     the Fermi energy is     7.9284 ev

!    total energy              =   -1264.08748074 Ry
     Harris-Foulkes estimate   =   -1264.08748079 Ry
     estimated scf accuracy    <       0.00000015 Ry

     total all-electron energy =    -15540.656503 Ry

     The total energy is the sum of the following terms:

     one-electron contribution =     101.33558438 Ry
     hartree contribution      =       0.19688177 Ry
     xc contribution           =     -82.93443352 Ry
     ewald contribution        =    -173.00050827 Ry
     one-center paw contrib.   =   -1109.68225899 Ry
     smearing contrib. (-TS)   =      -0.00274610 Ry

     convergence has been achieved in  10 iterations

     Forces acting on atoms (cartesian axes, Ry/au):

     atom    1 type  1   force =     0.00000000    0.00000000    0.00000000
     atom    2 type  1   force =    -0.00000410    0.00001288   -0.00000000
     atom    3 type  1   force =    -0.00000373   -0.00000000    0.00000172
     atom    4 type  1   force =     0.00000000    0.00001307   -0.00000446
     atom    5 type  1   force =     0.00000000    0.00000000    0.00000000
     atom    6 type  1   force =    -0.00000449    0.00000711    0.00000000
     atom    7 type  1   force =    -0.00000373   -0.00000000   -0.00000172
     atom    8 type  1   force =     0.00000000    0.00001307    0.00000446
     atom    9 type  1   force =     0.00000000    0.00000000    0.00000000
     atom   10 type  1   force =    -0.00000410   -0.00001288    0.00000000
     atom   11 type  1   force =    -0.00000866    0.00000000   -0.00000624
     atom   12 type  1   force =    -0.00000000   -0.00001307   -0.00000446
     atom   13 type  1   force =     0.00000000    0.00000000    0.00000000
     atom   14 type  1   force =    -0.00000449   -0.00000711    0.00000000
     atom   15 type  1   force =    -0.00000866   -0.00000000    0.00000624
     atom   16 type  1   force =     0.00000000   -0.00001307    0.00000446
     atom   17 type  1   force =     0.00000000    0.00000000    0.00000000
     atom   18 type  1   force =     0.00000410    0.00001288    0.00000000
     atom   19 type  1   force =     0.00000373    0.00000000    0.00000172
     atom   20 type  1   force =     0.00000000    0.00000728   -0.00000104
     atom   21 type  1   force =     0.00000000    0.00000000    0.00000000
     atom   22 type  1   force =     0.00000449    0.00000711    0.00000000
     atom   23 type  1   force =     0.00000373    0.00000000   -0.00000172
     atom   24 type  1   force =     0.00000000    0.00000728    0.00000104
     atom   25 type  1   force =     0.00000000    0.00000000    0.00000000
     atom   26 type  1   force =     0.00000410   -0.00001288   -0.00000000
     atom   27 type  1   force =     0.00000866   -0.00000000   -0.00000624
     atom   28 type  1   force =     0.00000000   -0.00000728   -0.00000104
     atom   29 type  1   force =     0.00000000    0.00000000    0.00000000
     atom   30 type  1   force =     0.00000449   -0.00000711    0.00000000
     atom   31 type  1   force =     0.00000866    0.00000000    0.00000624
     atom   32 type  1   force =     0.00000000   -0.00000728    0.00000104

     Total force =     0.000050     Total SCF correction =     0.000178
     SCF correction compared to forces is large: reduce conv_thr to get better values


     Computing stress (Cartesian axis) and pressure

          total   stress  (Ry/bohr**3)                   (kbar)     P=    0.08
  -0.00000347   0.00000000   0.00000000         -0.51      0.00      0.00
   0.00000000   0.00000456   0.00000000          0.00      0.67      0.00
   0.00000000   0.00000000   0.00000057          0.00      0.00      0.08


     Writing output data file zvEcxQQixFjhyYvi.save/
 
     init_run     :     28.70s CPU     29.41s WALL (       1 calls)
     electrons    :    485.26s CPU    496.52s WALL (       1 calls)
     forces       :      5.90s CPU      6.13s WALL (       1 calls)
     stress       :     34.04s CPU     34.21s WALL (       1 calls)

     Called by init_run:
     wfcinit      :     28.27s CPU     28.96s WALL (       1 calls)
     potinit      :      0.13s CPU      0.14s WALL (       1 calls)
     hinit0       :      0.19s CPU      0.20s WALL (       1 calls)

     Called by electrons:
     c_bands      :    419.44s CPU    428.68s WALL (      11 calls)
     sum_band     :     64.88s CPU     66.80s WALL (      11 calls)
     v_of_rho     :      0.16s CPU      0.17s WALL (      11 calls)
     newd         :      0.11s CPU      0.16s WALL (      11 calls)
     PAW_pot      :      0.71s CPU      0.73s WALL (      11 calls)
     mix_rho      :      0.05s CPU      0.05s WALL (      11 calls)

     Called by c_bands:
     init_us_2    :      9.50s CPU      9.67s WALL (    5400 calls)
     cegterg      :    393.67s CPU    402.56s WALL (    2376 calls)

     Called by sum_band:
     sum_band:bec :      0.27s CPU      0.28s WALL (    2376 calls)
     addusdens    :      0.08s CPU      0.12s WALL (      11 calls)

     Called by *egterg:
     h_psi        :    290.04s CPU    297.74s WALL (    8647 calls)
     s_psi        :     27.40s CPU     27.56s WALL (    8647 calls)
     g_psi        :      1.92s CPU      1.93s WALL (    6055 calls)
     cdiaghg      :     47.31s CPU     47.52s WALL (    8215 calls)

     Called by h_psi:
     h_psi:pot    :    288.67s CPU    296.34s WALL (    8647 calls)
     h_psi:calbec :     28.71s CPU     30.27s WALL (    8647 calls)
     vloc_psi     :    232.81s CPU    238.80s WALL (    8647 calls)
     add_vuspsi   :     27.07s CPU     27.22s WALL (    8647 calls)

     General routines
     calbec       :     43.27s CPU     45.70s WALL (   12103 calls)
     fft          :      0.23s CPU      0.25s WALL (     148 calls)
     ffts         :      0.01s CPU      0.01s WALL (      11 calls)
     fftw         :    258.01s CPU    264.43s WALL (  887242 calls)
 
     Parallel routines
     fft_scatt_xy :     27.08s CPU     27.78s WALL (  887401 calls)
     fft_scatt_yz :    123.11s CPU    126.37s WALL (  887401 calls)
 
     PWSCF        :  9m19.66s CPU     9m48.69s WALL

 
   This run was terminated on:  18:40:27  25Mar2020            

=------------------------------------------------------------------------------=
   JOB DONE.
=------------------------------------------------------------------------------=
