
     Program PWSCF v.6.3 starts on 25Mar2020 at 19: 9:59 

     This program is part of the open-source Quantum ESPRESSO suite
     for quantum simulation of materials; please cite
         "P. Giannozzi et al., J. Phys.:Condens. Matter 21 395502 (2009);
         "P. Giannozzi et al., J. Phys.:Condens. Matter 29 465901 (2017);
          URL http://www.quantum-espresso.org", 
     in publications or presentations arising from this work. More details at
     http://www.quantum-espresso.org/quote

     Parallel version (MPI & OpenMP), running on      20 processor cores
     Number of MPI processes:                20
     Threads/MPI process:                     1

     MPI processes distributed on     1 nodes
     R & G space division:  proc/nbgrp/npool/nimage =      20
     Reading input from /rds/homes/b/bxp912/jobs/20200324_al_eos_e/wd/pwscf_ec/ec_7_6.in
Warning: card &IONS ignored
Warning: card ION_DYNAMICS = 'BFGS', ignored
Warning: card / ignored
Warning: card &CELL ignored
Warning: card CELL_DYNAMICS = 'BFGS', ignored
Warning: card CELL_FACTOR = 2.0, ignored
Warning: card PRESS = 0.0, ignored
Warning: card / ignored

     Current dimensions of program PWSCF are:
     Max number of different atomic species (ntypx) = 10
     Max number of k-points (npk) =  40000
     Max angular momentum in pseudopotentials (lmaxx) =  3
     Message from routine read_upf::
     Pseudo file /rds/homes/b/bxp912/pp/Al.pbe-nl-kjpaw_psl.1.0.0.UPF has been successfully fixed on the fly.
To avoid this message in the future you can permanently fix 
 your pseudo files following instructions given in: 
https://gitlab.com/QEF/q-e/blob/master/upftools/how_to_fix_upf.md
               file Al.pbe-nl-kjpaw_psl.1.0.0.UPF: wavefunction(s)  3S 3P renormalized

     Subspace diagonalization in iterative solution of the eigenvalue problem:
     a serial algorithm will be used

     Found symmetry operation: I + (  0.2500  0.2500  0.0000)
     This is a supercell, fractional translations are disabled
 
     Parallelization info
     --------------------
     sticks:   dense  smooth     PW     G-vecs:    dense   smooth      PW
     Min         185     185     50                 8495     8495    1228
     Max         186     186     51                 8500     8500    1233
     Sum        3709    3709   1019               169933   169933   24623
 


     bravais-lattice index     =            0
     lattice parameter (alat)  =      15.2652  a.u.
     unit-cell volume          =    3557.1654 (a.u.)^3
     number of atoms/cell      =           32
     number of atomic types    =            1
     number of electrons       =        96.00
     number of Kohn-Sham states=           58
     kinetic-energy cutoff     =      50.0000  Ry
     charge density cutoff     =     200.0000  Ry
     convergence threshold     =      1.0E-06
     mixing beta               =       0.1000
     number of iterations used =           10  plain     mixing
     Exchange-correlation      = SLA PW PBX PBC ( 1  4  3  4 0 0)

     celldm(1)=  15.265160  celldm(2)=   0.000000  celldm(3)=   0.000000
     celldm(4)=   0.000000  celldm(5)=   0.000000  celldm(6)=   0.000000

     crystal axes: (cart. coord. in units of alat)
               a(1) = (   1.003337   0.000000   0.000000 )  
               a(2) = (   0.000000   0.996670   0.000000 )  
               a(3) = (   0.000000   0.000000   1.000004 )  

     reciprocal axes: (cart. coord. in units 2 pi/alat)
               b(1) = (  0.996674  0.000000  0.000000 )  
               b(2) = (  0.000000  1.003341  0.000000 )  
               b(3) = (  0.000000  0.000000  0.999996 )  


     PseudoPot. # 1 for Al read from file:
     /rds/homes/b/bxp912/pp/Al.pbe-nl-kjpaw_psl.1.0.0.UPF
     MD5 check sum: 339dbea23cf3ab9a065ad45c0f9085d7
     Pseudo is Projector augmented-wave + core cor, Zval =  3.0
     Generated using "atomic" code by A. Dal Corso v.5.1
     Shape of augmentation charge: PSQ
     Using radial grid of 1135 points,  4 beta functions with: 
                l(1) =   0
                l(2) =   0
                l(3) =   1
                l(4) =   1
     Q(r) pseudized with 0 coefficients 


     atomic species   valence    mass     pseudopotential
        Al             3.00    26.98200     Al( 1.00)

      8 Sym. Ops., with inversion, found



   Cartesian axes

     site n.     atom                  positions (alat units)
         1           Al  tau(   1) = (   0.0000000   0.0000000   0.0000000  )
         2           Al  tau(   2) = (   0.2508343   0.2491676   0.0000000  )
         3           Al  tau(   3) = (   0.2508343   0.0000000   0.2500009  )
         4           Al  tau(   4) = (   0.0000000   0.2491676   0.2500009  )
         5           Al  tau(   5) = (   0.0000000   0.0000000   0.5000019  )
         6           Al  tau(   6) = (   0.2508343   0.2491676   0.5000019  )
         7           Al  tau(   7) = (   0.2508343   0.0000000   0.7500028  )
         8           Al  tau(   8) = (   0.0000000   0.2491676   0.7500028  )
         9           Al  tau(   9) = (   0.0000000   0.4983352   0.0000000  )
        10           Al  tau(  10) = (   0.2508343   0.7475028   0.0000000  )
        11           Al  tau(  11) = (   0.2508343   0.4983352   0.2500009  )
        12           Al  tau(  12) = (   0.0000000   0.7475028   0.2500009  )
        13           Al  tau(  13) = (   0.0000000   0.4983352   0.5000019  )
        14           Al  tau(  14) = (   0.2508343   0.7475028   0.5000019  )
        15           Al  tau(  15) = (   0.2508343   0.4983352   0.7500028  )
        16           Al  tau(  16) = (   0.0000000   0.7475028   0.7500028  )
        17           Al  tau(  17) = (   0.5016685   0.0000000   0.0000000  )
        18           Al  tau(  18) = (   0.7525028   0.2491676   0.0000000  )
        19           Al  tau(  19) = (   0.7525028   0.0000000   0.2500009  )
        20           Al  tau(  20) = (   0.5016685   0.2491676   0.2500009  )
        21           Al  tau(  21) = (   0.5016685   0.0000000   0.5000019  )
        22           Al  tau(  22) = (   0.7525028   0.2491676   0.5000019  )
        23           Al  tau(  23) = (   0.7525028   0.0000000   0.7500028  )
        24           Al  tau(  24) = (   0.5016685   0.2491676   0.7500028  )
        25           Al  tau(  25) = (   0.5016685   0.4983352   0.0000000  )
        26           Al  tau(  26) = (   0.7525028   0.7475028   0.0000000  )
        27           Al  tau(  27) = (   0.7525028   0.4983352   0.2500009  )
        28           Al  tau(  28) = (   0.5016685   0.7475028   0.2500009  )
        29           Al  tau(  29) = (   0.5016685   0.4983352   0.5000019  )
        30           Al  tau(  30) = (   0.7525028   0.7475028   0.5000019  )
        31           Al  tau(  31) = (   0.7525028   0.4983352   0.7500028  )
        32           Al  tau(  32) = (   0.5016685   0.7475028   0.7500028  )

     number of k points=   216  Marzari-Vanderbilt smearing, width (Ry)=  0.0400

     Number of k-points >= 100: set verbosity='high' to print them.

     Dense  grid:   169933 G-vectors     FFT dimensions: (  72,  72,  72)

     Estimated max dynamical RAM per process >     232.02 MB

     Estimated total dynamical RAM >       4.53 GB

     Initial potential from superposition of free atoms

     starting charge   95.92671, renormalised to   96.00000
     Starting wfcs are  128 randomized atomic wfcs
     Checking if some PAW data can be deallocated... 

     total cpu time spent up to now is       29.7 secs

     Self-consistent Calculation

     iteration #  1     ecut=    50.00 Ry     beta= 0.10
     Davidson diagonalization with overlap
     ethr =  1.00E-02,  avg # of iterations =  3.1

     Threshold (ethr) on eigenvalues was too large:
     Diagonalizing with lowered threshold

     Davidson diagonalization with overlap
     ethr =  1.91E-04,  avg # of iterations =  4.6

     total cpu time spent up to now is      137.3 secs

     total energy              =   -1264.12487534 Ry
     Harris-Foulkes estimate   =   -1264.13438712 Ry
     estimated scf accuracy    <       0.17938240 Ry

     iteration #  2     ecut=    50.00 Ry     beta= 0.10
     Davidson diagonalization with overlap
     ethr =  1.87E-04,  avg # of iterations =  1.0

     total cpu time spent up to now is      169.9 secs

     total energy              =   -1264.08380809 Ry
     Harris-Foulkes estimate   =   -1264.12565145 Ry
     estimated scf accuracy    <       0.14409169 Ry

     iteration #  3     ecut=    50.00 Ry     beta= 0.10
     Davidson diagonalization with overlap
     ethr =  1.50E-04,  avg # of iterations =  1.0

     total cpu time spent up to now is      202.5 secs

     total energy              =   -1264.08656617 Ry
     Harris-Foulkes estimate   =   -1264.08657273 Ry
     estimated scf accuracy    <       0.00025076 Ry

     iteration #  4     ecut=    50.00 Ry     beta= 0.10
     Davidson diagonalization with overlap
     c_bands:  1 eigenvalues not converged
     c_bands:  2 eigenvalues not converged
     c_bands:  1 eigenvalues not converged
     c_bands:  2 eigenvalues not converged
     c_bands:  1 eigenvalues not converged
     c_bands:  1 eigenvalues not converged
     c_bands:  1 eigenvalues not converged
     c_bands:  1 eigenvalues not converged
     c_bands:  1 eigenvalues not converged
     c_bands:  2 eigenvalues not converged
     c_bands:  1 eigenvalues not converged
     c_bands:  1 eigenvalues not converged
     c_bands:  1 eigenvalues not converged
     c_bands:  1 eigenvalues not converged
     c_bands:  1 eigenvalues not converged
     c_bands:  1 eigenvalues not converged
     c_bands:  1 eigenvalues not converged
     c_bands:  1 eigenvalues not converged
     c_bands:  1 eigenvalues not converged
     c_bands:  2 eigenvalues not converged
     ethr =  2.61E-07,  avg # of iterations =  7.5

     total cpu time spent up to now is      281.7 secs

     total energy              =   -1264.08746848 Ry
     Harris-Foulkes estimate   =   -1264.08742547 Ry
     estimated scf accuracy    <       0.00021874 Ry

     iteration #  5     ecut=    50.00 Ry     beta= 0.10
     Davidson diagonalization with overlap
     c_bands:  2 eigenvalues not converged
     c_bands:  1 eigenvalues not converged
     ethr =  2.28E-07,  avg # of iterations =  1.7

     total cpu time spent up to now is      315.9 secs

     total energy              =   -1264.08734334 Ry
     Harris-Foulkes estimate   =   -1264.08746963 Ry
     estimated scf accuracy    <       0.00031193 Ry

     iteration #  6     ecut=    50.00 Ry     beta= 0.10
     Davidson diagonalization with overlap
     c_bands:  3 eigenvalues not converged
     ethr =  2.28E-07,  avg # of iterations =  1.1

     total cpu time spent up to now is      349.0 secs

     total energy              =   -1264.08734911 Ry
     Harris-Foulkes estimate   =   -1264.08735475 Ry
     estimated scf accuracy    <       0.00001680 Ry

     iteration #  7     ecut=    50.00 Ry     beta= 0.10
     Davidson diagonalization with overlap
     ethr =  1.75E-08,  avg # of iterations =  4.2

     total cpu time spent up to now is      403.9 secs

     total energy              =   -1264.08735449 Ry
     Harris-Foulkes estimate   =   -1264.08735400 Ry
     estimated scf accuracy    <       0.00000467 Ry

     iteration #  8     ecut=    50.00 Ry     beta= 0.10
     Davidson diagonalization with overlap
     c_bands:  1 eigenvalues not converged
     ethr =  4.87E-09,  avg # of iterations =  1.8

     total cpu time spent up to now is      438.4 secs

     total energy              =   -1264.08735389 Ry
     Harris-Foulkes estimate   =   -1264.08735470 Ry
     estimated scf accuracy    <       0.00000898 Ry

     iteration #  9     ecut=    50.00 Ry     beta= 0.10
     Davidson diagonalization with overlap
     ethr =  4.87E-09,  avg # of iterations =  1.0

     total cpu time spent up to now is      473.3 secs

     total energy              =   -1264.08735291 Ry
     Harris-Foulkes estimate   =   -1264.08735405 Ry
     estimated scf accuracy    <       0.00000528 Ry

     iteration # 10     ecut=    50.00 Ry     beta= 0.10
     Davidson diagonalization with overlap
     ethr =  4.87E-09,  avg # of iterations =  2.6

     total cpu time spent up to now is      518.5 secs

     End of self-consistent calculation

     Number of k-points >= 100: set verbosity='high' to print the bands.

     the Fermi energy is     7.9283 ev

!    total energy              =   -1264.08735314 Ry
     Harris-Foulkes estimate   =   -1264.08735334 Ry
     estimated scf accuracy    <       0.00000036 Ry

     total all-electron energy =    -15540.656375 Ry

     The total energy is the sum of the following terms:

     one-electron contribution =     101.33590602 Ry
     hartree contribution      =       0.19685162 Ry
     xc contribution           =     -82.93451673 Ry
     ewald contribution        =    -173.00042940 Ry
     one-center paw contrib.   =   -1109.68240550 Ry
     smearing contrib. (-TS)   =      -0.00275915 Ry

     convergence has been achieved in  10 iterations

     Forces acting on atoms (cartesian axes, Ry/au):

     atom    1 type  1   force =     0.00000000    0.00000000    0.00000000
     atom    2 type  1   force =    -0.00000969    0.00002774    0.00000000
     atom    3 type  1   force =    -0.00001001   -0.00000000    0.00000071
     atom    4 type  1   force =    -0.00000000    0.00002405   -0.00000619
     atom    5 type  1   force =     0.00000000    0.00000000    0.00000000
     atom    6 type  1   force =    -0.00001028    0.00001976    0.00000000
     atom    7 type  1   force =    -0.00001001    0.00000000   -0.00000071
     atom    8 type  1   force =     0.00000000    0.00002405    0.00000619
     atom    9 type  1   force =     0.00000000    0.00000000    0.00000000
     atom   10 type  1   force =    -0.00000969   -0.00002774    0.00000000
     atom   11 type  1   force =    -0.00001162   -0.00000000   -0.00001004
     atom   12 type  1   force =     0.00000000   -0.00002405   -0.00000619
     atom   13 type  1   force =     0.00000000    0.00000000    0.00000000
     atom   14 type  1   force =    -0.00001028   -0.00001976    0.00000000
     atom   15 type  1   force =    -0.00001162    0.00000000    0.00001004
     atom   16 type  1   force =    -0.00000000   -0.00002405    0.00000619
     atom   17 type  1   force =     0.00000000    0.00000000    0.00000000
     atom   18 type  1   force =     0.00000969    0.00002774    0.00000000
     atom   19 type  1   force =     0.00001001    0.00000000    0.00000071
     atom   20 type  1   force =    -0.00000000    0.00002290   -0.00000322
     atom   21 type  1   force =     0.00000000    0.00000000    0.00000000
     atom   22 type  1   force =     0.00001028    0.00001976    0.00000000
     atom   23 type  1   force =     0.00001001    0.00000000   -0.00000071
     atom   24 type  1   force =     0.00000000    0.00002290    0.00000322
     atom   25 type  1   force =     0.00000000    0.00000000    0.00000000
     atom   26 type  1   force =     0.00000969   -0.00002774    0.00000000
     atom   27 type  1   force =     0.00001162    0.00000000   -0.00001004
     atom   28 type  1   force =     0.00000000   -0.00002290   -0.00000322
     atom   29 type  1   force =     0.00000000    0.00000000    0.00000000
     atom   30 type  1   force =     0.00001028   -0.00001976    0.00000000
     atom   31 type  1   force =     0.00001162    0.00000000    0.00001004
     atom   32 type  1   force =     0.00000000   -0.00002290    0.00000322

     Total force =     0.000107     Total SCF correction =     0.000545
     SCF correction compared to forces is large: reduce conv_thr to get better values


     Computing stress (Cartesian axis) and pressure

          total   stress  (Ry/bohr**3)                   (kbar)     P=    0.11
  -0.00001139   0.00000000   0.00000000         -1.68      0.00      0.00
   0.00000000   0.00001286   0.00000000          0.00      1.89      0.00
   0.00000000   0.00000000   0.00000078          0.00      0.00      0.11


     Writing output data file KAuXvzgITeBIBUxh.save/
 
     init_run     :     28.40s CPU     29.17s WALL (       1 calls)
     electrons    :    478.24s CPU    488.79s WALL (       1 calls)
     forces       :      7.10s CPU      7.54s WALL (       1 calls)
     stress       :     34.30s CPU     34.78s WALL (       1 calls)

     Called by init_run:
     wfcinit      :     27.98s CPU     28.71s WALL (       1 calls)
     potinit      :      0.14s CPU      0.14s WALL (       1 calls)
     hinit0       :      0.17s CPU      0.19s WALL (       1 calls)

     Called by electrons:
     c_bands      :    416.50s CPU    425.29s WALL (      11 calls)
     sum_band     :     60.79s CPU     62.49s WALL (      11 calls)
     v_of_rho     :      0.14s CPU      0.15s WALL (      11 calls)
     newd         :      0.10s CPU      0.14s WALL (      11 calls)
     PAW_pot      :      0.72s CPU      0.73s WALL (      11 calls)
     mix_rho      :      0.03s CPU      0.04s WALL (      11 calls)

     Called by c_bands:
     init_us_2    :      9.33s CPU      9.51s WALL (    5400 calls)
     cegterg      :    390.81s CPU    399.19s WALL (    2376 calls)

     Called by sum_band:
     sum_band:bec :      0.25s CPU      0.26s WALL (    2376 calls)
     addusdens    :      0.09s CPU      0.12s WALL (      11 calls)

     Called by *egterg:
     h_psi        :    284.78s CPU    292.27s WALL (    8997 calls)
     s_psi        :     27.17s CPU     27.29s WALL (    8997 calls)
     g_psi        :      1.92s CPU      1.94s WALL (    6405 calls)
     cdiaghg      :     49.45s CPU     49.61s WALL (    8565 calls)

     Called by h_psi:
     h_psi:pot    :    283.45s CPU    290.92s WALL (    8997 calls)
     h_psi:calbec :     28.90s CPU     30.39s WALL (    8997 calls)
     vloc_psi     :    227.58s CPU    233.46s WALL (    8997 calls)
     add_vuspsi   :     26.88s CPU     27.01s WALL (    8997 calls)

     General routines
     calbec       :     46.45s CPU     48.91s WALL (   12453 calls)
     fft          :      0.20s CPU      0.24s WALL (     148 calls)
     ffts         :      0.01s CPU      0.01s WALL (      11 calls)
     fftw         :    249.02s CPU    255.20s WALL (  888164 calls)
 
     Parallel routines
     fft_scatt_xy :     27.11s CPU     27.81s WALL (  888323 calls)
     fft_scatt_yz :    114.30s CPU    117.40s WALL (  888323 calls)
 
     PWSCF        :  9m13.54s CPU     9m43.01s WALL

 
   This run was terminated on:  19:19:42  25Mar2020            

=------------------------------------------------------------------------------=
   JOB DONE.
=------------------------------------------------------------------------------=
