
     Program PWSCF v.6.3 starts on 25Mar2020 at 19:30:32 

     This program is part of the open-source Quantum ESPRESSO suite
     for quantum simulation of materials; please cite
         "P. Giannozzi et al., J. Phys.:Condens. Matter 21 395502 (2009);
         "P. Giannozzi et al., J. Phys.:Condens. Matter 29 465901 (2017);
          URL http://www.quantum-espresso.org", 
     in publications or presentations arising from this work. More details at
     http://www.quantum-espresso.org/quote

     Parallel version (MPI & OpenMP), running on      20 processor cores
     Number of MPI processes:                20
     Threads/MPI process:                     1

     MPI processes distributed on     1 nodes
     R & G space division:  proc/nbgrp/npool/nimage =      20
     Reading input from /rds/homes/b/bxp912/jobs/20200324_al_eos_e/wd/pwscf_ec/ec_7_8.in
Warning: card &IONS ignored
Warning: card ION_DYNAMICS = 'BFGS', ignored
Warning: card / ignored
Warning: card &CELL ignored
Warning: card CELL_DYNAMICS = 'BFGS', ignored
Warning: card CELL_FACTOR = 2.0, ignored
Warning: card PRESS = 0.0, ignored
Warning: card / ignored

     Current dimensions of program PWSCF are:
     Max number of different atomic species (ntypx) = 10
     Max number of k-points (npk) =  40000
     Max angular momentum in pseudopotentials (lmaxx) =  3
     Message from routine read_upf::
     Pseudo file /rds/homes/b/bxp912/pp/Al.pbe-nl-kjpaw_psl.1.0.0.UPF has been successfully fixed on the fly.
To avoid this message in the future you can permanently fix 
 your pseudo files following instructions given in: 
https://gitlab.com/QEF/q-e/blob/master/upftools/how_to_fix_upf.md
               file Al.pbe-nl-kjpaw_psl.1.0.0.UPF: wavefunction(s)  3S 3P renormalized

     Subspace diagonalization in iterative solution of the eigenvalue problem:
     a serial algorithm will be used

     Found symmetry operation: I + (  0.2500  0.2500  0.0000)
     This is a supercell, fractional translations are disabled
 
     Parallelization info
     --------------------
     sticks:   dense  smooth     PW     G-vecs:    dense   smooth      PW
     Min         185     185     51                 8496     8496    1231
     Max         187     187     52                 8500     8500    1233
     Sum        3713    3713   1023               169949   169949   24631
 


     bravais-lattice index     =            0
     lattice parameter (alat)  =      15.2652  a.u.
     unit-cell volume          =    3557.1654 (a.u.)^3
     number of atoms/cell      =           32
     number of atomic types    =            1
     number of electrons       =        96.00
     number of Kohn-Sham states=           58
     kinetic-energy cutoff     =      50.0000  Ry
     charge density cutoff     =     200.0000  Ry
     convergence threshold     =      1.0E-06
     mixing beta               =       0.1000
     number of iterations used =           10  plain     mixing
     Exchange-correlation      = SLA PW PBX PBC ( 1  4  3  4 0 0)

     celldm(1)=  15.265160  celldm(2)=   0.000000  celldm(3)=   0.000000
     celldm(4)=   0.000000  celldm(5)=   0.000000  celldm(6)=   0.000000

     crystal axes: (cart. coord. in units of alat)
               a(1) = (   1.004451   0.000000   0.000000 )  
               a(2) = (   0.000000   0.995562   0.000000 )  
               a(3) = (   0.000000   0.000000   1.000007 )  

     reciprocal axes: (cart. coord. in units 2 pi/alat)
               b(1) = (  0.995569  0.000000  0.000000 )  
               b(2) = (  0.000000  1.004458  0.000000 )  
               b(3) = (  0.000000  0.000000  0.999993 )  


     PseudoPot. # 1 for Al read from file:
     /rds/homes/b/bxp912/pp/Al.pbe-nl-kjpaw_psl.1.0.0.UPF
     MD5 check sum: 339dbea23cf3ab9a065ad45c0f9085d7
     Pseudo is Projector augmented-wave + core cor, Zval =  3.0
     Generated using "atomic" code by A. Dal Corso v.5.1
     Shape of augmentation charge: PSQ
     Using radial grid of 1135 points,  4 beta functions with: 
                l(1) =   0
                l(2) =   0
                l(3) =   1
                l(4) =   1
     Q(r) pseudized with 0 coefficients 


     atomic species   valence    mass     pseudopotential
        Al             3.00    26.98200     Al( 1.00)

      8 Sym. Ops., with inversion, found



   Cartesian axes

     site n.     atom                  positions (alat units)
         1           Al  tau(   1) = (   0.0000000   0.0000000   0.0000000  )
         2           Al  tau(   2) = (   0.2511128   0.2488905   0.0000000  )
         3           Al  tau(   3) = (   0.2511128   0.0000000   0.2500016  )
         4           Al  tau(   4) = (   0.0000000   0.2488905   0.2500016  )
         5           Al  tau(   5) = (   0.0000000   0.0000000   0.5000033  )
         6           Al  tau(   6) = (   0.2511128   0.2488905   0.5000033  )
         7           Al  tau(   7) = (   0.2511128   0.0000000   0.7500049  )
         8           Al  tau(   8) = (   0.0000000   0.2488905   0.7500049  )
         9           Al  tau(   9) = (   0.0000000   0.4977811   0.0000000  )
        10           Al  tau(  10) = (   0.2511128   0.7466716   0.0000000  )
        11           Al  tau(  11) = (   0.2511128   0.4977811   0.2500016  )
        12           Al  tau(  12) = (   0.0000000   0.7466716   0.2500016  )
        13           Al  tau(  13) = (   0.0000000   0.4977811   0.5000033  )
        14           Al  tau(  14) = (   0.2511128   0.7466716   0.5000033  )
        15           Al  tau(  15) = (   0.2511128   0.4977811   0.7500049  )
        16           Al  tau(  16) = (   0.0000000   0.7466716   0.7500049  )
        17           Al  tau(  17) = (   0.5022255   0.0000000   0.0000000  )
        18           Al  tau(  18) = (   0.7533383   0.2488905   0.0000000  )
        19           Al  tau(  19) = (   0.7533383   0.0000000   0.2500016  )
        20           Al  tau(  20) = (   0.5022255   0.2488905   0.2500016  )
        21           Al  tau(  21) = (   0.5022255   0.0000000   0.5000033  )
        22           Al  tau(  22) = (   0.7533383   0.2488905   0.5000033  )
        23           Al  tau(  23) = (   0.7533383   0.0000000   0.7500049  )
        24           Al  tau(  24) = (   0.5022255   0.2488905   0.7500049  )
        25           Al  tau(  25) = (   0.5022255   0.4977811   0.0000000  )
        26           Al  tau(  26) = (   0.7533383   0.7466716   0.0000000  )
        27           Al  tau(  27) = (   0.7533383   0.4977811   0.2500016  )
        28           Al  tau(  28) = (   0.5022255   0.7466716   0.2500016  )
        29           Al  tau(  29) = (   0.5022255   0.4977811   0.5000033  )
        30           Al  tau(  30) = (   0.7533383   0.7466716   0.5000033  )
        31           Al  tau(  31) = (   0.7533383   0.4977811   0.7500049  )
        32           Al  tau(  32) = (   0.5022255   0.7466716   0.7500049  )

     number of k points=   216  Marzari-Vanderbilt smearing, width (Ry)=  0.0400

     Number of k-points >= 100: set verbosity='high' to print them.

     Dense  grid:   169949 G-vectors     FFT dimensions: (  72,  72,  72)

     Estimated max dynamical RAM per process >     232.02 MB

     Estimated total dynamical RAM >       4.53 GB

     Initial potential from superposition of free atoms

     starting charge   95.92671, renormalised to   96.00000
     Starting wfcs are  128 randomized atomic wfcs
     Checking if some PAW data can be deallocated... 

     total cpu time spent up to now is       29.8 secs

     Self-consistent Calculation

     iteration #  1     ecut=    50.00 Ry     beta= 0.10
     Davidson diagonalization with overlap
     ethr =  1.00E-02,  avg # of iterations =  3.0

     Threshold (ethr) on eigenvalues was too large:
     Diagonalizing with lowered threshold

     Davidson diagonalization with overlap
     ethr =  1.91E-04,  avg # of iterations =  4.7

     total cpu time spent up to now is      140.0 secs

     total energy              =   -1264.12477357 Ry
     Harris-Foulkes estimate   =   -1264.13428522 Ry
     estimated scf accuracy    <       0.17936249 Ry

     iteration #  2     ecut=    50.00 Ry     beta= 0.10
     Davidson diagonalization with overlap
     ethr =  1.87E-04,  avg # of iterations =  1.1

     total cpu time spent up to now is      179.1 secs

     total energy              =   -1264.08370192 Ry
     Harris-Foulkes estimate   =   -1264.12554429 Ry
     estimated scf accuracy    <       0.14408066 Ry

     iteration #  3     ecut=    50.00 Ry     beta= 0.10
     Davidson diagonalization with overlap
     ethr =  1.50E-04,  avg # of iterations =  1.0

     total cpu time spent up to now is      217.0 secs

     total energy              =   -1264.08645786 Ry
     Harris-Foulkes estimate   =   -1264.08646485 Ry
     estimated scf accuracy    <       0.00025078 Ry

     iteration #  4     ecut=    50.00 Ry     beta= 0.10
     Davidson diagonalization with overlap
     c_bands:  1 eigenvalues not converged
     c_bands:  1 eigenvalues not converged
     c_bands:  2 eigenvalues not converged
     c_bands:  1 eigenvalues not converged
     c_bands:  1 eigenvalues not converged
     c_bands:  1 eigenvalues not converged
     c_bands:  1 eigenvalues not converged
     c_bands:  3 eigenvalues not converged
     c_bands:  1 eigenvalues not converged
     c_bands:  2 eigenvalues not converged
     c_bands:  1 eigenvalues not converged
     c_bands:  1 eigenvalues not converged
     c_bands:  1 eigenvalues not converged
     c_bands:  1 eigenvalues not converged
     c_bands:  1 eigenvalues not converged
     c_bands:  1 eigenvalues not converged
     c_bands:  1 eigenvalues not converged
     c_bands:  1 eigenvalues not converged
     c_bands:  1 eigenvalues not converged
     c_bands:  1 eigenvalues not converged
     c_bands:  1 eigenvalues not converged
     c_bands:  1 eigenvalues not converged
     c_bands:  1 eigenvalues not converged
     c_bands:  2 eigenvalues not converged
     ethr =  2.61E-07,  avg # of iterations =  7.8

     total cpu time spent up to now is      300.4 secs

     total energy              =   -1264.08736234 Ry
     Harris-Foulkes estimate   =   -1264.08731385 Ry
     estimated scf accuracy    <       0.00021923 Ry

     iteration #  5     ecut=    50.00 Ry     beta= 0.10
     Davidson diagonalization with overlap
     c_bands:  2 eigenvalues not converged
     c_bands:  1 eigenvalues not converged
     ethr =  2.28E-07,  avg # of iterations =  1.7

     total cpu time spent up to now is      335.0 secs

     total energy              =   -1264.08723167 Ry
     Harris-Foulkes estimate   =   -1264.08736361 Ry
     estimated scf accuracy    <       0.00032475 Ry

     iteration #  6     ecut=    50.00 Ry     beta= 0.10
     Davidson diagonalization with overlap
     c_bands:  2 eigenvalues not converged
     ethr =  2.28E-07,  avg # of iterations =  1.1

     total cpu time spent up to now is      368.3 secs

     total energy              =   -1264.08723740 Ry
     Harris-Foulkes estimate   =   -1264.08724339 Ry
     estimated scf accuracy    <       0.00001723 Ry

     iteration #  7     ecut=    50.00 Ry     beta= 0.10
     Davidson diagonalization with overlap
     ethr =  1.79E-08,  avg # of iterations =  4.1

     total cpu time spent up to now is      423.6 secs

     total energy              =   -1264.08724274 Ry
     Harris-Foulkes estimate   =   -1264.08724213 Ry
     estimated scf accuracy    <       0.00000487 Ry

     iteration #  8     ecut=    50.00 Ry     beta= 0.10
     Davidson diagonalization with overlap
     ethr =  5.07E-09,  avg # of iterations =  2.0

     total cpu time spent up to now is      459.5 secs

     total energy              =   -1264.08724211 Ry
     Harris-Foulkes estimate   =   -1264.08724303 Ry
     estimated scf accuracy    <       0.00001044 Ry

     iteration #  9     ecut=    50.00 Ry     beta= 0.10
     Davidson diagonalization with overlap
     ethr =  5.07E-09,  avg # of iterations =  1.0

     total cpu time spent up to now is      492.5 secs

     total energy              =   -1264.08724094 Ry
     Harris-Foulkes estimate   =   -1264.08724227 Ry
     estimated scf accuracy    <       0.00000634 Ry

     iteration # 10     ecut=    50.00 Ry     beta= 0.10
     Davidson diagonalization with overlap
     ethr =  5.07E-09,  avg # of iterations =  2.8

     total cpu time spent up to now is      532.9 secs

     End of self-consistent calculation

     Number of k-points >= 100: set verbosity='high' to print the bands.

     the Fermi energy is     7.9283 ev

!    total energy              =   -1264.08724127 Ry
     Harris-Foulkes estimate   =   -1264.08724146 Ry
     estimated scf accuracy    <       0.00000035 Ry

     total all-electron energy =    -15540.656263 Ry

     The total energy is the sum of the following terms:

     one-electron contribution =     101.33608492 Ry
     hartree contribution      =       0.19682454 Ry
     xc contribution           =     -82.93454271 Ry
     ewald contribution        =    -173.00036036 Ry
     one-center paw contrib.   =   -1109.68247929 Ry
     smearing contrib. (-TS)   =      -0.00276837 Ry

     convergence has been achieved in  10 iterations

     Forces acting on atoms (cartesian axes, Ry/au):

     atom    1 type  1   force =     0.00000000    0.00000000    0.00000000
     atom    2 type  1   force =    -0.00000974    0.00002402    0.00000000
     atom    3 type  1   force =    -0.00000883    0.00000000   -0.00000008
     atom    4 type  1   force =     0.00000000    0.00002287   -0.00000647
     atom    5 type  1   force =     0.00000000    0.00000000    0.00000000
     atom    6 type  1   force =    -0.00000932    0.00001844    0.00000000
     atom    7 type  1   force =    -0.00000883   -0.00000000    0.00000008
     atom    8 type  1   force =     0.00000000    0.00002287    0.00000647
     atom    9 type  1   force =     0.00000000    0.00000000    0.00000000
     atom   10 type  1   force =    -0.00000974   -0.00002402    0.00000000
     atom   11 type  1   force =    -0.00001173   -0.00000000   -0.00000867
     atom   12 type  1   force =     0.00000000   -0.00002287   -0.00000647
     atom   13 type  1   force =     0.00000000    0.00000000    0.00000000
     atom   14 type  1   force =    -0.00000932   -0.00001844   -0.00000000
     atom   15 type  1   force =    -0.00001173    0.00000000    0.00000867
     atom   16 type  1   force =     0.00000000   -0.00002287    0.00000647
     atom   17 type  1   force =     0.00000000    0.00000000    0.00000000
     atom   18 type  1   force =     0.00000974    0.00002402    0.00000000
     atom   19 type  1   force =     0.00000883   -0.00000000   -0.00000008
     atom   20 type  1   force =    -0.00000000    0.00001918   -0.00000248
     atom   21 type  1   force =     0.00000000    0.00000000    0.00000000
     atom   22 type  1   force =     0.00000932    0.00001844   -0.00000000
     atom   23 type  1   force =     0.00000883    0.00000000    0.00000008
     atom   24 type  1   force =     0.00000000    0.00001918    0.00000248
     atom   25 type  1   force =     0.00000000    0.00000000    0.00000000
     atom   26 type  1   force =     0.00000974   -0.00002402    0.00000000
     atom   27 type  1   force =     0.00001173    0.00000000   -0.00000867
     atom   28 type  1   force =     0.00000000   -0.00001918   -0.00000248
     atom   29 type  1   force =     0.00000000    0.00000000    0.00000000
     atom   30 type  1   force =     0.00000932   -0.00001844    0.00000000
     atom   31 type  1   force =     0.00001173   -0.00000000    0.00000867
     atom   32 type  1   force =    -0.00000000   -0.00001918    0.00000248

     Total force =     0.000097     Total SCF correction =     0.000569
     SCF correction compared to forces is large: reduce conv_thr to get better values


     Computing stress (Cartesian axis) and pressure

          total   stress  (Ry/bohr**3)                   (kbar)     P=    0.13
  -0.00001532   0.00000000   0.00000000         -2.25      0.00      0.00
   0.00000000   0.00001703   0.00000000          0.00      2.51      0.00
   0.00000000   0.00000000   0.00000092          0.00      0.00      0.13


     Writing output data file fSUCjTMBsgMAlNSH.save/
 
     init_run     :     28.56s CPU     29.31s WALL (       1 calls)
     electrons    :    491.47s CPU    503.07s WALL (       1 calls)
     forces       :      7.89s CPU      8.16s WALL (       1 calls)
     stress       :     93.40s CPU     94.03s WALL (       1 calls)

     Called by init_run:
     wfcinit      :     28.18s CPU     28.88s WALL (       1 calls)
     potinit      :      0.14s CPU      0.14s WALL (       1 calls)
     hinit0       :      0.14s CPU      0.18s WALL (       1 calls)

     Called by electrons:
     c_bands      :    430.46s CPU    440.03s WALL (      11 calls)
     sum_band     :     60.08s CPU     61.95s WALL (      11 calls)
     v_of_rho     :      0.13s CPU      0.15s WALL (      11 calls)
     newd         :      0.12s CPU      0.22s WALL (      11 calls)
     PAW_pot      :      0.72s CPU      0.75s WALL (      11 calls)
     mix_rho      :      0.03s CPU      0.04s WALL (      11 calls)

     Called by c_bands:
     init_us_2    :     10.23s CPU     10.42s WALL (    5400 calls)
     cegterg      :    404.63s CPU    413.78s WALL (    2376 calls)

     Called by sum_band:
     sum_band:bec :      0.25s CPU      0.26s WALL (    2376 calls)
     addusdens    :      0.10s CPU      0.20s WALL (      11 calls)

     Called by *egterg:
     h_psi        :    294.84s CPU    302.71s WALL (    9164 calls)
     s_psi        :     27.67s CPU     27.85s WALL (    9164 calls)
     g_psi        :      1.93s CPU      1.95s WALL (    6572 calls)
     cdiaghg      :     50.53s CPU     50.78s WALL (    8732 calls)

     Called by h_psi:
     h_psi:pot    :    293.34s CPU    301.19s WALL (    9164 calls)
     h_psi:calbec :     29.35s CPU     31.04s WALL (    9164 calls)
     vloc_psi     :    236.47s CPU    242.50s WALL (    9164 calls)
     add_vuspsi   :     27.44s CPU     27.60s WALL (    9164 calls)

     General routines
     calbec       :     52.55s CPU     55.17s WALL (   12620 calls)
     fft          :      0.14s CPU      0.18s WALL (     148 calls)
     ffts         :      0.01s CPU      0.01s WALL (      11 calls)
     fftw         :    257.01s CPU    263.38s WALL (  891880 calls)
 
     Parallel routines
     fft_scatt_xy :     26.82s CPU     27.53s WALL (  892039 calls)
     fft_scatt_yz :    122.23s CPU    125.54s WALL (  892039 calls)
 
     PWSCF        : 10m26.85s CPU    10m57.54s WALL

 
   This run was terminated on:  19:41:29  25Mar2020            

=------------------------------------------------------------------------------=
   JOB DONE.
=------------------------------------------------------------------------------=
