
     Program PWSCF v.6.3 starts on 26Mar2020 at  2:10:11 

     This program is part of the open-source Quantum ESPRESSO suite
     for quantum simulation of materials; please cite
         "P. Giannozzi et al., J. Phys.:Condens. Matter 21 395502 (2009);
         "P. Giannozzi et al., J. Phys.:Condens. Matter 29 465901 (2017);
          URL http://www.quantum-espresso.org", 
     in publications or presentations arising from this work. More details at
     http://www.quantum-espresso.org/quote

     Parallel version (MPI & OpenMP), running on      20 processor cores
     Number of MPI processes:                20
     Threads/MPI process:                     1

     MPI processes distributed on     1 nodes
     R & G space division:  proc/nbgrp/npool/nimage =      20
     Reading input from /rds/homes/b/bxp912/jobs/20200324_al_eos_e/wd/pwscf_ec/ec_8_7.in
Warning: card &IONS ignored
Warning: card ION_DYNAMICS = 'BFGS', ignored
Warning: card / ignored
Warning: card &CELL ignored
Warning: card CELL_DYNAMICS = 'BFGS', ignored
Warning: card CELL_FACTOR = 2.0, ignored
Warning: card PRESS = 0.0, ignored
Warning: card / ignored

     Current dimensions of program PWSCF are:
     Max number of different atomic species (ntypx) = 10
     Max number of k-points (npk) =  40000
     Max angular momentum in pseudopotentials (lmaxx) =  3
     Message from routine read_upf::
     Pseudo file /rds/homes/b/bxp912/pp/Al.pbe-nl-kjpaw_psl.1.0.0.UPF has been successfully fixed on the fly.
To avoid this message in the future you can permanently fix 
 your pseudo files following instructions given in: 
https://gitlab.com/QEF/q-e/blob/master/upftools/how_to_fix_upf.md
               file Al.pbe-nl-kjpaw_psl.1.0.0.UPF: wavefunction(s)  3S 3P renormalized

     Subspace diagonalization in iterative solution of the eigenvalue problem:
     a serial algorithm will be used

     Found symmetry operation: I + (  0.2500  0.2500  0.0000)
     This is a supercell, fractional translations are disabled
 
     Parallelization info
     --------------------
     sticks:   dense  smooth     PW     G-vecs:    dense   smooth      PW
     Min         185     185     51                 8493     8493    1231
     Max         186     186     53                 8498     8498    1232
     Sum        3717    3717   1037               169913   169913   24631
 


     bravais-lattice index     =            0
     lattice parameter (alat)  =      15.2652  a.u.
     unit-cell volume          =    3557.1654 (a.u.)^3
     number of atoms/cell      =           32
     number of atomic types    =            1
     number of electrons       =        96.00
     number of Kohn-Sham states=           58
     kinetic-energy cutoff     =      50.0000  Ry
     charge density cutoff     =     200.0000  Ry
     convergence threshold     =      1.0E-06
     mixing beta               =       0.1000
     number of iterations used =           10  plain     mixing
     Exchange-correlation      = SLA PW PBX PBC ( 1  4  3  4 0 0)

     celldm(1)=  15.265160  celldm(2)=   0.000000  celldm(3)=   0.000000
     celldm(4)=   0.000000  celldm(5)=   0.000000  celldm(6)=   0.000000

     crystal axes: (cart. coord. in units of alat)
               a(1) = (   1.003894   0.000000   0.000000 )  
               a(2) = (   0.000000   1.000005   0.000000 )  
               a(3) = (   0.000000   0.000000   0.996116 )  

     reciprocal axes: (cart. coord. in units 2 pi/alat)
               b(1) = (  0.996121  0.000000  0.000000 )  
               b(2) = (  0.000000  0.999995  0.000000 )  
               b(3) = (  0.000000  0.000000  1.003899 )  


     PseudoPot. # 1 for Al read from file:
     /rds/homes/b/bxp912/pp/Al.pbe-nl-kjpaw_psl.1.0.0.UPF
     MD5 check sum: 339dbea23cf3ab9a065ad45c0f9085d7
     Pseudo is Projector augmented-wave + core cor, Zval =  3.0
     Generated using "atomic" code by A. Dal Corso v.5.1
     Shape of augmentation charge: PSQ
     Using radial grid of 1135 points,  4 beta functions with: 
                l(1) =   0
                l(2) =   0
                l(3) =   1
                l(4) =   1
     Q(r) pseudized with 0 coefficients 


     atomic species   valence    mass     pseudopotential
        Al             3.00    26.98200     Al( 1.00)

      8 Sym. Ops., with inversion, found



   Cartesian axes

     site n.     atom                  positions (alat units)
         1           Al  tau(   1) = (   0.0000000   0.0000000   0.0000000  )
         2           Al  tau(   2) = (   0.2509735   0.2500013   0.0000000  )
         3           Al  tau(   3) = (   0.2509735   0.0000000   0.2490290  )
         4           Al  tau(   4) = (   0.0000000   0.2500013   0.2490290  )
         5           Al  tau(   5) = (   0.0000000   0.0000000   0.4980581  )
         6           Al  tau(   6) = (   0.2509735   0.2500013   0.4980581  )
         7           Al  tau(   7) = (   0.2509735   0.0000000   0.7470871  )
         8           Al  tau(   8) = (   0.0000000   0.2500013   0.7470871  )
         9           Al  tau(   9) = (   0.0000000   0.5000025   0.0000000  )
        10           Al  tau(  10) = (   0.2509735   0.7500038   0.0000000  )
        11           Al  tau(  11) = (   0.2509735   0.5000025   0.2490290  )
        12           Al  tau(  12) = (   0.0000000   0.7500038   0.2490290  )
        13           Al  tau(  13) = (   0.0000000   0.5000025   0.4980581  )
        14           Al  tau(  14) = (   0.2509735   0.7500038   0.4980581  )
        15           Al  tau(  15) = (   0.2509735   0.5000025   0.7470871  )
        16           Al  tau(  16) = (   0.0000000   0.7500038   0.7470871  )
        17           Al  tau(  17) = (   0.5019470   0.0000000   0.0000000  )
        18           Al  tau(  18) = (   0.7529205   0.2500013   0.0000000  )
        19           Al  tau(  19) = (   0.7529205   0.0000000   0.2490290  )
        20           Al  tau(  20) = (   0.5019470   0.2500013   0.2490290  )
        21           Al  tau(  21) = (   0.5019470   0.0000000   0.4980581  )
        22           Al  tau(  22) = (   0.7529205   0.2500013   0.4980581  )
        23           Al  tau(  23) = (   0.7529205   0.0000000   0.7470871  )
        24           Al  tau(  24) = (   0.5019470   0.2500013   0.7470871  )
        25           Al  tau(  25) = (   0.5019470   0.5000025   0.0000000  )
        26           Al  tau(  26) = (   0.7529205   0.7500038   0.0000000  )
        27           Al  tau(  27) = (   0.7529205   0.5000025   0.2490290  )
        28           Al  tau(  28) = (   0.5019470   0.7500038   0.2490290  )
        29           Al  tau(  29) = (   0.5019470   0.5000025   0.4980581  )
        30           Al  tau(  30) = (   0.7529205   0.7500038   0.4980581  )
        31           Al  tau(  31) = (   0.7529205   0.5000025   0.7470871  )
        32           Al  tau(  32) = (   0.5019470   0.7500038   0.7470871  )

     number of k points=   216  Marzari-Vanderbilt smearing, width (Ry)=  0.0400

     Number of k-points >= 100: set verbosity='high' to print them.

     Dense  grid:   169913 G-vectors     FFT dimensions: (  72,  72,  72)

     Estimated max dynamical RAM per process >     232.02 MB

     Estimated total dynamical RAM >       4.53 GB

     Initial potential from superposition of free atoms

     starting charge   95.92671, renormalised to   96.00000
     Starting wfcs are  128 randomized atomic wfcs
     Checking if some PAW data can be deallocated... 

     total cpu time spent up to now is       39.7 secs

     Self-consistent Calculation

     iteration #  1     ecut=    50.00 Ry     beta= 0.10
     Davidson diagonalization with overlap
     ethr =  1.00E-02,  avg # of iterations =  3.0

     Threshold (ethr) on eigenvalues was too large:
     Diagonalizing with lowered threshold

     Davidson diagonalization with overlap
     ethr =  1.91E-04,  avg # of iterations =  4.7

     total cpu time spent up to now is      160.1 secs

     total energy              =   -1264.12481892 Ry
     Harris-Foulkes estimate   =   -1264.13433101 Ry
     estimated scf accuracy    <       0.17937800 Ry

     iteration #  2     ecut=    50.00 Ry     beta= 0.10
     Davidson diagonalization with overlap
     ethr =  1.87E-04,  avg # of iterations =  1.1

     total cpu time spent up to now is      196.3 secs

     total energy              =   -1264.08375138 Ry
     Harris-Foulkes estimate   =   -1264.12560021 Ry
     estimated scf accuracy    <       0.14409563 Ry

     iteration #  3     ecut=    50.00 Ry     beta= 0.10
     Davidson diagonalization with overlap
     ethr =  1.50E-04,  avg # of iterations =  1.0

     total cpu time spent up to now is      232.6 secs

     total energy              =   -1264.08651261 Ry
     Harris-Foulkes estimate   =   -1264.08652012 Ry
     estimated scf accuracy    <       0.00025142 Ry

     iteration #  4     ecut=    50.00 Ry     beta= 0.10
     Davidson diagonalization with overlap
     c_bands:  1 eigenvalues not converged
     c_bands:  2 eigenvalues not converged
     c_bands:  3 eigenvalues not converged
     c_bands:  1 eigenvalues not converged
     c_bands:  1 eigenvalues not converged
     c_bands:  1 eigenvalues not converged
     c_bands:  1 eigenvalues not converged
     c_bands:  1 eigenvalues not converged
     c_bands:  1 eigenvalues not converged
     c_bands:  1 eigenvalues not converged
     c_bands:  1 eigenvalues not converged
     c_bands:  1 eigenvalues not converged
     c_bands:  2 eigenvalues not converged
     c_bands:  1 eigenvalues not converged
     c_bands:  1 eigenvalues not converged
     c_bands:  1 eigenvalues not converged
     ethr =  2.62E-07,  avg # of iterations =  7.4

     total cpu time spent up to now is      318.1 secs

     total energy              =   -1264.08741212 Ry
     Harris-Foulkes estimate   =   -1264.08737360 Ry
     estimated scf accuracy    <       0.00021838 Ry

     iteration #  5     ecut=    50.00 Ry     beta= 0.10
     Davidson diagonalization with overlap
     c_bands:  2 eigenvalues not converged
     ethr =  2.27E-07,  avg # of iterations =  1.6

     total cpu time spent up to now is      355.7 secs

     total energy              =   -1264.08729022 Ry
     Harris-Foulkes estimate   =   -1264.08741319 Ry
     estimated scf accuracy    <       0.00030176 Ry

     iteration #  6     ecut=    50.00 Ry     beta= 0.10
     Davidson diagonalization with overlap
     ethr =  2.27E-07,  avg # of iterations =  1.0

     total cpu time spent up to now is      391.8 secs

     total energy              =   -1264.08729783 Ry
     Harris-Foulkes estimate   =   -1264.08730234 Ry
     estimated scf accuracy    <       0.00001570 Ry

     iteration #  7     ecut=    50.00 Ry     beta= 0.10
     Davidson diagonalization with overlap
     c_bands:  1 eigenvalues not converged
     c_bands:  1 eigenvalues not converged
     ethr =  1.64E-08,  avg # of iterations =  4.3

     total cpu time spent up to now is      453.2 secs

     total energy              =   -1264.08730261 Ry
     Harris-Foulkes estimate   =   -1264.08730209 Ry
     estimated scf accuracy    <       0.00000511 Ry

     iteration #  8     ecut=    50.00 Ry     beta= 0.10
     Davidson diagonalization with overlap
     ethr =  5.32E-09,  avg # of iterations =  1.4

     total cpu time spent up to now is      490.7 secs

     total energy              =   -1264.08730190 Ry
     Harris-Foulkes estimate   =   -1264.08730281 Ry
     estimated scf accuracy    <       0.00000960 Ry

     iteration #  9     ecut=    50.00 Ry     beta= 0.10
     Davidson diagonalization with overlap
     ethr =  5.32E-09,  avg # of iterations =  1.0

     total cpu time spent up to now is      526.5 secs

     total energy              =   -1264.08730098 Ry
     Harris-Foulkes estimate   =   -1264.08730207 Ry
     estimated scf accuracy    <       0.00000543 Ry

     iteration # 10     ecut=    50.00 Ry     beta= 0.10
     Davidson diagonalization with overlap
     ethr =  5.32E-09,  avg # of iterations =  2.5

     total cpu time spent up to now is      567.4 secs

     End of self-consistent calculation

     Number of k-points >= 100: set verbosity='high' to print the bands.

     the Fermi energy is     7.9283 ev

!    total energy              =   -1264.08730100 Ry
     Harris-Foulkes estimate   =   -1264.08730136 Ry
     estimated scf accuracy    <       0.00000057 Ry

     total all-electron energy =    -15540.656323 Ry

     The total energy is the sum of the following terms:

     one-electron contribution =     101.33604086 Ry
     hartree contribution      =       0.19683994 Ry
     xc contribution           =     -82.93455076 Ry
     ewald contribution        =    -173.00039735 Ry
     one-center paw contrib.   =   -1109.68247047 Ry
     smearing contrib. (-TS)   =      -0.00276322 Ry

     convergence has been achieved in  10 iterations

     Forces acting on atoms (cartesian axes, Ry/au):

     atom    1 type  1   force =     0.00000000    0.00000000    0.00000000
     atom    2 type  1   force =    -0.00001358    0.00004094    0.00000000
     atom    3 type  1   force =    -0.00001808   -0.00000000    0.00000198
     atom    4 type  1   force =     0.00000000    0.00003053   -0.00000673
     atom    5 type  1   force =     0.00000000    0.00000000    0.00000000
     atom    6 type  1   force =    -0.00001732    0.00002670   -0.00000000
     atom    7 type  1   force =    -0.00001808    0.00000000   -0.00000198
     atom    8 type  1   force =     0.00000000    0.00003053    0.00000673
     atom    9 type  1   force =     0.00000000    0.00000000    0.00000000
     atom   10 type  1   force =    -0.00001358   -0.00004094    0.00000000
     atom   11 type  1   force =    -0.00001271   -0.00000000   -0.00001507
     atom   12 type  1   force =     0.00000000   -0.00003053   -0.00000673
     atom   13 type  1   force =     0.00000000    0.00000000    0.00000000
     atom   14 type  1   force =    -0.00001732   -0.00002670    0.00000000
     atom   15 type  1   force =    -0.00001271    0.00000000    0.00001507
     atom   16 type  1   force =     0.00000000   -0.00003053    0.00000673
     atom   17 type  1   force =     0.00000000    0.00000000    0.00000000
     atom   18 type  1   force =     0.00001358    0.00004094    0.00000000
     atom   19 type  1   force =     0.00001808    0.00000000    0.00000198
     atom   20 type  1   force =    -0.00000000    0.00003749   -0.00000696
     atom   21 type  1   force =     0.00000000    0.00000000    0.00000000
     atom   22 type  1   force =     0.00001732    0.00002670    0.00000000
     atom   23 type  1   force =     0.00001808   -0.00000000   -0.00000198
     atom   24 type  1   force =     0.00000000    0.00003749    0.00000696
     atom   25 type  1   force =     0.00000000    0.00000000    0.00000000
     atom   26 type  1   force =     0.00001358   -0.00004094    0.00000000
     atom   27 type  1   force =     0.00001271    0.00000000   -0.00001507
     atom   28 type  1   force =     0.00000000   -0.00003749   -0.00000696
     atom   29 type  1   force =     0.00000000    0.00000000    0.00000000
     atom   30 type  1   force =     0.00001732   -0.00002670   -0.00000000
     atom   31 type  1   force =     0.00001271   -0.00000000    0.00001507
     atom   32 type  1   force =     0.00000000   -0.00003749    0.00000696

     Total force =     0.000155     Total SCF correction =     0.000782
     SCF correction compared to forces is large: reduce conv_thr to get better values


     Computing stress (Cartesian axis) and pressure

          total   stress  (Ry/bohr**3)                   (kbar)     P=    0.12
  -0.00001334   0.00000000   0.00000000         -1.96      0.00      0.00
   0.00000000   0.00000087   0.00000000          0.00      0.13      0.00
   0.00000000   0.00000000   0.00001497          0.00      0.00      2.20


     Writing output data file CQSrDjXgwHfAhYEJ.save/
 
     init_run     :     38.04s CPU     39.18s WALL (       1 calls)
     electrons    :    518.01s CPU    527.72s WALL (       1 calls)
     forces       :      6.40s CPU      6.64s WALL (       1 calls)
     stress       :     41.88s CPU     41.96s WALL (       1 calls)

     Called by init_run:
     wfcinit      :     37.69s CPU     38.79s WALL (       1 calls)
     potinit      :      0.12s CPU      0.12s WALL (       1 calls)
     hinit0       :      0.11s CPU      0.15s WALL (       1 calls)

     Called by electrons:
     c_bands      :    451.69s CPU    459.64s WALL (      11 calls)
     sum_band     :     65.41s CPU     67.10s WALL (      11 calls)
     v_of_rho     :      0.14s CPU      0.15s WALL (      11 calls)
     newd         :      0.10s CPU      0.15s WALL (      11 calls)
     PAW_pot      :      0.69s CPU      0.71s WALL (      11 calls)
     mix_rho      :      0.04s CPU      0.04s WALL (      11 calls)

     Called by c_bands:
     init_us_2    :     10.99s CPU     11.17s WALL (    5400 calls)
     cegterg      :    424.23s CPU    431.85s WALL (    2376 calls)

     Called by sum_band:
     sum_band:bec :      0.28s CPU      0.29s WALL (    2376 calls)
     addusdens    :      0.09s CPU      0.12s WALL (      11 calls)

     Called by *egterg:
     h_psi        :    318.98s CPU    326.09s WALL (    8864 calls)
     s_psi        :     30.95s CPU     31.07s WALL (    8864 calls)
     g_psi        :      1.71s CPU      1.73s WALL (    6272 calls)
     cdiaghg      :     50.33s CPU     50.46s WALL (    8432 calls)

     Called by h_psi:
     h_psi:pot    :    317.52s CPU    324.61s WALL (    8864 calls)
     h_psi:calbec :     32.07s CPU     33.66s WALL (    8864 calls)
     vloc_psi     :    254.78s CPU    260.18s WALL (    8864 calls)
     add_vuspsi   :     30.59s CPU     30.71s WALL (    8864 calls)

     General routines
     calbec       :     48.12s CPU     50.60s WALL (   12320 calls)
     fft          :      0.14s CPU      0.18s WALL (     148 calls)
     ffts         :      0.01s CPU      0.01s WALL (      11 calls)
     fftw         :    278.27s CPU    283.97s WALL (  885562 calls)
 
     Parallel routines
     fft_scatt_xy :     28.86s CPU     29.43s WALL (  885721 calls)
     fft_scatt_yz :    132.07s CPU    134.98s WALL (  885721 calls)
 
     PWSCF        : 10m 9.11s CPU    10m36.31s WALL

 
   This run was terminated on:   2:20:48  26Mar2020            

=------------------------------------------------------------------------------=
   JOB DONE.
=------------------------------------------------------------------------------=
