
     Program PWSCF v.6.3 starts on 26Mar2020 at  1:59:37 

     This program is part of the open-source Quantum ESPRESSO suite
     for quantum simulation of materials; please cite
         "P. Giannozzi et al., J. Phys.:Condens. Matter 21 395502 (2009);
         "P. Giannozzi et al., J. Phys.:Condens. Matter 29 465901 (2017);
          URL http://www.quantum-espresso.org", 
     in publications or presentations arising from this work. More details at
     http://www.quantum-espresso.org/quote

     Parallel version (MPI & OpenMP), running on      20 processor cores
     Number of MPI processes:                20
     Threads/MPI process:                     1

     MPI processes distributed on     1 nodes
     R & G space division:  proc/nbgrp/npool/nimage =      20
     Reading input from /rds/homes/b/bxp912/jobs/20200324_al_eos_e/wd/pwscf_ec/ec_8_6.in
Warning: card &IONS ignored
Warning: card ION_DYNAMICS = 'BFGS', ignored
Warning: card / ignored
Warning: card &CELL ignored
Warning: card CELL_DYNAMICS = 'BFGS', ignored
Warning: card CELL_FACTOR = 2.0, ignored
Warning: card PRESS = 0.0, ignored
Warning: card / ignored

     Current dimensions of program PWSCF are:
     Max number of different atomic species (ntypx) = 10
     Max number of k-points (npk) =  40000
     Max angular momentum in pseudopotentials (lmaxx) =  3
     Message from routine read_upf::
     Pseudo file /rds/homes/b/bxp912/pp/Al.pbe-nl-kjpaw_psl.1.0.0.UPF has been successfully fixed on the fly.
To avoid this message in the future you can permanently fix 
 your pseudo files following instructions given in: 
https://gitlab.com/QEF/q-e/blob/master/upftools/how_to_fix_upf.md
               file Al.pbe-nl-kjpaw_psl.1.0.0.UPF: wavefunction(s)  3S 3P renormalized

     Subspace diagonalization in iterative solution of the eigenvalue problem:
     a serial algorithm will be used

     Found symmetry operation: I + (  0.2500  0.2500  0.0000)
     This is a supercell, fractional translations are disabled
 
     Parallelization info
     --------------------
     sticks:   dense  smooth     PW     G-vecs:    dense   smooth      PW
     Min         185     185     51                 8495     8495    1230
     Max         187     187     53                 8500     8500    1232
     Sum        3717    3717   1033               169933   169933   24623
 


     bravais-lattice index     =            0
     lattice parameter (alat)  =      15.2652  a.u.
     unit-cell volume          =    3557.1654 (a.u.)^3
     number of atoms/cell      =           32
     number of atomic types    =            1
     number of electrons       =        96.00
     number of Kohn-Sham states=           58
     kinetic-energy cutoff     =      50.0000  Ry
     charge density cutoff     =     200.0000  Ry
     convergence threshold     =      1.0E-06
     mixing beta               =       0.1000
     number of iterations used =           10  plain     mixing
     Exchange-correlation      = SLA PW PBX PBC ( 1  4  3  4 0 0)

     celldm(1)=  15.265160  celldm(2)=   0.000000  celldm(3)=   0.000000
     celldm(4)=   0.000000  celldm(5)=   0.000000  celldm(6)=   0.000000

     crystal axes: (cart. coord. in units of alat)
               a(1) = (   1.003337   0.000000   0.000000 )  
               a(2) = (   0.000000   1.000004   0.000000 )  
               a(3) = (   0.000000   0.000000   0.996670 )  

     reciprocal axes: (cart. coord. in units 2 pi/alat)
               b(1) = (  0.996674  0.000000  0.000000 )  
               b(2) = (  0.000000  0.999996  0.000000 )  
               b(3) = (  0.000000  0.000000  1.003341 )  


     PseudoPot. # 1 for Al read from file:
     /rds/homes/b/bxp912/pp/Al.pbe-nl-kjpaw_psl.1.0.0.UPF
     MD5 check sum: 339dbea23cf3ab9a065ad45c0f9085d7
     Pseudo is Projector augmented-wave + core cor, Zval =  3.0
     Generated using "atomic" code by A. Dal Corso v.5.1
     Shape of augmentation charge: PSQ
     Using radial grid of 1135 points,  4 beta functions with: 
                l(1) =   0
                l(2) =   0
                l(3) =   1
                l(4) =   1
     Q(r) pseudized with 0 coefficients 


     atomic species   valence    mass     pseudopotential
        Al             3.00    26.98200     Al( 1.00)

      8 Sym. Ops., with inversion, found



   Cartesian axes

     site n.     atom                  positions (alat units)
         1           Al  tau(   1) = (   0.0000000   0.0000000   0.0000000  )
         2           Al  tau(   2) = (   0.2508343   0.2500009   0.0000000  )
         3           Al  tau(   3) = (   0.2508343   0.0000000   0.2491676  )
         4           Al  tau(   4) = (   0.0000000   0.2500009   0.2491676  )
         5           Al  tau(   5) = (   0.0000000   0.0000000   0.4983352  )
         6           Al  tau(   6) = (   0.2508343   0.2500009   0.4983352  )
         7           Al  tau(   7) = (   0.2508343   0.0000000   0.7475028  )
         8           Al  tau(   8) = (   0.0000000   0.2500009   0.7475028  )
         9           Al  tau(   9) = (   0.0000000   0.5000019   0.0000000  )
        10           Al  tau(  10) = (   0.2508343   0.7500028   0.0000000  )
        11           Al  tau(  11) = (   0.2508343   0.5000019   0.2491676  )
        12           Al  tau(  12) = (   0.0000000   0.7500028   0.2491676  )
        13           Al  tau(  13) = (   0.0000000   0.5000019   0.4983352  )
        14           Al  tau(  14) = (   0.2508343   0.7500028   0.4983352  )
        15           Al  tau(  15) = (   0.2508343   0.5000019   0.7475028  )
        16           Al  tau(  16) = (   0.0000000   0.7500028   0.7475028  )
        17           Al  tau(  17) = (   0.5016685   0.0000000   0.0000000  )
        18           Al  tau(  18) = (   0.7525028   0.2500009   0.0000000  )
        19           Al  tau(  19) = (   0.7525028   0.0000000   0.2491676  )
        20           Al  tau(  20) = (   0.5016685   0.2500009   0.2491676  )
        21           Al  tau(  21) = (   0.5016685   0.0000000   0.4983352  )
        22           Al  tau(  22) = (   0.7525028   0.2500009   0.4983352  )
        23           Al  tau(  23) = (   0.7525028   0.0000000   0.7475028  )
        24           Al  tau(  24) = (   0.5016685   0.2500009   0.7475028  )
        25           Al  tau(  25) = (   0.5016685   0.5000019   0.0000000  )
        26           Al  tau(  26) = (   0.7525028   0.7500028   0.0000000  )
        27           Al  tau(  27) = (   0.7525028   0.5000019   0.2491676  )
        28           Al  tau(  28) = (   0.5016685   0.7500028   0.2491676  )
        29           Al  tau(  29) = (   0.5016685   0.5000019   0.4983352  )
        30           Al  tau(  30) = (   0.7525028   0.7500028   0.4983352  )
        31           Al  tau(  31) = (   0.7525028   0.5000019   0.7475028  )
        32           Al  tau(  32) = (   0.5016685   0.7500028   0.7475028  )

     number of k points=   216  Marzari-Vanderbilt smearing, width (Ry)=  0.0400

     Number of k-points >= 100: set verbosity='high' to print them.

     Dense  grid:   169933 G-vectors     FFT dimensions: (  72,  72,  72)

     Estimated max dynamical RAM per process >     232.02 MB

     Estimated total dynamical RAM >       4.53 GB

     Initial potential from superposition of free atoms

     starting charge   95.92671, renormalised to   96.00000
     Starting wfcs are  128 randomized atomic wfcs
     Checking if some PAW data can be deallocated... 

     total cpu time spent up to now is       33.0 secs

     Self-consistent Calculation

     iteration #  1     ecut=    50.00 Ry     beta= 0.10
     Davidson diagonalization with overlap
     ethr =  1.00E-02,  avg # of iterations =  3.0

     Threshold (ethr) on eigenvalues was too large:
     Diagonalizing with lowered threshold

     Davidson diagonalization with overlap
     ethr =  1.91E-04,  avg # of iterations =  4.7

     total cpu time spent up to now is      151.6 secs

     total energy              =   -1264.12488140 Ry
     Harris-Foulkes estimate   =   -1264.13439385 Ry
     estimated scf accuracy    <       0.17937754 Ry

     iteration #  2     ecut=    50.00 Ry     beta= 0.10
     Davidson diagonalization with overlap
     ethr =  1.87E-04,  avg # of iterations =  1.1

     total cpu time spent up to now is      187.7 secs

     total energy              =   -1264.08380985 Ry
     Harris-Foulkes estimate   =   -1264.12565517 Ry
     estimated scf accuracy    <       0.14409256 Ry

     iteration #  3     ecut=    50.00 Ry     beta= 0.10
     Davidson diagonalization with overlap
     ethr =  1.50E-04,  avg # of iterations =  1.0

     total cpu time spent up to now is      223.4 secs

     total energy              =   -1264.08656666 Ry
     Harris-Foulkes estimate   =   -1264.08657357 Ry
     estimated scf accuracy    <       0.00025096 Ry

     iteration #  4     ecut=    50.00 Ry     beta= 0.10
     Davidson diagonalization with overlap
     c_bands:  1 eigenvalues not converged
     c_bands:  1 eigenvalues not converged
     c_bands:  2 eigenvalues not converged
     c_bands:  1 eigenvalues not converged
     c_bands:  1 eigenvalues not converged
     c_bands:  1 eigenvalues not converged
     c_bands:  2 eigenvalues not converged
     c_bands:  1 eigenvalues not converged
     c_bands:  1 eigenvalues not converged
     c_bands:  1 eigenvalues not converged
     c_bands:  1 eigenvalues not converged
     c_bands:  1 eigenvalues not converged
     c_bands:  1 eigenvalues not converged
     c_bands:  1 eigenvalues not converged
     c_bands:  1 eigenvalues not converged
     c_bands:  1 eigenvalues not converged
     c_bands:  1 eigenvalues not converged
     c_bands:  1 eigenvalues not converged
     ethr =  2.61E-07,  avg # of iterations =  7.3

     total cpu time spent up to now is      308.2 secs

     total energy              =   -1264.08747186 Ry
     Harris-Foulkes estimate   =   -1264.08742585 Ry
     estimated scf accuracy    <       0.00021897 Ry

     iteration #  5     ecut=    50.00 Ry     beta= 0.10
     Davidson diagonalization with overlap
     c_bands:  1 eigenvalues not converged
     ethr =  2.28E-07,  avg # of iterations =  1.5

     total cpu time spent up to now is      348.5 secs

     total energy              =   -1264.08734208 Ry
     Harris-Foulkes estimate   =   -1264.08747308 Ry
     estimated scf accuracy    <       0.00031897 Ry

     iteration #  6     ecut=    50.00 Ry     beta= 0.10
     Davidson diagonalization with overlap
     ethr =  2.28E-07,  avg # of iterations =  1.0

     total cpu time spent up to now is      384.6 secs

     total energy              =   -1264.08734949 Ry
     Harris-Foulkes estimate   =   -1264.08735446 Ry
     estimated scf accuracy    <       0.00001594 Ry

     iteration #  7     ecut=    50.00 Ry     beta= 0.10
     Davidson diagonalization with overlap
     c_bands:  2 eigenvalues not converged
     c_bands:  1 eigenvalues not converged
     ethr =  1.66E-08,  avg # of iterations =  4.4

     total cpu time spent up to now is      446.7 secs

     total energy              =   -1264.08735459 Ry
     Harris-Foulkes estimate   =   -1264.08735401 Ry
     estimated scf accuracy    <       0.00000501 Ry

     iteration #  8     ecut=    50.00 Ry     beta= 0.10
     Davidson diagonalization with overlap
     ethr =  5.22E-09,  avg # of iterations =  1.6

     total cpu time spent up to now is      484.5 secs

     total energy              =   -1264.08735391 Ry
     Harris-Foulkes estimate   =   -1264.08735482 Ry
     estimated scf accuracy    <       0.00001013 Ry

     iteration #  9     ecut=    50.00 Ry     beta= 0.10
     Davidson diagonalization with overlap
     ethr =  5.22E-09,  avg # of iterations =  1.0

     total cpu time spent up to now is      520.1 secs

     total energy              =   -1264.08735292 Ry
     Harris-Foulkes estimate   =   -1264.08735407 Ry
     estimated scf accuracy    <       0.00000604 Ry

     iteration # 10     ecut=    50.00 Ry     beta= 0.10
     Davidson diagonalization with overlap
     ethr =  5.22E-09,  avg # of iterations =  2.5

     total cpu time spent up to now is      561.0 secs

     End of self-consistent calculation

     Number of k-points >= 100: set verbosity='high' to print the bands.

     the Fermi energy is     7.9283 ev

!    total energy              =   -1264.08735282 Ry
     Harris-Foulkes estimate   =   -1264.08735331 Ry
     estimated scf accuracy    <       0.00000070 Ry

     total all-electron energy =    -15540.656375 Ry

     The total energy is the sum of the following terms:

     one-electron contribution =     101.33595813 Ry
     hartree contribution      =       0.19685237 Ry
     xc contribution           =     -82.93454019 Ry
     ewald contribution        =    -173.00042940 Ry
     one-center paw contrib.   =   -1109.68243494 Ry
     smearing contrib. (-TS)   =      -0.00275880 Ry

     convergence has been achieved in  10 iterations

     Forces acting on atoms (cartesian axes, Ry/au):

     atom    1 type  1   force =     0.00000000    0.00000000    0.00000000
     atom    2 type  1   force =    -0.00001473    0.00004272    0.00000000
     atom    3 type  1   force =    -0.00001912    0.00000000    0.00000101
     atom    4 type  1   force =     0.00000000    0.00003367   -0.00000618
     atom    5 type  1   force =     0.00000000    0.00000000    0.00000000
     atom    6 type  1   force =    -0.00001930    0.00003016    0.00000000
     atom    7 type  1   force =    -0.00001912    0.00000000   -0.00000101
     atom    8 type  1   force =    -0.00000000    0.00003367    0.00000618
     atom    9 type  1   force =     0.00000000    0.00000000    0.00000000
     atom   10 type  1   force =    -0.00001473   -0.00004272    0.00000000
     atom   11 type  1   force =    -0.00001447    0.00000000   -0.00001421
     atom   12 type  1   force =    -0.00000000   -0.00003367   -0.00000618
     atom   13 type  1   force =     0.00000000    0.00000000    0.00000000
     atom   14 type  1   force =    -0.00001930   -0.00003016    0.00000000
     atom   15 type  1   force =    -0.00001447    0.00000000    0.00001421
     atom   16 type  1   force =     0.00000000   -0.00003367    0.00000618
     atom   17 type  1   force =     0.00000000    0.00000000    0.00000000
     atom   18 type  1   force =     0.00001473    0.00004272    0.00000000
     atom   19 type  1   force =     0.00001912    0.00000000    0.00000101
     atom   20 type  1   force =     0.00000000    0.00004004   -0.00000745
     atom   21 type  1   force =     0.00000000    0.00000000    0.00000000
     atom   22 type  1   force =     0.00001930    0.00003016    0.00000000
     atom   23 type  1   force =     0.00001912    0.00000000   -0.00000101
     atom   24 type  1   force =    -0.00000000    0.00004004    0.00000745
     atom   25 type  1   force =     0.00000000    0.00000000    0.00000000
     atom   26 type  1   force =     0.00001473   -0.00004272    0.00000000
     atom   27 type  1   force =     0.00001447    0.00000000   -0.00001421
     atom   28 type  1   force =    -0.00000000   -0.00004004   -0.00000745
     atom   29 type  1   force =     0.00000000    0.00000000    0.00000000
     atom   30 type  1   force =     0.00001930   -0.00003016    0.00000000
     atom   31 type  1   force =     0.00001447    0.00000000    0.00001421
     atom   32 type  1   force =     0.00000000   -0.00004004    0.00000745

     Total force =     0.000167     Total SCF correction =     0.000941
     SCF correction compared to forces is large: reduce conv_thr to get better values


     Computing stress (Cartesian axis) and pressure

          total   stress  (Ry/bohr**3)                   (kbar)     P=    0.11
  -0.00001137   0.00000000   0.00000000         -1.67      0.00      0.00
   0.00000000   0.00000080   0.00000000          0.00      0.12      0.00
   0.00000000   0.00000000   0.00001288          0.00      0.00      1.90


     Writing output data file nNCEIGVYQDlgeOGL.save/
 
     init_run     :     31.03s CPU     31.88s WALL (       1 calls)
     electrons    :    517.83s CPU    528.10s WALL (       1 calls)
     forces       :      6.51s CPU      6.79s WALL (       1 calls)
     stress       :     42.75s CPU     43.92s WALL (       1 calls)

     Called by init_run:
     wfcinit      :     30.63s CPU     31.42s WALL (       1 calls)
     potinit      :      0.12s CPU      0.13s WALL (       1 calls)
     hinit0       :      0.13s CPU      0.17s WALL (       1 calls)

     Called by electrons:
     c_bands      :    451.39s CPU    459.78s WALL (      11 calls)
     sum_band     :     65.51s CPU     67.31s WALL (      11 calls)
     v_of_rho     :      0.14s CPU      0.15s WALL (      11 calls)
     newd         :      0.10s CPU      0.15s WALL (      11 calls)
     PAW_pot      :      0.72s CPU      0.73s WALL (      11 calls)
     mix_rho      :      0.04s CPU      0.05s WALL (      11 calls)

     Called by c_bands:
     init_us_2    :     11.20s CPU     11.39s WALL (    5400 calls)
     cegterg      :    424.13s CPU    432.16s WALL (    2376 calls)

     Called by sum_band:
     sum_band:bec :      0.29s CPU      0.30s WALL (    2376 calls)
     addusdens    :      0.09s CPU      0.13s WALL (      11 calls)

     Called by *egterg:
     h_psi        :    311.82s CPU    318.93s WALL (    8892 calls)
     s_psi        :     31.06s CPU     31.19s WALL (    8892 calls)
     g_psi        :      1.71s CPU      1.73s WALL (    6300 calls)
     cdiaghg      :     50.99s CPU     51.15s WALL (    8460 calls)

     Called by h_psi:
     h_psi:pot    :    310.31s CPU    317.40s WALL (    8892 calls)
     h_psi:calbec :     31.66s CPU     33.38s WALL (    8892 calls)
     vloc_psi     :    247.93s CPU    253.16s WALL (    8892 calls)
     add_vuspsi   :     30.65s CPU     30.80s WALL (    8892 calls)

     General routines
     calbec       :     48.89s CPU     51.54s WALL (   12348 calls)
     fft          :      0.44s CPU      0.49s WALL (     148 calls)
     ffts         :      0.02s CPU      0.02s WALL (      11 calls)
     fftw         :    271.38s CPU    277.02s WALL (  886916 calls)
 
     Parallel routines
     fft_scatt_xy :     28.65s CPU     29.24s WALL (  887075 calls)
     fft_scatt_yz :    125.96s CPU    128.83s WALL (  887075 calls)
 
     PWSCF        : 10m 3.70s CPU    10m33.25s WALL

 
   This run was terminated on:   2:10:11  26Mar2020            

=------------------------------------------------------------------------------=
   JOB DONE.
=------------------------------------------------------------------------------=
