
     Program PWSCF v.6.3 starts on 26Mar2020 at  0:32:47 

     This program is part of the open-source Quantum ESPRESSO suite
     for quantum simulation of materials; please cite
         "P. Giannozzi et al., J. Phys.:Condens. Matter 21 395502 (2009);
         "P. Giannozzi et al., J. Phys.:Condens. Matter 29 465901 (2017);
          URL http://www.quantum-espresso.org", 
     in publications or presentations arising from this work. More details at
     http://www.quantum-espresso.org/quote

     Parallel version (MPI & OpenMP), running on      20 processor cores
     Number of MPI processes:                20
     Threads/MPI process:                     1

     MPI processes distributed on     1 nodes
     R & G space division:  proc/nbgrp/npool/nimage =      20
     Reading input from /rds/homes/b/bxp912/jobs/20200324_al_eos_e/wd/pwscf_ec/ec_8_3.in
Warning: card &IONS ignored
Warning: card ION_DYNAMICS = 'BFGS', ignored
Warning: card / ignored
Warning: card &CELL ignored
Warning: card CELL_DYNAMICS = 'BFGS', ignored
Warning: card CELL_FACTOR = 2.0, ignored
Warning: card PRESS = 0.0, ignored
Warning: card / ignored

     Current dimensions of program PWSCF are:
     Max number of different atomic species (ntypx) = 10
     Max number of k-points (npk) =  40000
     Max angular momentum in pseudopotentials (lmaxx) =  3
     Message from routine read_upf::
     Pseudo file /rds/homes/b/bxp912/pp/Al.pbe-nl-kjpaw_psl.1.0.0.UPF has been successfully fixed on the fly.
To avoid this message in the future you can permanently fix 
 your pseudo files following instructions given in: 
https://gitlab.com/QEF/q-e/blob/master/upftools/how_to_fix_upf.md
               file Al.pbe-nl-kjpaw_psl.1.0.0.UPF: wavefunction(s)  3S 3P renormalized

     Subspace diagonalization in iterative solution of the eigenvalue problem:
     a serial algorithm will be used

     Found symmetry operation: I + (  0.2500  0.2500  0.0000)
     This is a supercell, fractional translations are disabled
 
     Parallelization info
     --------------------
     sticks:   dense  smooth     PW     G-vecs:    dense   smooth      PW
     Min         185     185     51                 8495     8495    1231
     Max         186     186     52                 8502     8502    1232
     Sum        3709    3709   1033               169957   169957   24633
 


     bravais-lattice index     =            0
     lattice parameter (alat)  =      15.2652  a.u.
     unit-cell volume          =    3557.1654 (a.u.)^3
     number of atoms/cell      =           32
     number of atomic types    =            1
     number of electrons       =        96.00
     number of Kohn-Sham states=           58
     kinetic-energy cutoff     =      50.0000  Ry
     charge density cutoff     =     200.0000  Ry
     convergence threshold     =      1.0E-06
     mixing beta               =       0.1000
     number of iterations used =           10  plain     mixing
     Exchange-correlation      = SLA PW PBX PBC ( 1  4  3  4 0 0)

     celldm(1)=  15.265160  celldm(2)=   0.000000  celldm(3)=   0.000000
     celldm(4)=   0.000000  celldm(5)=   0.000000  celldm(6)=   0.000000

     crystal axes: (cart. coord. in units of alat)
               a(1) = (   1.001668   0.000000   0.000000 )  
               a(2) = (   0.000000   1.000001   0.000000 )  
               a(3) = (   0.000000   0.000000   0.998334 )  

     reciprocal axes: (cart. coord. in units 2 pi/alat)
               b(1) = (  0.998335  0.000000  0.000000 )  
               b(2) = (  0.000000  0.999999  0.000000 )  
               b(3) = (  0.000000  0.000000  1.001669 )  


     PseudoPot. # 1 for Al read from file:
     /rds/homes/b/bxp912/pp/Al.pbe-nl-kjpaw_psl.1.0.0.UPF
     MD5 check sum: 339dbea23cf3ab9a065ad45c0f9085d7
     Pseudo is Projector augmented-wave + core cor, Zval =  3.0
     Generated using "atomic" code by A. Dal Corso v.5.1
     Shape of augmentation charge: PSQ
     Using radial grid of 1135 points,  4 beta functions with: 
                l(1) =   0
                l(2) =   0
                l(3) =   1
                l(4) =   1
     Q(r) pseudized with 0 coefficients 


     atomic species   valence    mass     pseudopotential
        Al             3.00    26.98200     Al( 1.00)

      8 Sym. Ops., with inversion, found



   Cartesian axes

     site n.     atom                  positions (alat units)
         1           Al  tau(   1) = (   0.0000000   0.0000000   0.0000000  )
         2           Al  tau(   2) = (   0.2504169   0.2500002   0.0000000  )
         3           Al  tau(   3) = (   0.2504169   0.0000000   0.2495836  )
         4           Al  tau(   4) = (   0.0000000   0.2500002   0.2495836  )
         5           Al  tau(   5) = (   0.0000000   0.0000000   0.4991671  )
         6           Al  tau(   6) = (   0.2504169   0.2500002   0.4991671  )
         7           Al  tau(   7) = (   0.2504169   0.0000000   0.7487507  )
         8           Al  tau(   8) = (   0.0000000   0.2500002   0.7487507  )
         9           Al  tau(   9) = (   0.0000000   0.5000005   0.0000000  )
        10           Al  tau(  10) = (   0.2504169   0.7500007   0.0000000  )
        11           Al  tau(  11) = (   0.2504169   0.5000005   0.2495836  )
        12           Al  tau(  12) = (   0.0000000   0.7500007   0.2495836  )
        13           Al  tau(  13) = (   0.0000000   0.5000005   0.4991671  )
        14           Al  tau(  14) = (   0.2504169   0.7500007   0.4991671  )
        15           Al  tau(  15) = (   0.2504169   0.5000005   0.7487507  )
        16           Al  tau(  16) = (   0.0000000   0.7500007   0.7487507  )
        17           Al  tau(  17) = (   0.5008338   0.0000000   0.0000000  )
        18           Al  tau(  18) = (   0.7512507   0.2500002   0.0000000  )
        19           Al  tau(  19) = (   0.7512507   0.0000000   0.2495836  )
        20           Al  tau(  20) = (   0.5008338   0.2500002   0.2495836  )
        21           Al  tau(  21) = (   0.5008338   0.0000000   0.4991671  )
        22           Al  tau(  22) = (   0.7512507   0.2500002   0.4991671  )
        23           Al  tau(  23) = (   0.7512507   0.0000000   0.7487507  )
        24           Al  tau(  24) = (   0.5008338   0.2500002   0.7487507  )
        25           Al  tau(  25) = (   0.5008338   0.5000005   0.0000000  )
        26           Al  tau(  26) = (   0.7512507   0.7500007   0.0000000  )
        27           Al  tau(  27) = (   0.7512507   0.5000005   0.2495836  )
        28           Al  tau(  28) = (   0.5008338   0.7500007   0.2495836  )
        29           Al  tau(  29) = (   0.5008338   0.5000005   0.4991671  )
        30           Al  tau(  30) = (   0.7512507   0.7500007   0.4991671  )
        31           Al  tau(  31) = (   0.7512507   0.5000005   0.7487507  )
        32           Al  tau(  32) = (   0.5008338   0.7500007   0.7487507  )

     number of k points=   216  Marzari-Vanderbilt smearing, width (Ry)=  0.0400

     Number of k-points >= 100: set verbosity='high' to print them.

     Dense  grid:   169957 G-vectors     FFT dimensions: (  72,  72,  72)

     Estimated max dynamical RAM per process >     232.02 MB

     Estimated total dynamical RAM >       4.53 GB

     Initial potential from superposition of free atoms

     starting charge   95.92671, renormalised to   96.00000
     Starting wfcs are  128 randomized atomic wfcs
     Checking if some PAW data can be deallocated... 

     total cpu time spent up to now is       32.7 secs

     Self-consistent Calculation

     iteration #  1     ecut=    50.00 Ry     beta= 0.10
     Davidson diagonalization with overlap
     ethr =  1.00E-02,  avg # of iterations =  3.1

     Threshold (ethr) on eigenvalues was too large:
     Diagonalizing with lowered threshold

     Davidson diagonalization with overlap
     ethr =  1.91E-04,  avg # of iterations =  4.6

     total cpu time spent up to now is      151.9 secs

     total energy              =   -1264.12499728 Ry
     Harris-Foulkes estimate   =   -1264.13450959 Ry
     estimated scf accuracy    <       0.17940095 Ry

     iteration #  2     ecut=    50.00 Ry     beta= 0.10
     Davidson diagonalization with overlap
     ethr =  1.87E-04,  avg # of iterations =  1.1

     total cpu time spent up to now is      188.7 secs

     total energy              =   -1264.08391988 Ry
     Harris-Foulkes estimate   =   -1264.12576999 Ry
     estimated scf accuracy    <       0.14410624 Ry

     iteration #  3     ecut=    50.00 Ry     beta= 0.10
     Davidson diagonalization with overlap
     ethr =  1.50E-04,  avg # of iterations =  1.0

     total cpu time spent up to now is      225.2 secs

     total energy              =   -1264.08667633 Ry
     Harris-Foulkes estimate   =   -1264.08668298 Ry
     estimated scf accuracy    <       0.00025088 Ry

     iteration #  4     ecut=    50.00 Ry     beta= 0.10
     Davidson diagonalization with overlap
     c_bands:  1 eigenvalues not converged
     c_bands:  1 eigenvalues not converged
     c_bands:  1 eigenvalues not converged
     c_bands:  1 eigenvalues not converged
     c_bands:  2 eigenvalues not converged
     c_bands:  1 eigenvalues not converged
     c_bands:  1 eigenvalues not converged
     c_bands:  1 eigenvalues not converged
     c_bands:  1 eigenvalues not converged
     c_bands:  1 eigenvalues not converged
     c_bands:  1 eigenvalues not converged
     c_bands:  1 eigenvalues not converged
     ethr =  2.61E-07,  avg # of iterations =  7.3

     total cpu time spent up to now is      311.3 secs

     total energy              =   -1264.08756764 Ry
     Harris-Foulkes estimate   =   -1264.08753403 Ry
     estimated scf accuracy    <       0.00021921 Ry

     iteration #  5     ecut=    50.00 Ry     beta= 0.10
     Davidson diagonalization with overlap
     c_bands:  1 eigenvalues not converged
     ethr =  2.28E-07,  avg # of iterations =  1.6

     total cpu time spent up to now is      349.9 secs

     total energy              =   -1264.08745120 Ry
     Harris-Foulkes estimate   =   -1264.08756863 Ry
     estimated scf accuracy    <       0.00029171 Ry

     iteration #  6     ecut=    50.00 Ry     beta= 0.10
     Davidson diagonalization with overlap
     ethr =  2.28E-07,  avg # of iterations =  1.1

     total cpu time spent up to now is      386.4 secs

     total energy              =   -1264.08745782 Ry
     Harris-Foulkes estimate   =   -1264.08746254 Ry
     estimated scf accuracy    <       0.00001644 Ry

     iteration #  7     ecut=    50.00 Ry     beta= 0.10
     Davidson diagonalization with overlap
     c_bands:  1 eigenvalues not converged
     ethr =  1.71E-08,  avg # of iterations =  4.2

     total cpu time spent up to now is      447.2 secs

     total energy              =   -1264.08746207 Ry
     Harris-Foulkes estimate   =   -1264.08746165 Ry
     estimated scf accuracy    <       0.00000510 Ry

     iteration #  8     ecut=    50.00 Ry     beta= 0.10
     Davidson diagonalization with overlap
     ethr =  5.32E-09,  avg # of iterations =  1.2

     total cpu time spent up to now is      484.0 secs

     total energy              =   -1264.08746146 Ry
     Harris-Foulkes estimate   =   -1264.08746224 Ry
     estimated scf accuracy    <       0.00000867 Ry

     iteration #  9     ecut=    50.00 Ry     beta= 0.10
     Davidson diagonalization with overlap
     ethr =  5.32E-09,  avg # of iterations =  1.0

     total cpu time spent up to now is      520.7 secs

     total energy              =   -1264.08746047 Ry
     Harris-Foulkes estimate   =   -1264.08746162 Ry
     estimated scf accuracy    <       0.00000503 Ry

     iteration # 10     ecut=    50.00 Ry     beta= 0.10
     Davidson diagonalization with overlap
     ethr =  5.24E-09,  avg # of iterations =  2.5

     total cpu time spent up to now is      563.3 secs

     End of self-consistent calculation

     Number of k-points >= 100: set verbosity='high' to print the bands.

     the Fermi energy is     7.9284 ev

!    total energy              =   -1264.08746079 Ry
     Harris-Foulkes estimate   =   -1264.08746091 Ry
     estimated scf accuracy    <       0.00000027 Ry

     total all-electron energy =    -15540.656483 Ry

     The total energy is the sum of the following terms:

     one-electron contribution =     101.33567590 Ry
     hartree contribution      =       0.19687752 Ry
     xc contribution           =     -82.93446701 Ry
     ewald contribution        =    -173.00049595 Ry
     one-center paw contrib.   =   -1109.68230271 Ry
     smearing contrib. (-TS)   =      -0.00274854 Ry

     convergence has been achieved in  10 iterations

     Forces acting on atoms (cartesian axes, Ry/au):

     atom    1 type  1   force =     0.00000000    0.00000000    0.00000000
     atom    2 type  1   force =    -0.00000758    0.00002352   -0.00000000
     atom    3 type  1   force =    -0.00000731    0.00000000    0.00000113
     atom    4 type  1   force =    -0.00000000    0.00002051   -0.00000592
     atom    5 type  1   force =     0.00000000    0.00000000    0.00000000
     atom    6 type  1   force =    -0.00000822    0.00001530    0.00000000
     atom    7 type  1   force =    -0.00000731   -0.00000000   -0.00000113
     atom    8 type  1   force =    -0.00000000    0.00002051    0.00000592
     atom    9 type  1   force =     0.00000000    0.00000000    0.00000000
     atom   10 type  1   force =    -0.00000758   -0.00002352    0.00000000
     atom   11 type  1   force =    -0.00001039    0.00000000   -0.00000974
     atom   12 type  1   force =     0.00000000   -0.00002051   -0.00000592
     atom   13 type  1   force =     0.00000000    0.00000000    0.00000000
     atom   14 type  1   force =    -0.00000822   -0.00001530    0.00000000
     atom   15 type  1   force =    -0.00001039    0.00000000    0.00000974
     atom   16 type  1   force =     0.00000000   -0.00002051    0.00000592
     atom   17 type  1   force =     0.00000000    0.00000000    0.00000000
     atom   18 type  1   force =     0.00000758    0.00002352    0.00000000
     atom   19 type  1   force =     0.00000731   -0.00000000    0.00000113
     atom   20 type  1   force =    -0.00000000    0.00001771   -0.00000260
     atom   21 type  1   force =     0.00000000    0.00000000    0.00000000
     atom   22 type  1   force =     0.00000822    0.00001530    0.00000000
     atom   23 type  1   force =     0.00000731    0.00000000   -0.00000113
     atom   24 type  1   force =     0.00000000    0.00001771    0.00000260
     atom   25 type  1   force =     0.00000000    0.00000000    0.00000000
     atom   26 type  1   force =     0.00000758   -0.00002352   -0.00000000
     atom   27 type  1   force =     0.00001039    0.00000000   -0.00000974
     atom   28 type  1   force =     0.00000000   -0.00001771   -0.00000260
     atom   29 type  1   force =     0.00000000    0.00000000    0.00000000
     atom   30 type  1   force =     0.00000822   -0.00001530    0.00000000
     atom   31 type  1   force =     0.00001039    0.00000000    0.00000974
     atom   32 type  1   force =     0.00000000   -0.00001771    0.00000260

     Total force =     0.000088     Total SCF correction =     0.000380
     SCF correction compared to forces is large: reduce conv_thr to get better values


     Computing stress (Cartesian axis) and pressure

          total   stress  (Ry/bohr**3)                   (kbar)     P=    0.09
  -0.00000546   0.00000000   0.00000000         -0.80      0.00      0.00
   0.00000000   0.00000062   0.00000000          0.00      0.09      0.00
   0.00000000   0.00000000   0.00000663          0.00      0.00      0.98


     Writing output data file ezOdDfQSuTQfqVuD.save/
 
     init_run     :     31.48s CPU     32.23s WALL (       1 calls)
     electrons    :    520.84s CPU    530.61s WALL (       1 calls)
     forces       :      6.41s CPU      6.65s WALL (       1 calls)
     stress       :     41.54s CPU     42.31s WALL (       1 calls)

     Called by init_run:
     wfcinit      :     31.11s CPU     31.83s WALL (       1 calls)
     potinit      :      0.12s CPU      0.12s WALL (       1 calls)
     hinit0       :      0.15s CPU      0.16s WALL (       1 calls)

     Called by electrons:
     c_bands      :    453.79s CPU    461.85s WALL (      11 calls)
     sum_band     :     66.13s CPU     67.74s WALL (      11 calls)
     v_of_rho     :      0.14s CPU      0.15s WALL (      11 calls)
     newd         :      0.11s CPU      0.16s WALL (      11 calls)
     PAW_pot      :      0.71s CPU      0.73s WALL (      11 calls)
     mix_rho      :      0.04s CPU      0.04s WALL (      11 calls)

     Called by c_bands:
     init_us_2    :     11.56s CPU     11.74s WALL (    5400 calls)
     cegterg      :    426.88s CPU    434.69s WALL (    2376 calls)

     Called by sum_band:
     sum_band:bec :      0.28s CPU      0.28s WALL (    2376 calls)
     addusdens    :      0.09s CPU      0.12s WALL (      11 calls)

     Called by *egterg:
     h_psi        :    317.53s CPU    324.61s WALL (    8777 calls)
     s_psi        :     30.27s CPU     30.36s WALL (    8777 calls)
     g_psi        :      1.69s CPU      1.70s WALL (    6185 calls)
     cdiaghg      :     49.46s CPU     49.54s WALL (    8345 calls)

     Called by h_psi:
     h_psi:pot    :    316.05s CPU    323.11s WALL (    8777 calls)
     h_psi:calbec :     31.24s CPU     32.96s WALL (    8777 calls)
     vloc_psi     :    254.77s CPU    260.05s WALL (    8777 calls)
     add_vuspsi   :     29.96s CPU     30.05s WALL (    8777 calls)

     General routines
     calbec       :     48.81s CPU     51.40s WALL (   12233 calls)
     fft          :      0.17s CPU      0.20s WALL (     148 calls)
     ffts         :      0.01s CPU      0.01s WALL (      11 calls)
     fftw         :    278.71s CPU    284.39s WALL (  886566 calls)
 
     Parallel routines
     fft_scatt_xy :     28.46s CPU     29.07s WALL (  886725 calls)
     fft_scatt_yz :    132.86s CPU    135.80s WALL (  886725 calls)
 
     PWSCF        : 10m 7.48s CPU    10m45.85s WALL

 
   This run was terminated on:   0:43:33  26Mar2020            

=------------------------------------------------------------------------------=
   JOB DONE.
=------------------------------------------------------------------------------=
