
     Program PWSCF v.6.3 starts on 26Mar2020 at  0:21:56 

     This program is part of the open-source Quantum ESPRESSO suite
     for quantum simulation of materials; please cite
         "P. Giannozzi et al., J. Phys.:Condens. Matter 21 395502 (2009);
         "P. Giannozzi et al., J. Phys.:Condens. Matter 29 465901 (2017);
          URL http://www.quantum-espresso.org", 
     in publications or presentations arising from this work. More details at
     http://www.quantum-espresso.org/quote

     Parallel version (MPI & OpenMP), running on      20 processor cores
     Number of MPI processes:                20
     Threads/MPI process:                     1

     MPI processes distributed on     1 nodes
     R & G space division:  proc/nbgrp/npool/nimage =      20
     Reading input from /rds/homes/b/bxp912/jobs/20200324_al_eos_e/wd/pwscf_ec/ec_8_2.in
Warning: card &IONS ignored
Warning: card ION_DYNAMICS = 'BFGS', ignored
Warning: card / ignored
Warning: card &CELL ignored
Warning: card CELL_DYNAMICS = 'BFGS', ignored
Warning: card CELL_FACTOR = 2.0, ignored
Warning: card PRESS = 0.0, ignored
Warning: card / ignored

     Current dimensions of program PWSCF are:
     Max number of different atomic species (ntypx) = 10
     Max number of k-points (npk) =  40000
     Max angular momentum in pseudopotentials (lmaxx) =  3
     Message from routine read_upf::
     Pseudo file /rds/homes/b/bxp912/pp/Al.pbe-nl-kjpaw_psl.1.0.0.UPF has been successfully fixed on the fly.
To avoid this message in the future you can permanently fix 
 your pseudo files following instructions given in: 
https://gitlab.com/QEF/q-e/blob/master/upftools/how_to_fix_upf.md
               file Al.pbe-nl-kjpaw_psl.1.0.0.UPF: wavefunction(s)  3S 3P renormalized

     Subspace diagonalization in iterative solution of the eigenvalue problem:
     a serial algorithm will be used

     Found symmetry operation: I + (  0.2500  0.2500  0.0000)
     This is a supercell, fractional translations are disabled
 
     Parallelization info
     --------------------
     sticks:   dense  smooth     PW     G-vecs:    dense   smooth      PW
     Min         185     185     51                 8499     8499    1229
     Max         186     186     52                 8504     8504    1232
     Sum        3709    3709   1033               170013   170013   24601
 


     bravais-lattice index     =            0
     lattice parameter (alat)  =      15.2652  a.u.
     unit-cell volume          =    3557.1654 (a.u.)^3
     number of atoms/cell      =           32
     number of atomic types    =            1
     number of electrons       =        96.00
     number of Kohn-Sham states=           58
     kinetic-energy cutoff     =      50.0000  Ry
     charge density cutoff     =     200.0000  Ry
     convergence threshold     =      1.0E-06
     mixing beta               =       0.1000
     number of iterations used =           10  plain     mixing
     Exchange-correlation      = SLA PW PBX PBC ( 1  4  3  4 0 0)

     celldm(1)=  15.265160  celldm(2)=   0.000000  celldm(3)=   0.000000
     celldm(4)=   0.000000  celldm(5)=   0.000000  celldm(6)=   0.000000

     crystal axes: (cart. coord. in units of alat)
               a(1) = (   1.001112   0.000000   0.000000 )  
               a(2) = (   0.000000   1.000000   0.000000 )  
               a(3) = (   0.000000   0.000000   0.998889 )  

     reciprocal axes: (cart. coord. in units 2 pi/alat)
               b(1) = (  0.998890  0.000000  0.000000 )  
               b(2) = (  0.000000  1.000000  0.000000 )  
               b(3) = (  0.000000  0.000000  1.001112 )  


     PseudoPot. # 1 for Al read from file:
     /rds/homes/b/bxp912/pp/Al.pbe-nl-kjpaw_psl.1.0.0.UPF
     MD5 check sum: 339dbea23cf3ab9a065ad45c0f9085d7
     Pseudo is Projector augmented-wave + core cor, Zval =  3.0
     Generated using "atomic" code by A. Dal Corso v.5.1
     Shape of augmentation charge: PSQ
     Using radial grid of 1135 points,  4 beta functions with: 
                l(1) =   0
                l(2) =   0
                l(3) =   1
                l(4) =   1
     Q(r) pseudized with 0 coefficients 


     atomic species   valence    mass     pseudopotential
        Al             3.00    26.98200     Al( 1.00)

      8 Sym. Ops., with inversion, found



   Cartesian axes

     site n.     atom                  positions (alat units)
         1           Al  tau(   1) = (   0.0000000   0.0000000   0.0000000  )
         2           Al  tau(   2) = (   0.2502779   0.2500001   0.0000000  )
         3           Al  tau(   3) = (   0.2502779   0.0000000   0.2497223  )
         4           Al  tau(   4) = (   0.0000000   0.2500001   0.2497223  )
         5           Al  tau(   5) = (   0.0000000   0.0000000   0.4994446  )
         6           Al  tau(   6) = (   0.2502779   0.2500001   0.4994446  )
         7           Al  tau(   7) = (   0.2502779   0.0000000   0.7491670  )
         8           Al  tau(   8) = (   0.0000000   0.2500001   0.7491670  )
         9           Al  tau(   9) = (   0.0000000   0.5000002   0.0000000  )
        10           Al  tau(  10) = (   0.2502779   0.7500003   0.0000000  )
        11           Al  tau(  11) = (   0.2502779   0.5000002   0.2497223  )
        12           Al  tau(  12) = (   0.0000000   0.7500003   0.2497223  )
        13           Al  tau(  13) = (   0.0000000   0.5000002   0.4994446  )
        14           Al  tau(  14) = (   0.2502779   0.7500003   0.4994446  )
        15           Al  tau(  15) = (   0.2502779   0.5000002   0.7491670  )
        16           Al  tau(  16) = (   0.0000000   0.7500003   0.7491670  )
        17           Al  tau(  17) = (   0.5005558   0.0000000   0.0000000  )
        18           Al  tau(  18) = (   0.7508336   0.2500001   0.0000000  )
        19           Al  tau(  19) = (   0.7508336   0.0000000   0.2497223  )
        20           Al  tau(  20) = (   0.5005558   0.2500001   0.2497223  )
        21           Al  tau(  21) = (   0.5005558   0.0000000   0.4994446  )
        22           Al  tau(  22) = (   0.7508336   0.2500001   0.4994446  )
        23           Al  tau(  23) = (   0.7508336   0.0000000   0.7491670  )
        24           Al  tau(  24) = (   0.5005558   0.2500001   0.7491670  )
        25           Al  tau(  25) = (   0.5005558   0.5000002   0.0000000  )
        26           Al  tau(  26) = (   0.7508336   0.7500003   0.0000000  )
        27           Al  tau(  27) = (   0.7508336   0.5000002   0.2497223  )
        28           Al  tau(  28) = (   0.5005558   0.7500003   0.2497223  )
        29           Al  tau(  29) = (   0.5005558   0.5000002   0.4994446  )
        30           Al  tau(  30) = (   0.7508336   0.7500003   0.4994446  )
        31           Al  tau(  31) = (   0.7508336   0.5000002   0.7491670  )
        32           Al  tau(  32) = (   0.5005558   0.7500003   0.7491670  )

     number of k points=   216  Marzari-Vanderbilt smearing, width (Ry)=  0.0400

     Number of k-points >= 100: set verbosity='high' to print them.

     Dense  grid:   170013 G-vectors     FFT dimensions: (  72,  72,  72)

     Estimated max dynamical RAM per process >     232.04 MB

     Estimated total dynamical RAM >       4.53 GB

     Initial potential from superposition of free atoms

     starting charge   95.92671, renormalised to   96.00000
     Starting wfcs are  128 randomized atomic wfcs
     Checking if some PAW data can be deallocated... 

     total cpu time spent up to now is       32.0 secs

     Self-consistent Calculation

     iteration #  1     ecut=    50.00 Ry     beta= 0.10
     Davidson diagonalization with overlap
     ethr =  1.00E-02,  avg # of iterations =  3.1

     Threshold (ethr) on eigenvalues was too large:
     Diagonalizing with lowered threshold

     Davidson diagonalization with overlap
     ethr =  1.91E-04,  avg # of iterations =  4.5

     total cpu time spent up to now is      148.0 secs

     total energy              =   -1264.12501916 Ry
     Harris-Foulkes estimate   =   -1264.13453049 Ry
     estimated scf accuracy    <       0.17939086 Ry

     iteration #  2     ecut=    50.00 Ry     beta= 0.10
     Davidson diagonalization with overlap
     ethr =  1.87E-04,  avg # of iterations =  1.1

     total cpu time spent up to now is      184.0 secs

     total energy              =   -1264.08393707 Ry
     Harris-Foulkes estimate   =   -1264.12579034 Ry
     estimated scf accuracy    <       0.14410938 Ry

     iteration #  3     ecut=    50.00 Ry     beta= 0.10
     Davidson diagonalization with overlap
     ethr =  1.50E-04,  avg # of iterations =  1.0

     total cpu time spent up to now is      219.5 secs

     total energy              =   -1264.08669441 Ry
     Harris-Foulkes estimate   =   -1264.08670225 Ry
     estimated scf accuracy    <       0.00025100 Ry

     iteration #  4     ecut=    50.00 Ry     beta= 0.10
     Davidson diagonalization with overlap
     c_bands:  1 eigenvalues not converged
     c_bands:  1 eigenvalues not converged
     c_bands:  2 eigenvalues not converged
     c_bands:  1 eigenvalues not converged
     c_bands:  1 eigenvalues not converged
     c_bands:  3 eigenvalues not converged
     c_bands:  1 eigenvalues not converged
     c_bands:  2 eigenvalues not converged
     c_bands:  1 eigenvalues not converged
     c_bands:  1 eigenvalues not converged
     ethr =  2.61E-07,  avg # of iterations =  7.1

     total cpu time spent up to now is      304.7 secs

     total energy              =   -1264.08758004 Ry
     Harris-Foulkes estimate   =   -1264.08755280 Ry
     estimated scf accuracy    <       0.00021839 Ry

     iteration #  5     ecut=    50.00 Ry     beta= 0.10
     Davidson diagonalization with overlap
     ethr =  2.27E-07,  avg # of iterations =  1.3

     total cpu time spent up to now is      343.0 secs

     total energy              =   -1264.08747047 Ry
     Harris-Foulkes estimate   =   -1264.08758092 Ry
     estimated scf accuracy    <       0.00027682 Ry

     iteration #  6     ecut=    50.00 Ry     beta= 0.10
     Davidson diagonalization with overlap
     ethr =  2.27E-07,  avg # of iterations =  1.0

     total cpu time spent up to now is      387.6 secs

     total energy              =   -1264.08747746 Ry
     Harris-Foulkes estimate   =   -1264.08748162 Ry
     estimated scf accuracy    <       0.00001613 Ry

     iteration #  7     ecut=    50.00 Ry     beta= 0.10
     Davidson diagonalization with overlap
     c_bands:  3 eigenvalues not converged
     ethr =  1.68E-08,  avg # of iterations =  4.1

     total cpu time spent up to now is      456.6 secs

     total energy              =   -1264.08748178 Ry
     Harris-Foulkes estimate   =   -1264.08748152 Ry
     estimated scf accuracy    <       0.00000499 Ry

     iteration #  8     ecut=    50.00 Ry     beta= 0.10
     Davidson diagonalization with overlap
     ethr =  5.20E-09,  avg # of iterations =  1.1

     total cpu time spent up to now is      492.7 secs

     total energy              =   -1264.08748136 Ry
     Harris-Foulkes estimate   =   -1264.08748191 Ry
     estimated scf accuracy    <       0.00000729 Ry

     iteration #  9     ecut=    50.00 Ry     beta= 0.10
     Davidson diagonalization with overlap
     ethr =  5.20E-09,  avg # of iterations =  1.0

     total cpu time spent up to now is      528.2 secs

     total energy              =   -1264.08748031 Ry
     Harris-Foulkes estimate   =   -1264.08748149 Ry
     estimated scf accuracy    <       0.00000453 Ry

     iteration # 10     ecut=    50.00 Ry     beta= 0.10
     Davidson diagonalization with overlap
     ethr =  4.71E-09,  avg # of iterations =  2.6

     total cpu time spent up to now is      572.2 secs

     End of self-consistent calculation

     Number of k-points >= 100: set verbosity='high' to print the bands.

     the Fermi energy is     7.9284 ev

!    total energy              =   -1264.08748075 Ry
     Harris-Foulkes estimate   =   -1264.08748079 Ry
     estimated scf accuracy    <       0.00000014 Ry

     total all-electron energy =    -15540.656503 Ry

     The total energy is the sum of the following terms:

     one-electron contribution =     101.33558892 Ry
     hartree contribution      =       0.19688181 Ry
     xc contribution           =     -82.93443670 Ry
     ewald contribution        =    -173.00050827 Ry
     one-center paw contrib.   =   -1109.68226043 Ry
     smearing contrib. (-TS)   =      -0.00274608 Ry

     convergence has been achieved in  10 iterations

     Forces acting on atoms (cartesian axes, Ry/au):

     atom    1 type  1   force =     0.00000000    0.00000000    0.00000000
     atom    2 type  1   force =    -0.00000343    0.00000877   -0.00000000
     atom    3 type  1   force =    -0.00000142    0.00000000    0.00000125
     atom    4 type  1   force =     0.00000000    0.00001057   -0.00000439
     atom    5 type  1   force =     0.00000000    0.00000000    0.00000000
     atom    6 type  1   force =    -0.00000274    0.00000503   -0.00000000
     atom    7 type  1   force =    -0.00000142    0.00000000   -0.00000125
     atom    8 type  1   force =     0.00000000    0.00001057    0.00000439
     atom    9 type  1   force =     0.00000000    0.00000000    0.00000000
     atom   10 type  1   force =    -0.00000343   -0.00000877    0.00000000
     atom   11 type  1   force =    -0.00000808   -0.00000000   -0.00000479
     atom   12 type  1   force =     0.00000000   -0.00001057   -0.00000439
     atom   13 type  1   force =     0.00000000    0.00000000    0.00000000
     atom   14 type  1   force =    -0.00000274   -0.00000503    0.00000000
     atom   15 type  1   force =    -0.00000808    0.00000000    0.00000479
     atom   16 type  1   force =    -0.00000000   -0.00001057    0.00000439
     atom   17 type  1   force =     0.00000000    0.00000000    0.00000000
     atom   18 type  1   force =     0.00000343    0.00000877    0.00000000
     atom   19 type  1   force =     0.00000142    0.00000000    0.00000125
     atom   20 type  1   force =     0.00000000    0.00000316   -0.00000007
     atom   21 type  1   force =     0.00000000    0.00000000    0.00000000
     atom   22 type  1   force =     0.00000274    0.00000503    0.00000000
     atom   23 type  1   force =     0.00000142    0.00000000   -0.00000125
     atom   24 type  1   force =     0.00000000    0.00000316    0.00000007
     atom   25 type  1   force =     0.00000000    0.00000000    0.00000000
     atom   26 type  1   force =     0.00000343   -0.00000877   -0.00000000
     atom   27 type  1   force =     0.00000808    0.00000000   -0.00000479
     atom   28 type  1   force =     0.00000000   -0.00000316   -0.00000007
     atom   29 type  1   force =     0.00000000    0.00000000    0.00000000
     atom   30 type  1   force =     0.00000274   -0.00000503   -0.00000000
     atom   31 type  1   force =     0.00000808   -0.00000000    0.00000479
     atom   32 type  1   force =     0.00000000   -0.00000316    0.00000007

     Total force =     0.000038     Total SCF correction =     0.000135
     SCF correction compared to forces is large: reduce conv_thr to get better values


     Computing stress (Cartesian axis) and pressure

          total   stress  (Ry/bohr**3)                   (kbar)     P=    0.08
  -0.00000347   0.00000000   0.00000000         -0.51      0.00      0.00
   0.00000000   0.00000057   0.00000000          0.00      0.08      0.00
   0.00000000   0.00000000   0.00000456          0.00      0.00      0.67


     Writing output data file QOfokkSoLGAnkQOB.save/
 
     init_run     :     30.79s CPU     31.50s WALL (       1 calls)
     electrons    :    528.87s CPU    540.14s WALL (       1 calls)
     forces       :      6.37s CPU      6.62s WALL (       1 calls)
     stress       :     41.10s CPU     41.33s WALL (       1 calls)

     Called by init_run:
     wfcinit      :     30.42s CPU     31.10s WALL (       1 calls)
     potinit      :      0.12s CPU      0.13s WALL (       1 calls)
     hinit0       :      0.14s CPU      0.15s WALL (       1 calls)

     Called by electrons:
     c_bands      :    460.23s CPU    469.53s WALL (      11 calls)
     sum_band     :     67.71s CPU     69.59s WALL (      11 calls)
     v_of_rho     :      0.15s CPU      0.17s WALL (      11 calls)
     newd         :      0.11s CPU      0.16s WALL (      11 calls)
     PAW_pot      :      0.71s CPU      0.72s WALL (      11 calls)
     mix_rho      :      0.04s CPU      0.04s WALL (      11 calls)

     Called by c_bands:
     init_us_2    :      9.89s CPU     10.09s WALL (    5400 calls)
     cegterg      :    432.79s CPU    441.72s WALL (    2376 calls)

     Called by sum_band:
     sum_band:bec :      0.28s CPU      0.29s WALL (    2376 calls)
     addusdens    :      0.09s CPU      0.13s WALL (      11 calls)

     Called by *egterg:
     h_psi        :    320.67s CPU    328.45s WALL (    8650 calls)
     s_psi        :     30.45s CPU     30.61s WALL (    8650 calls)
     g_psi        :      1.71s CPU      1.72s WALL (    6058 calls)
     cdiaghg      :     48.79s CPU     48.99s WALL (    8218 calls)

     Called by h_psi:
     h_psi:pot    :    319.18s CPU    326.94s WALL (    8650 calls)
     h_psi:calbec :     32.24s CPU     33.89s WALL (    8650 calls)
     vloc_psi     :    256.76s CPU    262.71s WALL (    8650 calls)
     add_vuspsi   :     30.11s CPU     30.29s WALL (    8650 calls)

     General routines
     calbec       :     48.94s CPU     51.47s WALL (   12106 calls)
     fft          :      0.18s CPU      0.20s WALL (     148 calls)
     ffts         :      0.01s CPU      0.01s WALL (      11 calls)
     fftw         :    282.39s CPU    288.78s WALL (  888356 calls)
 
     Parallel routines
     fft_scatt_xy :     28.63s CPU     29.26s WALL (  888515 calls)
     fft_scatt_yz :    136.37s CPU    139.67s WALL (  888515 calls)
 
     PWSCF        : 10m13.26s CPU    10m51.16s WALL

 
   This run was terminated on:   0:32:47  26Mar2020            

=------------------------------------------------------------------------------=
   JOB DONE.
=------------------------------------------------------------------------------=
