
     Program PWSCF v.6.3 starts on 26Mar2020 at  0:43:34 

     This program is part of the open-source Quantum ESPRESSO suite
     for quantum simulation of materials; please cite
         "P. Giannozzi et al., J. Phys.:Condens. Matter 21 395502 (2009);
         "P. Giannozzi et al., J. Phys.:Condens. Matter 29 465901 (2017);
          URL http://www.quantum-espresso.org", 
     in publications or presentations arising from this work. More details at
     http://www.quantum-espresso.org/quote

     Parallel version (MPI & OpenMP), running on      20 processor cores
     Number of MPI processes:                20
     Threads/MPI process:                     1

     MPI processes distributed on     1 nodes
     R & G space division:  proc/nbgrp/npool/nimage =      20
     Reading input from /rds/homes/b/bxp912/jobs/20200324_al_eos_e/wd/pwscf_ec/ec_8_4.in
Warning: card &IONS ignored
Warning: card ION_DYNAMICS = 'BFGS', ignored
Warning: card / ignored
Warning: card &CELL ignored
Warning: card CELL_DYNAMICS = 'BFGS', ignored
Warning: card CELL_FACTOR = 2.0, ignored
Warning: card PRESS = 0.0, ignored
Warning: card / ignored

     Current dimensions of program PWSCF are:
     Max number of different atomic species (ntypx) = 10
     Max number of k-points (npk) =  40000
     Max angular momentum in pseudopotentials (lmaxx) =  3
     Message from routine read_upf::
     Pseudo file /rds/homes/b/bxp912/pp/Al.pbe-nl-kjpaw_psl.1.0.0.UPF has been successfully fixed on the fly.
To avoid this message in the future you can permanently fix 
 your pseudo files following instructions given in: 
https://gitlab.com/QEF/q-e/blob/master/upftools/how_to_fix_upf.md
               file Al.pbe-nl-kjpaw_psl.1.0.0.UPF: wavefunction(s)  3S 3P renormalized

     Subspace diagonalization in iterative solution of the eigenvalue problem:
     a serial algorithm will be used

     Found symmetry operation: I + (  0.2500  0.2500  0.0000)
     This is a supercell, fractional translations are disabled
 
     Parallelization info
     --------------------
     sticks:   dense  smooth     PW     G-vecs:    dense   smooth      PW
     Min         185     185     51                 8493     8493    1231
     Max         186     186     52                 8500     8500    1232
     Sum        3709    3709   1033               169925   169925   24633
 


     bravais-lattice index     =            0
     lattice parameter (alat)  =      15.2652  a.u.
     unit-cell volume          =    3557.1654 (a.u.)^3
     number of atoms/cell      =           32
     number of atomic types    =            1
     number of electrons       =        96.00
     number of Kohn-Sham states=           58
     kinetic-energy cutoff     =      50.0000  Ry
     charge density cutoff     =     200.0000  Ry
     convergence threshold     =      1.0E-06
     mixing beta               =       0.1000
     number of iterations used =           10  plain     mixing
     Exchange-correlation      = SLA PW PBX PBC ( 1  4  3  4 0 0)

     celldm(1)=  15.265160  celldm(2)=   0.000000  celldm(3)=   0.000000
     celldm(4)=   0.000000  celldm(5)=   0.000000  celldm(6)=   0.000000

     crystal axes: (cart. coord. in units of alat)
               a(1) = (   1.002224   0.000000   0.000000 )  
               a(2) = (   0.000000   1.000002   0.000000 )  
               a(3) = (   0.000000   0.000000   0.997779 )  

     reciprocal axes: (cart. coord. in units 2 pi/alat)
               b(1) = (  0.997781  0.000000  0.000000 )  
               b(2) = (  0.000000  0.999998  0.000000 )  
               b(3) = (  0.000000  0.000000  1.002226 )  


     PseudoPot. # 1 for Al read from file:
     /rds/homes/b/bxp912/pp/Al.pbe-nl-kjpaw_psl.1.0.0.UPF
     MD5 check sum: 339dbea23cf3ab9a065ad45c0f9085d7
     Pseudo is Projector augmented-wave + core cor, Zval =  3.0
     Generated using "atomic" code by A. Dal Corso v.5.1
     Shape of augmentation charge: PSQ
     Using radial grid of 1135 points,  4 beta functions with: 
                l(1) =   0
                l(2) =   0
                l(3) =   1
                l(4) =   1
     Q(r) pseudized with 0 coefficients 


     atomic species   valence    mass     pseudopotential
        Al             3.00    26.98200     Al( 1.00)

      8 Sym. Ops., with inversion, found



   Cartesian axes

     site n.     atom                  positions (alat units)
         1           Al  tau(   1) = (   0.0000000   0.0000000   0.0000000  )
         2           Al  tau(   2) = (   0.2505560   0.2500004   0.0000000  )
         3           Al  tau(   3) = (   0.2505560   0.0000000   0.2494449  )
         4           Al  tau(   4) = (   0.0000000   0.2500004   0.2494449  )
         5           Al  tau(   5) = (   0.0000000   0.0000000   0.4988897  )
         6           Al  tau(   6) = (   0.2505560   0.2500004   0.4988897  )
         7           Al  tau(   7) = (   0.2505560   0.0000000   0.7483346  )
         8           Al  tau(   8) = (   0.0000000   0.2500004   0.7483346  )
         9           Al  tau(   9) = (   0.0000000   0.5000008   0.0000000  )
        10           Al  tau(  10) = (   0.2505560   0.7500012   0.0000000  )
        11           Al  tau(  11) = (   0.2505560   0.5000008   0.2494449  )
        12           Al  tau(  12) = (   0.0000000   0.7500012   0.2494449  )
        13           Al  tau(  13) = (   0.0000000   0.5000008   0.4988897  )
        14           Al  tau(  14) = (   0.2505560   0.7500012   0.4988897  )
        15           Al  tau(  15) = (   0.2505560   0.5000008   0.7483346  )
        16           Al  tau(  16) = (   0.0000000   0.7500012   0.7483346  )
        17           Al  tau(  17) = (   0.5011119   0.0000000   0.0000000  )
        18           Al  tau(  18) = (   0.7516679   0.2500004   0.0000000  )
        19           Al  tau(  19) = (   0.7516679   0.0000000   0.2494449  )
        20           Al  tau(  20) = (   0.5011119   0.2500004   0.2494449  )
        21           Al  tau(  21) = (   0.5011119   0.0000000   0.4988897  )
        22           Al  tau(  22) = (   0.7516679   0.2500004   0.4988897  )
        23           Al  tau(  23) = (   0.7516679   0.0000000   0.7483346  )
        24           Al  tau(  24) = (   0.5011119   0.2500004   0.7483346  )
        25           Al  tau(  25) = (   0.5011119   0.5000008   0.0000000  )
        26           Al  tau(  26) = (   0.7516679   0.7500012   0.0000000  )
        27           Al  tau(  27) = (   0.7516679   0.5000008   0.2494449  )
        28           Al  tau(  28) = (   0.5011119   0.7500012   0.2494449  )
        29           Al  tau(  29) = (   0.5011119   0.5000008   0.4988897  )
        30           Al  tau(  30) = (   0.7516679   0.7500012   0.4988897  )
        31           Al  tau(  31) = (   0.7516679   0.5000008   0.7483346  )
        32           Al  tau(  32) = (   0.5011119   0.7500012   0.7483346  )

     number of k points=   216  Marzari-Vanderbilt smearing, width (Ry)=  0.0400

     Number of k-points >= 100: set verbosity='high' to print them.

     Dense  grid:   169925 G-vectors     FFT dimensions: (  72,  72,  72)

     Estimated max dynamical RAM per process >     232.02 MB

     Estimated total dynamical RAM >       4.53 GB

     Initial potential from superposition of free atoms

     starting charge   95.92671, renormalised to   96.00000
     Starting wfcs are  128 randomized atomic wfcs
     Checking if some PAW data can be deallocated... 

     total cpu time spent up to now is       39.7 secs

     Self-consistent Calculation

     iteration #  1     ecut=    50.00 Ry     beta= 0.10
     Davidson diagonalization with overlap
     ethr =  1.00E-02,  avg # of iterations =  3.1

     Threshold (ethr) on eigenvalues was too large:
     Diagonalizing with lowered threshold

     Davidson diagonalization with overlap
     ethr =  1.91E-04,  avg # of iterations =  4.6

     total cpu time spent up to now is      159.8 secs

     total energy              =   -1264.12495813 Ry
     Harris-Foulkes estimate   =   -1264.13446971 Ry
     estimated scf accuracy    <       0.17937509 Ry

     iteration #  2     ecut=    50.00 Ry     beta= 0.10
     Davidson diagonalization with overlap
     ethr =  1.87E-04,  avg # of iterations =  1.1

     total cpu time spent up to now is      195.7 secs

     total energy              =   -1264.08389004 Ry
     Harris-Foulkes estimate   =   -1264.12573998 Ry
     estimated scf accuracy    <       0.14409959 Ry

     iteration #  3     ecut=    50.00 Ry     beta= 0.10
     Davidson diagonalization with overlap
     ethr =  1.50E-04,  avg # of iterations =  1.0

     total cpu time spent up to now is      232.0 secs

     total energy              =   -1264.08664701 Ry
     Harris-Foulkes estimate   =   -1264.08665504 Ry
     estimated scf accuracy    <       0.00025123 Ry

     iteration #  4     ecut=    50.00 Ry     beta= 0.10
     Davidson diagonalization with overlap
     c_bands:  1 eigenvalues not converged
     c_bands:  1 eigenvalues not converged
     c_bands:  2 eigenvalues not converged
     c_bands:  1 eigenvalues not converged
     c_bands:  2 eigenvalues not converged
     c_bands:  1 eigenvalues not converged
     c_bands:  1 eigenvalues not converged
     c_bands:  1 eigenvalues not converged
     c_bands:  1 eigenvalues not converged
     c_bands:  1 eigenvalues not converged
     c_bands:  1 eigenvalues not converged
     c_bands:  1 eigenvalues not converged
     c_bands:  1 eigenvalues not converged
     c_bands:  2 eigenvalues not converged
     c_bands:  2 eigenvalues not converged
     ethr =  2.62E-07,  avg # of iterations =  7.4

     total cpu time spent up to now is      317.3 secs

     total energy              =   -1264.08754604 Ry
     Harris-Foulkes estimate   =   -1264.08750497 Ry
     estimated scf accuracy    <       0.00021797 Ry

     iteration #  5     ecut=    50.00 Ry     beta= 0.10
     Davidson diagonalization with overlap
     ethr =  2.27E-07,  avg # of iterations =  1.5

     total cpu time spent up to now is      354.5 secs

     total energy              =   -1264.08742315 Ry
     Harris-Foulkes estimate   =   -1264.08754715 Ry
     estimated scf accuracy    <       0.00030683 Ry

     iteration #  6     ecut=    50.00 Ry     beta= 0.10
     Davidson diagonalization with overlap
     ethr =  2.27E-07,  avg # of iterations =  1.0

     total cpu time spent up to now is      390.7 secs

     total energy              =   -1264.08742942 Ry
     Harris-Foulkes estimate   =   -1264.08743467 Ry
     estimated scf accuracy    <       0.00001643 Ry

     iteration #  7     ecut=    50.00 Ry     beta= 0.10
     Davidson diagonalization with overlap
     c_bands:  1 eigenvalues not converged
     c_bands:  1 eigenvalues not converged
     ethr =  1.71E-08,  avg # of iterations =  4.2

     total cpu time spent up to now is      451.8 secs

     total energy              =   -1264.08743419 Ry
     Harris-Foulkes estimate   =   -1264.08743375 Ry
     estimated scf accuracy    <       0.00000481 Ry

     iteration #  8     ecut=    50.00 Ry     beta= 0.10
     Davidson diagonalization with overlap
     ethr =  5.01E-09,  avg # of iterations =  1.4

     total cpu time spent up to now is      488.9 secs

     total energy              =   -1264.08743366 Ry
     Harris-Foulkes estimate   =   -1264.08743438 Ry
     estimated scf accuracy    <       0.00000867 Ry

     iteration #  9     ecut=    50.00 Ry     beta= 0.10
     Davidson diagonalization with overlap
     ethr =  5.01E-09,  avg # of iterations =  1.0

     total cpu time spent up to now is      524.7 secs

     total energy              =   -1264.08743260 Ry
     Harris-Foulkes estimate   =   -1264.08743381 Ry
     estimated scf accuracy    <       0.00000536 Ry

     iteration # 10     ecut=    50.00 Ry     beta= 0.10
     Davidson diagonalization with overlap
     ethr =  5.01E-09,  avg # of iterations =  2.5

     total cpu time spent up to now is      567.5 secs

     End of self-consistent calculation

     Number of k-points >= 100: set verbosity='high' to print the bands.

     the Fermi energy is     7.9284 ev

!    total energy              =   -1264.08743294 Ry
     Harris-Foulkes estimate   =   -1264.08743307 Ry
     estimated scf accuracy    <       0.00000027 Ry

     total all-electron energy =    -15540.656455 Ry

     The total energy is the sum of the following terms:

     one-electron contribution =     101.33572034 Ry
     hartree contribution      =       0.19687079 Ry
     xc contribution           =     -82.93447279 Ry
     ewald contribution        =    -173.00047870 Ry
     one-center paw contrib.   =   -1109.68232113 Ry
     smearing contrib. (-TS)   =      -0.00275145 Ry

     convergence has been achieved in  10 iterations

     Forces acting on atoms (cartesian axes, Ry/au):

     atom    1 type  1   force =     0.00000000    0.00000000    0.00000000
     atom    2 type  1   force =    -0.00000793    0.00002125    0.00000000
     atom    3 type  1   force =    -0.00000669    0.00000000    0.00000065
     atom    4 type  1   force =     0.00000000    0.00002048   -0.00000544
     atom    5 type  1   force =     0.00000000    0.00000000    0.00000000
     atom    6 type  1   force =    -0.00000780    0.00001540   -0.00000000
     atom    7 type  1   force =    -0.00000669    0.00000000   -0.00000065
     atom    8 type  1   force =     0.00000000    0.00002048    0.00000544
     atom    9 type  1   force =     0.00000000    0.00000000    0.00000000
     atom   10 type  1   force =    -0.00000793   -0.00002125    0.00000000
     atom   11 type  1   force =    -0.00001104    0.00000000   -0.00000793
     atom   12 type  1   force =    -0.00000000   -0.00002048   -0.00000544
     atom   13 type  1   force =     0.00000000    0.00000000    0.00000000
     atom   14 type  1   force =    -0.00000780   -0.00001540    0.00000000
     atom   15 type  1   force =    -0.00001104    0.00000000    0.00000793
     atom   16 type  1   force =     0.00000000   -0.00002048    0.00000544
     atom   17 type  1   force =     0.00000000    0.00000000    0.00000000
     atom   18 type  1   force =     0.00000793    0.00002125    0.00000000
     atom   19 type  1   force =     0.00000669    0.00000000    0.00000065
     atom   20 type  1   force =     0.00000000    0.00001580   -0.00000160
     atom   21 type  1   force =     0.00000000    0.00000000    0.00000000
     atom   22 type  1   force =     0.00000780    0.00001540    0.00000000
     atom   23 type  1   force =     0.00000669    0.00000000   -0.00000065
     atom   24 type  1   force =     0.00000000    0.00001580    0.00000160
     atom   25 type  1   force =     0.00000000    0.00000000    0.00000000
     atom   26 type  1   force =     0.00000793   -0.00002125    0.00000000
     atom   27 type  1   force =     0.00001104    0.00000000   -0.00000793
     atom   28 type  1   force =     0.00000000   -0.00001580   -0.00000160
     atom   29 type  1   force =     0.00000000    0.00000000    0.00000000
     atom   30 type  1   force =     0.00000780   -0.00001540   -0.00000000
     atom   31 type  1   force =     0.00001104    0.00000000    0.00000793
     atom   32 type  1   force =     0.00000000   -0.00001580    0.00000160

     Total force =     0.000084     Total SCF correction =     0.000426
     SCF correction compared to forces is large: reduce conv_thr to get better values


     Computing stress (Cartesian axis) and pressure

          total   stress  (Ry/bohr**3)                   (kbar)     P=    0.09
  -0.00000745   0.00000000   0.00000000         -1.10      0.00      0.00
   0.00000000   0.00000065   0.00000000          0.00      0.10      0.00
   0.00000000   0.00000000   0.00000869          0.00      0.00      1.28


     Writing output data file TJBOvUKbHDEFrIpx.save/
 
     init_run     :     37.63s CPU     39.15s WALL (       1 calls)
     electrons    :    517.57s CPU    527.77s WALL (       1 calls)
     forces       :      6.43s CPU      6.62s WALL (       1 calls)
     stress       :     40.96s CPU     41.03s WALL (       1 calls)

     Called by init_run:
     wfcinit      :     37.27s CPU     38.76s WALL (       1 calls)
     potinit      :      0.13s CPU      0.13s WALL (       1 calls)
     hinit0       :      0.13s CPU      0.15s WALL (       1 calls)

     Called by electrons:
     c_bands      :    451.35s CPU    459.78s WALL (      11 calls)
     sum_band     :     65.29s CPU     66.97s WALL (      11 calls)
     v_of_rho     :      0.14s CPU      0.15s WALL (      11 calls)
     newd         :      0.11s CPU      0.15s WALL (      11 calls)
     PAW_pot      :      0.72s CPU      0.72s WALL (      11 calls)
     mix_rho      :      0.04s CPU      0.04s WALL (      11 calls)

     Called by c_bands:
     init_us_2    :      9.82s CPU     10.01s WALL (    5400 calls)
     cegterg      :    424.51s CPU    432.63s WALL (    2376 calls)

     Called by sum_band:
     sum_band:bec :      0.28s CPU      0.29s WALL (    2376 calls)
     addusdens    :      0.09s CPU      0.13s WALL (      11 calls)

     Called by *egterg:
     h_psi        :    319.26s CPU    327.19s WALL (    8825 calls)
     s_psi        :     30.21s CPU     30.32s WALL (    8825 calls)
     g_psi        :      1.69s CPU      1.70s WALL (    6233 calls)
     cdiaghg      :     49.88s CPU     50.05s WALL (    8393 calls)

     Called by h_psi:
     h_psi:pot    :    317.81s CPU    325.72s WALL (    8825 calls)
     h_psi:calbec :     31.81s CPU     33.40s WALL (    8825 calls)
     vloc_psi     :    256.13s CPU    262.33s WALL (    8825 calls)
     add_vuspsi   :     29.78s CPU     29.93s WALL (    8825 calls)

     General routines
     calbec       :     48.04s CPU     50.38s WALL (   12281 calls)
     fft          :      0.17s CPU      0.19s WALL (     148 calls)
     ffts         :      0.01s CPU      0.01s WALL (      11 calls)
     fftw         :    279.67s CPU    286.16s WALL (  888544 calls)
 
     Parallel routines
     fft_scatt_xy :     28.88s CPU     29.52s WALL (  888703 calls)
     fft_scatt_yz :    132.37s CPU    135.78s WALL (  888703 calls)
 
     PWSCF        : 10m 8.83s CPU    10m46.35s WALL

 
   This run was terminated on:   0:54:20  26Mar2020            

=------------------------------------------------------------------------------=
   JOB DONE.
=------------------------------------------------------------------------------=
