
     Program PWSCF v.6.3 starts on 26Mar2020 at  0:54:21 

     This program is part of the open-source Quantum ESPRESSO suite
     for quantum simulation of materials; please cite
         "P. Giannozzi et al., J. Phys.:Condens. Matter 21 395502 (2009);
         "P. Giannozzi et al., J. Phys.:Condens. Matter 29 465901 (2017);
          URL http://www.quantum-espresso.org", 
     in publications or presentations arising from this work. More details at
     http://www.quantum-espresso.org/quote

     Parallel version (MPI & OpenMP), running on      20 processor cores
     Number of MPI processes:                20
     Threads/MPI process:                     1

     MPI processes distributed on     1 nodes
     R & G space division:  proc/nbgrp/npool/nimage =      20
     Reading input from /rds/homes/b/bxp912/jobs/20200324_al_eos_e/wd/pwscf_ec/ec_8_5.in
Warning: card &IONS ignored
Warning: card ION_DYNAMICS = 'BFGS', ignored
Warning: card / ignored
Warning: card &CELL ignored
Warning: card CELL_DYNAMICS = 'BFGS', ignored
Warning: card CELL_FACTOR = 2.0, ignored
Warning: card PRESS = 0.0, ignored
Warning: card / ignored

     Current dimensions of program PWSCF are:
     Max number of different atomic species (ntypx) = 10
     Max number of k-points (npk) =  40000
     Max angular momentum in pseudopotentials (lmaxx) =  3
     Message from routine read_upf::
     Pseudo file /rds/homes/b/bxp912/pp/Al.pbe-nl-kjpaw_psl.1.0.0.UPF has been successfully fixed on the fly.
To avoid this message in the future you can permanently fix 
 your pseudo files following instructions given in: 
https://gitlab.com/QEF/q-e/blob/master/upftools/how_to_fix_upf.md
               file Al.pbe-nl-kjpaw_psl.1.0.0.UPF: wavefunction(s)  3S 3P renormalized

     Subspace diagonalization in iterative solution of the eigenvalue problem:
     a serial algorithm will be used

     Found symmetry operation: I + (  0.2500  0.2500  0.0000)
     This is a supercell, fractional translations are disabled
 
     Parallelization info
     --------------------
     sticks:   dense  smooth     PW     G-vecs:    dense   smooth      PW
     Min         185     185     51                 8495     8495    1231
     Max         186     186     52                 8500     8500    1234
     Sum        3713    3713   1033               169945   169945   24635
 


     bravais-lattice index     =            0
     lattice parameter (alat)  =      15.2652  a.u.
     unit-cell volume          =    3557.1654 (a.u.)^3
     number of atoms/cell      =           32
     number of atomic types    =            1
     number of electrons       =        96.00
     number of Kohn-Sham states=           58
     kinetic-energy cutoff     =      50.0000  Ry
     charge density cutoff     =     200.0000  Ry
     convergence threshold     =      1.0E-06
     mixing beta               =       0.1000
     number of iterations used =           10  plain     mixing
     Exchange-correlation      = SLA PW PBX PBC ( 1  4  3  4 0 0)

     celldm(1)=  15.265160  celldm(2)=   0.000000  celldm(3)=   0.000000
     celldm(4)=   0.000000  celldm(5)=   0.000000  celldm(6)=   0.000000

     crystal axes: (cart. coord. in units of alat)
               a(1) = (   1.002780   0.000000   0.000000 )  
               a(2) = (   0.000000   1.000003   0.000000 )  
               a(3) = (   0.000000   0.000000   0.997225 )  

     reciprocal axes: (cart. coord. in units 2 pi/alat)
               b(1) = (  0.997227  0.000000  0.000000 )  
               b(2) = (  0.000000  0.999997  0.000000 )  
               b(3) = (  0.000000  0.000000  1.002783 )  


     PseudoPot. # 1 for Al read from file:
     /rds/homes/b/bxp912/pp/Al.pbe-nl-kjpaw_psl.1.0.0.UPF
     MD5 check sum: 339dbea23cf3ab9a065ad45c0f9085d7
     Pseudo is Projector augmented-wave + core cor, Zval =  3.0
     Generated using "atomic" code by A. Dal Corso v.5.1
     Shape of augmentation charge: PSQ
     Using radial grid of 1135 points,  4 beta functions with: 
                l(1) =   0
                l(2) =   0
                l(3) =   1
                l(4) =   1
     Q(r) pseudized with 0 coefficients 


     atomic species   valence    mass     pseudopotential
        Al             3.00    26.98200     Al( 1.00)

      8 Sym. Ops., with inversion, found



   Cartesian axes

     site n.     atom                  positions (alat units)
         1           Al  tau(   1) = (   0.0000000   0.0000000   0.0000000  )
         2           Al  tau(   2) = (   0.2506951   0.2500006   0.0000000  )
         3           Al  tau(   3) = (   0.2506951   0.0000000   0.2493062  )
         4           Al  tau(   4) = (   0.0000000   0.2500006   0.2493062  )
         5           Al  tau(   5) = (   0.0000000   0.0000000   0.4986124  )
         6           Al  tau(   6) = (   0.2506951   0.2500006   0.4986124  )
         7           Al  tau(   7) = (   0.2506951   0.0000000   0.7479186  )
         8           Al  tau(   8) = (   0.0000000   0.2500006   0.7479186  )
         9           Al  tau(   9) = (   0.0000000   0.5000013   0.0000000  )
        10           Al  tau(  10) = (   0.2506951   0.7500019   0.0000000  )
        11           Al  tau(  11) = (   0.2506951   0.5000013   0.2493062  )
        12           Al  tau(  12) = (   0.0000000   0.7500019   0.2493062  )
        13           Al  tau(  13) = (   0.0000000   0.5000013   0.4986124  )
        14           Al  tau(  14) = (   0.2506951   0.7500019   0.4986124  )
        15           Al  tau(  15) = (   0.2506951   0.5000013   0.7479186  )
        16           Al  tau(  16) = (   0.0000000   0.7500019   0.7479186  )
        17           Al  tau(  17) = (   0.5013902   0.0000000   0.0000000  )
        18           Al  tau(  18) = (   0.7520853   0.2500006   0.0000000  )
        19           Al  tau(  19) = (   0.7520853   0.0000000   0.2493062  )
        20           Al  tau(  20) = (   0.5013902   0.2500006   0.2493062  )
        21           Al  tau(  21) = (   0.5013902   0.0000000   0.4986124  )
        22           Al  tau(  22) = (   0.7520853   0.2500006   0.4986124  )
        23           Al  tau(  23) = (   0.7520853   0.0000000   0.7479186  )
        24           Al  tau(  24) = (   0.5013902   0.2500006   0.7479186  )
        25           Al  tau(  25) = (   0.5013902   0.5000013   0.0000000  )
        26           Al  tau(  26) = (   0.7520853   0.7500019   0.0000000  )
        27           Al  tau(  27) = (   0.7520853   0.5000013   0.2493062  )
        28           Al  tau(  28) = (   0.5013902   0.7500019   0.2493062  )
        29           Al  tau(  29) = (   0.5013902   0.5000013   0.4986124  )
        30           Al  tau(  30) = (   0.7520853   0.7500019   0.4986124  )
        31           Al  tau(  31) = (   0.7520853   0.5000013   0.7479186  )
        32           Al  tau(  32) = (   0.5013902   0.7500019   0.7479186  )

     number of k points=   216  Marzari-Vanderbilt smearing, width (Ry)=  0.0400

     Number of k-points >= 100: set verbosity='high' to print them.

     Dense  grid:   169945 G-vectors     FFT dimensions: (  72,  72,  72)

     Estimated max dynamical RAM per process >     232.03 MB

     Estimated total dynamical RAM >       4.53 GB

     Initial potential from superposition of free atoms

     starting charge   95.92671, renormalised to   96.00000
     Starting wfcs are  128 randomized atomic wfcs
     Checking if some PAW data can be deallocated... 

     total cpu time spent up to now is       32.6 secs

     Self-consistent Calculation

     iteration #  1     ecut=    50.00 Ry     beta= 0.10
     Davidson diagonalization with overlap
     ethr =  1.00E-02,  avg # of iterations =  3.1

     Threshold (ethr) on eigenvalues was too large:
     Diagonalizing with lowered threshold

     Davidson diagonalization with overlap
     ethr =  1.91E-04,  avg # of iterations =  4.7

     total cpu time spent up to now is      152.7 secs

     total energy              =   -1264.12492077 Ry
     Harris-Foulkes estimate   =   -1264.13443234 Ry
     estimated scf accuracy    <       0.17937794 Ry

     iteration #  2     ecut=    50.00 Ry     beta= 0.10
     Davidson diagonalization with overlap
     ethr =  1.87E-04,  avg # of iterations =  1.1

     total cpu time spent up to now is      189.3 secs

     total energy              =   -1264.08385299 Ry
     Harris-Foulkes estimate   =   -1264.12569879 Ry
     estimated scf accuracy    <       0.14409337 Ry

     iteration #  3     ecut=    50.00 Ry     beta= 0.10
     Davidson diagonalization with overlap
     ethr =  1.50E-04,  avg # of iterations =  1.0

     total cpu time spent up to now is      235.4 secs

     total energy              =   -1264.08661043 Ry
     Harris-Foulkes estimate   =   -1264.08661757 Ry
     estimated scf accuracy    <       0.00025096 Ry

     iteration #  4     ecut=    50.00 Ry     beta= 0.10
     Davidson diagonalization with overlap
     c_bands:  1 eigenvalues not converged
     c_bands:  2 eigenvalues not converged
     c_bands:  1 eigenvalues not converged
     c_bands:  3 eigenvalues not converged
     c_bands:  1 eigenvalues not converged
     c_bands:  1 eigenvalues not converged
     c_bands:  1 eigenvalues not converged
     c_bands:  1 eigenvalues not converged
     c_bands:  1 eigenvalues not converged
     c_bands:  1 eigenvalues not converged
     c_bands:  1 eigenvalues not converged
     c_bands:  1 eigenvalues not converged
     c_bands:  1 eigenvalues not converged
     c_bands:  2 eigenvalues not converged
     c_bands:  2 eigenvalues not converged
     c_bands:  2 eigenvalues not converged
     c_bands:  1 eigenvalues not converged
     c_bands:  1 eigenvalues not converged
     ethr =  2.61E-07,  avg # of iterations =  7.5

     total cpu time spent up to now is      333.3 secs

     total energy              =   -1264.08750979 Ry
     Harris-Foulkes estimate   =   -1264.08746945 Ry
     estimated scf accuracy    <       0.00021837 Ry

     iteration #  5     ecut=    50.00 Ry     beta= 0.10
     Davidson diagonalization with overlap
     c_bands:  1 eigenvalues not converged
     c_bands:  1 eigenvalues not converged
     c_bands:  1 eigenvalues not converged
     c_bands:  1 eigenvalues not converged
     ethr =  2.27E-07,  avg # of iterations =  1.8

     total cpu time spent up to now is      372.0 secs

     total energy              =   -1264.08738728 Ry
     Harris-Foulkes estimate   =   -1264.08751089 Ry
     estimated scf accuracy    <       0.00030568 Ry

     iteration #  6     ecut=    50.00 Ry     beta= 0.10
     Davidson diagonalization with overlap
     c_bands:  2 eigenvalues not converged
     c_bands:  1 eigenvalues not converged
     ethr =  2.27E-07,  avg # of iterations =  1.2

     total cpu time spent up to now is      408.9 secs

     total energy              =   -1264.08739351 Ry
     Harris-Foulkes estimate   =   -1264.08739876 Ry
     estimated scf accuracy    <       0.00001655 Ry

     iteration #  7     ecut=    50.00 Ry     beta= 0.10
     Davidson diagonalization with overlap
     c_bands:  2 eigenvalues not converged
     ethr =  1.72E-08,  avg # of iterations =  4.3

     total cpu time spent up to now is      470.0 secs

     total energy              =   -1264.08739838 Ry
     Harris-Foulkes estimate   =   -1264.08739788 Ry
     estimated scf accuracy    <       0.00000489 Ry

     iteration #  8     ecut=    50.00 Ry     beta= 0.10
     Davidson diagonalization with overlap
     c_bands:  2 eigenvalues not converged
     ethr =  5.09E-09,  avg # of iterations =  1.6

     total cpu time spent up to now is      508.7 secs

     total energy              =   -1264.08739773 Ry
     Harris-Foulkes estimate   =   -1264.08739858 Ry
     estimated scf accuracy    <       0.00000919 Ry

     iteration #  9     ecut=    50.00 Ry     beta= 0.10
     Davidson diagonalization with overlap
     ethr =  5.09E-09,  avg # of iterations =  1.1

     total cpu time spent up to now is      545.3 secs

     total energy              =   -1264.08739679 Ry
     Harris-Foulkes estimate   =   -1264.08739790 Ry
     estimated scf accuracy    <       0.00000533 Ry

     iteration # 10     ecut=    50.00 Ry     beta= 0.10
     Davidson diagonalization with overlap
     ethr =  5.09E-09,  avg # of iterations =  2.5

     total cpu time spent up to now is      586.8 secs

     End of self-consistent calculation

     Number of k-points >= 100: set verbosity='high' to print the bands.

     the Fermi energy is     7.9284 ev

!    total energy              =   -1264.08739690 Ry
     Harris-Foulkes estimate   =   -1264.08739718 Ry
     estimated scf accuracy    <       0.00000047 Ry

     total all-electron energy =    -15540.656419 Ry

     The total energy is the sum of the following terms:

     one-electron contribution =     101.33584143 Ry
     hartree contribution      =       0.19686263 Ry
     xc contribution           =     -82.93450929 Ry
     ewald contribution        =    -173.00045651 Ry
     one-center paw contrib.   =   -1109.68238028 Ry
     smearing contrib. (-TS)   =      -0.00275487 Ry

     convergence has been achieved in  10 iterations

     Forces acting on atoms (cartesian axes, Ry/au):

     atom    1 type  1   force =     0.00000000    0.00000000    0.00000000
     atom    2 type  1   force =    -0.00001239    0.00003530    0.00000000
     atom    3 type  1   force =    -0.00001439    0.00000000    0.00000162
     atom    4 type  1   force =     0.00000000    0.00002854   -0.00000590
     atom    5 type  1   force =     0.00000000    0.00000000    0.00000000
     atom    6 type  1   force =    -0.00001521    0.00002379    0.00000000
     atom    7 type  1   force =    -0.00001439    0.00000000   -0.00000162
     atom    8 type  1   force =     0.00000000    0.00002854    0.00000590
     atom    9 type  1   force =     0.00000000    0.00000000    0.00000000
     atom   10 type  1   force =    -0.00001239   -0.00003530    0.00000000
     atom   11 type  1   force =    -0.00001339   -0.00000000   -0.00001261
     atom   12 type  1   force =     0.00000000   -0.00002854   -0.00000590
     atom   13 type  1   force =     0.00000000    0.00000000    0.00000000
     atom   14 type  1   force =    -0.00001521   -0.00002379   -0.00000000
     atom   15 type  1   force =    -0.00001339    0.00000000    0.00001261
     atom   16 type  1   force =     0.00000000   -0.00002854    0.00000590
     atom   17 type  1   force =     0.00000000    0.00000000    0.00000000
     atom   18 type  1   force =     0.00001239    0.00003530    0.00000000
     atom   19 type  1   force =     0.00001439    0.00000000    0.00000162
     atom   20 type  1   force =     0.00000000    0.00003058   -0.00000505
     atom   21 type  1   force =     0.00000000    0.00000000    0.00000000
     atom   22 type  1   force =     0.00001521    0.00002379   -0.00000000
     atom   23 type  1   force =     0.00001439   -0.00000000   -0.00000162
     atom   24 type  1   force =    -0.00000000    0.00003058    0.00000505
     atom   25 type  1   force =     0.00000000    0.00000000    0.00000000
     atom   26 type  1   force =     0.00001239   -0.00003530    0.00000000
     atom   27 type  1   force =     0.00001339    0.00000000   -0.00001261
     atom   28 type  1   force =     0.00000000   -0.00003058   -0.00000505
     atom   29 type  1   force =     0.00000000    0.00000000    0.00000000
     atom   30 type  1   force =     0.00001521   -0.00002379    0.00000000
     atom   31 type  1   force =     0.00001339   -0.00000000    0.00001261
     atom   32 type  1   force =     0.00000000   -0.00003058    0.00000505

     Total force =     0.000135     Total SCF correction =     0.000686
     SCF correction compared to forces is large: reduce conv_thr to get better values


     Computing stress (Cartesian axis) and pressure

          total   stress  (Ry/bohr**3)                   (kbar)     P=    0.10
  -0.00000941   0.00000000   0.00000000         -1.38      0.00      0.00
   0.00000000   0.00000072   0.00000000          0.00      0.11      0.00
   0.00000000   0.00000000   0.00001079          0.00      0.00      1.59


     Writing output data file aKXyQughGTSohqOk.save/
 
     init_run     :     31.34s CPU     32.09s WALL (       1 calls)
     electrons    :    542.89s CPU    554.23s WALL (       1 calls)
     forces       :      6.41s CPU      6.64s WALL (       1 calls)
     stress       :     41.13s CPU     41.33s WALL (       1 calls)

     Called by init_run:
     wfcinit      :     30.99s CPU     31.69s WALL (       1 calls)
     potinit      :      0.11s CPU      0.12s WALL (       1 calls)
     hinit0       :      0.13s CPU      0.15s WALL (       1 calls)

     Called by electrons:
     c_bands      :    474.71s CPU    484.13s WALL (      11 calls)
     sum_band     :     67.16s CPU     68.99s WALL (      11 calls)
     v_of_rho     :      0.18s CPU      0.19s WALL (      11 calls)
     newd         :      0.12s CPU      0.18s WALL (      11 calls)
     PAW_pot      :      0.73s CPU      0.74s WALL (      11 calls)
     mix_rho      :      0.06s CPU      0.06s WALL (      11 calls)

     Called by c_bands:
     init_us_2    :     11.46s CPU     11.63s WALL (    5400 calls)
     cegterg      :    447.13s CPU    456.15s WALL (    2376 calls)

     Called by sum_band:
     sum_band:bec :      0.28s CPU      0.29s WALL (    2376 calls)
     addusdens    :      0.08s CPU      0.13s WALL (      11 calls)

     Called by *egterg:
     h_psi        :    331.19s CPU    339.11s WALL (    9019 calls)
     s_psi        :     30.54s CPU     30.67s WALL (    9019 calls)
     g_psi        :      1.70s CPU      1.72s WALL (    6427 calls)
     cdiaghg      :     51.34s CPU     51.51s WALL (    8587 calls)

     Called by h_psi:
     h_psi:pot    :    329.71s CPU    337.62s WALL (    9019 calls)
     h_psi:calbec :     32.79s CPU     34.43s WALL (    9019 calls)
     vloc_psi     :    266.61s CPU    272.74s WALL (    9019 calls)
     add_vuspsi   :     30.23s CPU     30.39s WALL (    9019 calls)

     General routines
     calbec       :     48.79s CPU     51.29s WALL (   12475 calls)
     fft          :      0.20s CPU      0.23s WALL (     148 calls)
     ffts         :      0.02s CPU      0.02s WALL (      11 calls)
     fftw         :    291.63s CPU    298.17s WALL (  886380 calls)
 
     Parallel routines
     fft_scatt_xy :     28.65s CPU     29.31s WALL (  886539 calls)
     fft_scatt_yz :    144.90s CPU    148.37s WALL (  886539 calls)
 
     PWSCF        : 10m31.22s CPU    11m10.00s WALL

 
   This run was terminated on:   1: 5:31  26Mar2020            

=------------------------------------------------------------------------------=
   JOB DONE.
=------------------------------------------------------------------------------=
