
     Program PWSCF v.6.3 starts on 26Mar2020 at 13:14:25 

     This program is part of the open-source Quantum ESPRESSO suite
     for quantum simulation of materials; please cite
         "P. Giannozzi et al., J. Phys.:Condens. Matter 21 395502 (2009);
         "P. Giannozzi et al., J. Phys.:Condens. Matter 29 465901 (2017);
          URL http://www.quantum-espresso.org", 
     in publications or presentations arising from this work. More details at
     http://www.quantum-espresso.org/quote

     Parallel version (MPI & OpenMP), running on      20 processor cores
     Number of MPI processes:                20
     Threads/MPI process:                     1

     MPI processes distributed on     1 nodes
     R & G space division:  proc/nbgrp/npool/nimage =      20
     Reading input from /rds/homes/b/bxp912/jobs/20200324_al_eos_e/wd/pwscf_ec/ec_9_8.in
Warning: card &IONS ignored
Warning: card ION_DYNAMICS = 'BFGS', ignored
Warning: card / ignored
Warning: card &CELL ignored
Warning: card CELL_DYNAMICS = 'BFGS', ignored
Warning: card CELL_FACTOR = 2.0, ignored
Warning: card PRESS = 0.0, ignored
Warning: card / ignored

     Current dimensions of program PWSCF are:
     Max number of different atomic species (ntypx) = 10
     Max number of k-points (npk) =  40000
     Max angular momentum in pseudopotentials (lmaxx) =  3
     Message from routine read_upf::
     Pseudo file /rds/homes/b/bxp912/pp/Al.pbe-nl-kjpaw_psl.1.0.0.UPF has been successfully fixed on the fly.
To avoid this message in the future you can permanently fix 
 your pseudo files following instructions given in: 
https://gitlab.com/QEF/q-e/blob/master/upftools/how_to_fix_upf.md
               file Al.pbe-nl-kjpaw_psl.1.0.0.UPF: wavefunction(s)  3S 3P renormalized

     Subspace diagonalization in iterative solution of the eigenvalue problem:
     a serial algorithm will be used

     Found symmetry operation: I + (  0.2500  0.2500  0.0000)
     This is a supercell, fractional translations are disabled
 
     Parallelization info
     --------------------
     sticks:   dense  smooth     PW     G-vecs:    dense   smooth      PW
     Min         186     186     51                 8496     8496    1231
     Max         187     187     53                 8500     8500    1232
     Sum        3725    3725   1037               169949   169949   24631
 


     bravais-lattice index     =            0
     lattice parameter (alat)  =      15.2652  a.u.
     unit-cell volume          =    3557.1654 (a.u.)^3
     number of atoms/cell      =           32
     number of atomic types    =            1
     number of electrons       =        96.00
     number of Kohn-Sham states=           58
     kinetic-energy cutoff     =      50.0000  Ry
     charge density cutoff     =     200.0000  Ry
     convergence threshold     =      1.0E-06
     mixing beta               =       0.1000
     number of iterations used =           10  plain     mixing
     Exchange-correlation      = SLA PW PBX PBC ( 1  4  3  4 0 0)

     celldm(1)=  15.265160  celldm(2)=   0.000000  celldm(3)=   0.000000
     celldm(4)=   0.000000  celldm(5)=   0.000000  celldm(6)=   0.000000

     crystal axes: (cart. coord. in units of alat)
               a(1) = (   1.000007   0.000000   0.000000 )  
               a(2) = (   0.000000   1.004451   0.000000 )  
               a(3) = (   0.000000   0.000000   0.995562 )  

     reciprocal axes: (cart. coord. in units 2 pi/alat)
               b(1) = (  0.999993  0.000000  0.000000 )  
               b(2) = (  0.000000  0.995569  0.000000 )  
               b(3) = (  0.000000  0.000000  1.004458 )  


     PseudoPot. # 1 for Al read from file:
     /rds/homes/b/bxp912/pp/Al.pbe-nl-kjpaw_psl.1.0.0.UPF
     MD5 check sum: 339dbea23cf3ab9a065ad45c0f9085d7
     Pseudo is Projector augmented-wave + core cor, Zval =  3.0
     Generated using "atomic" code by A. Dal Corso v.5.1
     Shape of augmentation charge: PSQ
     Using radial grid of 1135 points,  4 beta functions with: 
                l(1) =   0
                l(2) =   0
                l(3) =   1
                l(4) =   1
     Q(r) pseudized with 0 coefficients 


     atomic species   valence    mass     pseudopotential
        Al             3.00    26.98200     Al( 1.00)

      8 Sym. Ops., with inversion, found



   Cartesian axes

     site n.     atom                  positions (alat units)
         1           Al  tau(   1) = (   0.0000000   0.0000000   0.0000000  )
         2           Al  tau(   2) = (   0.2500016   0.2511128   0.0000000  )
         3           Al  tau(   3) = (   0.2500016   0.0000000   0.2488905  )
         4           Al  tau(   4) = (   0.0000000   0.2511128   0.2488905  )
         5           Al  tau(   5) = (   0.0000000   0.0000000   0.4977811  )
         6           Al  tau(   6) = (   0.2500016   0.2511128   0.4977811  )
         7           Al  tau(   7) = (   0.2500016   0.0000000   0.7466716  )
         8           Al  tau(   8) = (   0.0000000   0.2511128   0.7466716  )
         9           Al  tau(   9) = (   0.0000000   0.5022255   0.0000000  )
        10           Al  tau(  10) = (   0.2500016   0.7533383   0.0000000  )
        11           Al  tau(  11) = (   0.2500016   0.5022255   0.2488905  )
        12           Al  tau(  12) = (   0.0000000   0.7533383   0.2488905  )
        13           Al  tau(  13) = (   0.0000000   0.5022255   0.4977811  )
        14           Al  tau(  14) = (   0.2500016   0.7533383   0.4977811  )
        15           Al  tau(  15) = (   0.2500016   0.5022255   0.7466716  )
        16           Al  tau(  16) = (   0.0000000   0.7533383   0.7466716  )
        17           Al  tau(  17) = (   0.5000033   0.0000000   0.0000000  )
        18           Al  tau(  18) = (   0.7500049   0.2511128   0.0000000  )
        19           Al  tau(  19) = (   0.7500049   0.0000000   0.2488905  )
        20           Al  tau(  20) = (   0.5000033   0.2511128   0.2488905  )
        21           Al  tau(  21) = (   0.5000033   0.0000000   0.4977811  )
        22           Al  tau(  22) = (   0.7500049   0.2511128   0.4977811  )
        23           Al  tau(  23) = (   0.7500049   0.0000000   0.7466716  )
        24           Al  tau(  24) = (   0.5000033   0.2511128   0.7466716  )
        25           Al  tau(  25) = (   0.5000033   0.5022255   0.0000000  )
        26           Al  tau(  26) = (   0.7500049   0.7533383   0.0000000  )
        27           Al  tau(  27) = (   0.7500049   0.5022255   0.2488905  )
        28           Al  tau(  28) = (   0.5000033   0.7533383   0.2488905  )
        29           Al  tau(  29) = (   0.5000033   0.5022255   0.4977811  )
        30           Al  tau(  30) = (   0.7500049   0.7533383   0.4977811  )
        31           Al  tau(  31) = (   0.7500049   0.5022255   0.7466716  )
        32           Al  tau(  32) = (   0.5000033   0.7533383   0.7466716  )

     number of k points=   216  Marzari-Vanderbilt smearing, width (Ry)=  0.0400

     Number of k-points >= 100: set verbosity='high' to print them.

     Dense  grid:   169949 G-vectors     FFT dimensions: (  72,  72,  72)

     Estimated max dynamical RAM per process >     232.03 MB

     Estimated total dynamical RAM >       4.53 GB

     Initial potential from superposition of free atoms

     starting charge   95.92671, renormalised to   96.00000
     Starting wfcs are  128 randomized atomic wfcs
     Checking if some PAW data can be deallocated... 

     total cpu time spent up to now is       57.0 secs

     Self-consistent Calculation

     iteration #  1     ecut=    50.00 Ry     beta= 0.10
     Davidson diagonalization with overlap
     ethr =  1.00E-02,  avg # of iterations =  3.0

     Threshold (ethr) on eigenvalues was too large:
     Diagonalizing with lowered threshold

     Davidson diagonalization with overlap
     ethr =  1.91E-04,  avg # of iterations =  4.6

     total cpu time spent up to now is      251.4 secs

     total energy              =   -1264.12475350 Ry
     Harris-Foulkes estimate   =   -1264.13426367 Ry
     estimated scf accuracy    <       0.17934318 Ry

     iteration #  2     ecut=    50.00 Ry     beta= 0.10
     Davidson diagonalization with overlap
     ethr =  1.87E-04,  avg # of iterations =  1.1

     total cpu time spent up to now is      311.4 secs

     total energy              =   -1264.08369748 Ry
     Harris-Foulkes estimate   =   -1264.12553614 Ry
     estimated scf accuracy    <       0.14407233 Ry

     iteration #  3     ecut=    50.00 Ry     beta= 0.10
     Davidson diagonalization with overlap
     ethr =  1.50E-04,  avg # of iterations =  1.0

     total cpu time spent up to now is      371.4 secs

     total energy              =   -1264.08645390 Ry
     Harris-Foulkes estimate   =   -1264.08646154 Ry
     estimated scf accuracy    <       0.00025099 Ry

     iteration #  4     ecut=    50.00 Ry     beta= 0.10
     Davidson diagonalization with overlap
     c_bands:  1 eigenvalues not converged
     c_bands:  1 eigenvalues not converged
     c_bands:  1 eigenvalues not converged
     c_bands:  1 eigenvalues not converged
     c_bands:  2 eigenvalues not converged
     c_bands:  1 eigenvalues not converged
     c_bands:  1 eigenvalues not converged
     c_bands:  1 eigenvalues not converged
     c_bands:  1 eigenvalues not converged
     c_bands:  1 eigenvalues not converged
     c_bands:  1 eigenvalues not converged
     c_bands:  1 eigenvalues not converged
     c_bands:  1 eigenvalues not converged
     c_bands:  2 eigenvalues not converged
     c_bands:  1 eigenvalues not converged
     c_bands:  1 eigenvalues not converged
     c_bands:  1 eigenvalues not converged
     c_bands:  1 eigenvalues not converged
     c_bands:  2 eigenvalues not converged
     c_bands:  3 eigenvalues not converged
     c_bands:  1 eigenvalues not converged
     c_bands:  2 eigenvalues not converged
     ethr =  2.61E-07,  avg # of iterations =  8.1

     total cpu time spent up to now is      521.2 secs

     total energy              =   -1264.08735572 Ry
     Harris-Foulkes estimate   =   -1264.08731357 Ry
     estimated scf accuracy    <       0.00021825 Ry

     iteration #  5     ecut=    50.00 Ry     beta= 0.10
     Davidson diagonalization with overlap
     c_bands:  1 eigenvalues not converged
     ethr =  2.27E-07,  avg # of iterations =  1.8

     total cpu time spent up to now is      584.0 secs

     total energy              =   -1264.08723048 Ry
     Harris-Foulkes estimate   =   -1264.08735687 Ry
     estimated scf accuracy    <       0.00030972 Ry

     iteration #  6     ecut=    50.00 Ry     beta= 0.10
     Davidson diagonalization with overlap
     ethr =  2.27E-07,  avg # of iterations =  1.0

     total cpu time spent up to now is      664.2 secs

     total energy              =   -1264.08723779 Ry
     Harris-Foulkes estimate   =   -1264.08724268 Ry
     estimated scf accuracy    <       0.00001653 Ry

     iteration #  7     ecut=    50.00 Ry     beta= 0.10
     Davidson diagonalization with overlap
     c_bands:  4 eigenvalues not converged
     ethr =  1.72E-08,  avg # of iterations =  4.2

     total cpu time spent up to now is      765.6 secs

     total energy              =   -1264.08724250 Ry
     Harris-Foulkes estimate   =   -1264.08724195 Ry
     estimated scf accuracy    <       0.00000505 Ry

     iteration #  8     ecut=    50.00 Ry     beta= 0.10
     Davidson diagonalization with overlap
     ethr =  5.26E-09,  avg # of iterations =  1.7

     total cpu time spent up to now is      826.6 secs

     total energy              =   -1264.08724186 Ry
     Harris-Foulkes estimate   =   -1264.08724273 Ry
     estimated scf accuracy    <       0.00000995 Ry

     iteration #  9     ecut=    50.00 Ry     beta= 0.10
     Davidson diagonalization with overlap
     ethr =  5.26E-09,  avg # of iterations =  1.0

     total cpu time spent up to now is      886.3 secs

     total energy              =   -1264.08724076 Ry
     Harris-Foulkes estimate   =   -1264.08724201 Ry
     estimated scf accuracy    <       0.00000602 Ry

     iteration # 10     ecut=    50.00 Ry     beta= 0.10
     Davidson diagonalization with overlap
     ethr =  5.26E-09,  avg # of iterations =  2.5

     total cpu time spent up to now is      969.2 secs

     End of self-consistent calculation

     Number of k-points >= 100: set verbosity='high' to print the bands.

     the Fermi energy is     7.9283 ev

!    total energy              =   -1264.08724100 Ry
     Harris-Foulkes estimate   =   -1264.08724124 Ry
     estimated scf accuracy    <       0.00000040 Ry

     total all-electron energy =    -15540.656263 Ry

     The total energy is the sum of the following terms:

     one-electron contribution =     101.33610407 Ry
     hartree contribution      =       0.19682497 Ry
     xc contribution           =     -82.93455070 Ry
     ewald contribution        =    -173.00036036 Ry
     one-center paw contrib.   =   -1109.68249258 Ry
     smearing contrib. (-TS)   =      -0.00276640 Ry

     convergence has been achieved in  10 iterations

     Forces acting on atoms (cartesian axes, Ry/au):

     atom    1 type  1   force =     0.00000000    0.00000000    0.00000000
     atom    2 type  1   force =    -0.00001022    0.00002751    0.00000000
     atom    3 type  1   force =    -0.00000985    0.00000000   -0.00000001
     atom    4 type  1   force =     0.00000000    0.00002490   -0.00000632
     atom    5 type  1   force =     0.00000000    0.00000000    0.00000000
     atom    6 type  1   force =    -0.00001075    0.00002059    0.00000000
     atom    7 type  1   force =    -0.00000985    0.00000000    0.00000001
     atom    8 type  1   force =     0.00000000    0.00002490    0.00000632
     atom    9 type  1   force =     0.00000000    0.00000000    0.00000000
     atom   10 type  1   force =    -0.00001022   -0.00002751   -0.00000000
     atom   11 type  1   force =    -0.00001198   -0.00000000   -0.00001009
     atom   12 type  1   force =     0.00000000   -0.00002490   -0.00000632
     atom   13 type  1   force =     0.00000000    0.00000000    0.00000000
     atom   14 type  1   force =    -0.00001075   -0.00002059    0.00000000
     atom   15 type  1   force =    -0.00001198    0.00000000    0.00001009
     atom   16 type  1   force =     0.00000000   -0.00002490    0.00000632
     atom   17 type  1   force =     0.00000000    0.00000000    0.00000000
     atom   18 type  1   force =     0.00001022    0.00002751   -0.00000000
     atom   19 type  1   force =     0.00000985    0.00000000   -0.00000001
     atom   20 type  1   force =    -0.00000000    0.00002285   -0.00000315
     atom   21 type  1   force =     0.00000000    0.00000000    0.00000000
     atom   22 type  1   force =     0.00001075    0.00002059    0.00000000
     atom   23 type  1   force =     0.00000985    0.00000000    0.00000001
     atom   24 type  1   force =     0.00000000    0.00002285    0.00000315
     atom   25 type  1   force =     0.00000000    0.00000000    0.00000000
     atom   26 type  1   force =     0.00001022   -0.00002751    0.00000000
     atom   27 type  1   force =     0.00001198    0.00000000   -0.00001009
     atom   28 type  1   force =     0.00000000   -0.00002285   -0.00000315
     atom   29 type  1   force =     0.00000000    0.00000000    0.00000000
     atom   30 type  1   force =     0.00001075   -0.00002059    0.00000000
     atom   31 type  1   force =     0.00001198   -0.00000000    0.00001009
     atom   32 type  1   force =    -0.00000000   -0.00002285    0.00000315

     Total force =     0.000108     Total SCF correction =     0.000614
     SCF correction compared to forces is large: reduce conv_thr to get better values


     Computing stress (Cartesian axis) and pressure

          total   stress  (Ry/bohr**3)                   (kbar)     P=    0.13
   0.00000094   0.00000000   0.00000000          0.14      0.00      0.00
   0.00000000  -0.00001531   0.00000000          0.00     -2.25      0.00
   0.00000000   0.00000000   0.00001703          0.00      0.00      2.51


     Writing output data file QOdaAmaEsHLoQmDG.save/
 
     init_run     :     54.29s CPU     55.27s WALL (       1 calls)
     electrons    :    856.32s CPU    912.27s WALL (       1 calls)
     forces       :     11.63s CPU     11.84s WALL (       1 calls)
     stress       :     94.83s CPU     94.94s WALL (       1 calls)

     Called by init_run:
     wfcinit      :     53.17s CPU     54.05s WALL (       1 calls)
     potinit      :      0.22s CPU      0.24s WALL (       1 calls)
     hinit0       :      0.60s CPU      0.65s WALL (       1 calls)

     Called by electrons:
     c_bands      :    746.01s CPU    799.64s WALL (      11 calls)
     sum_band     :    108.78s CPU    110.93s WALL (      11 calls)
     v_of_rho     :      0.24s CPU      0.25s WALL (      11 calls)
     newd         :      0.18s CPU      0.26s WALL (      11 calls)
     PAW_pot      :      1.20s CPU      1.23s WALL (      11 calls)
     mix_rho      :      0.06s CPU      0.09s WALL (      11 calls)

     Called by c_bands:
     init_us_2    :     22.07s CPU     22.17s WALL (    5400 calls)
     cegterg      :    696.58s CPU    706.53s WALL (    2376 calls)

     Called by sum_band:
     sum_band:bec :      0.47s CPU      0.48s WALL (    2376 calls)
     addusdens    :      0.16s CPU      0.23s WALL (      11 calls)

     Called by *egterg:
     h_psi        :    516.81s CPU    526.05s WALL (    9083 calls)
     s_psi        :     56.34s CPU     56.46s WALL (    9083 calls)
     g_psi        :      3.65s CPU      3.69s WALL (    6491 calls)
     cdiaghg      :     65.28s CPU     65.41s WALL (    8651 calls)

     Called by h_psi:
     h_psi:pot    :    511.39s CPU    520.51s WALL (    9083 calls)
     h_psi:calbec :     55.29s CPU     56.54s WALL (    9083 calls)
     vloc_psi     :    400.10s CPU    407.87s WALL (    9083 calls)
     add_vuspsi   :     55.83s CPU     55.97s WALL (    9083 calls)

     General routines
     calbec       :     81.88s CPU     83.76s WALL (   12539 calls)
     fft          :      0.60s CPU      0.67s WALL (     148 calls)
     ffts         :      0.01s CPU      0.01s WALL (      11 calls)
     fftw         :    427.53s CPU    435.88s WALL (  888880 calls)
 
     Parallel routines
     fft_scatt_xy :     46.19s CPU     46.97s WALL (  889039 calls)
     fft_scatt_yz :    169.52s CPU    173.27s WALL (  889039 calls)
 
     PWSCF        : 17m 2.64s CPU    18m17.07s WALL

 
   This run was terminated on:  13:32:42  26Mar2020            

=------------------------------------------------------------------------------=
   JOB DONE.
=------------------------------------------------------------------------------=
