
     Program PWSCF v.6.3 starts on 25Mar2020 at  3:20: 4 

     This program is part of the open-source Quantum ESPRESSO suite
     for quantum simulation of materials; please cite
         "P. Giannozzi et al., J. Phys.:Condens. Matter 21 395502 (2009);
         "P. Giannozzi et al., J. Phys.:Condens. Matter 29 465901 (2017);
          URL http://www.quantum-espresso.org", 
     in publications or presentations arising from this work. More details at
     http://www.quantum-espresso.org/quote

     Parallel version (MPI & OpenMP), running on      20 processor cores
     Number of MPI processes:                20
     Threads/MPI process:                     1

     MPI processes distributed on     1 nodes
     R & G space division:  proc/nbgrp/npool/nimage =      20
     Reading input from /rds/homes/b/bxp912/jobs/20200324_al_eos_e/wd/pwscf_eos/eos_6.in
Warning: card &IONS ignored
Warning: card ION_DYNAMICS = 'BFGS', ignored
Warning: card / ignored
Warning: card &CELL ignored
Warning: card CELL_DYNAMICS = 'BFGS', ignored
Warning: card CELL_FACTOR = 2.0, ignored
Warning: card PRESS = 0.0, ignored
Warning: card / ignored

     Current dimensions of program PWSCF are:
     Max number of different atomic species (ntypx) = 10
     Max number of k-points (npk) =  40000
     Max angular momentum in pseudopotentials (lmaxx) =  3
     Message from routine read_upf::
     Pseudo file /rds/homes/b/bxp912/pp/Al.pbe-nl-kjpaw_psl.1.0.0.UPF has been successfully fixed on the fly.
To avoid this message in the future you can permanently fix 
 your pseudo files following instructions given in: 
https://gitlab.com/QEF/q-e/blob/master/upftools/how_to_fix_upf.md
               file Al.pbe-nl-kjpaw_psl.1.0.0.UPF: wavefunction(s)  3S 3P renormalized

     Subspace diagonalization in iterative solution of the eigenvalue problem:
     a serial algorithm will be used

     Found symmetry operation: I + (  0.2500  0.2500  0.0000)
     This is a supercell, fractional translations are disabled
 
     Parallelization info
     --------------------
     sticks:   dense  smooth     PW     G-vecs:    dense   smooth      PW
     Min         185     185     51                 8489     8489    1228
     Max         186     186     53                 8494     8494    1231
     Sum        3705    3705   1033               169797   169797   24573
 


     bravais-lattice index     =            0
     lattice parameter (alat)  =      15.2652  a.u.
     unit-cell volume          =    3557.1654 (a.u.)^3
     number of atoms/cell      =           32
     number of atomic types    =            1
     number of electrons       =        96.00
     number of Kohn-Sham states=           58
     kinetic-energy cutoff     =      50.0000  Ry
     charge density cutoff     =     200.0000  Ry
     convergence threshold     =      1.0E-06
     mixing beta               =       0.1000
     number of iterations used =           10  plain     mixing
     Exchange-correlation      = SLA PW PBX PBC ( 1  4  3  4 0 0)

     celldm(1)=  15.265160  celldm(2)=   0.000000  celldm(3)=   0.000000
     celldm(4)=   0.000000  celldm(5)=   0.000000  celldm(6)=   0.000000

     crystal axes: (cart. coord. in units of alat)
               a(1) = (   1.000000   0.000000   0.000000 )  
               a(2) = (   0.000000   1.000000   0.000000 )  
               a(3) = (   0.000000   0.000000   1.000000 )  

     reciprocal axes: (cart. coord. in units 2 pi/alat)
               b(1) = (  1.000000  0.000000  0.000000 )  
               b(2) = (  0.000000  1.000000  0.000000 )  
               b(3) = (  0.000000  0.000000  1.000000 )  


     PseudoPot. # 1 for Al read from file:
     /rds/homes/b/bxp912/pp/Al.pbe-nl-kjpaw_psl.1.0.0.UPF
     MD5 check sum: 339dbea23cf3ab9a065ad45c0f9085d7
     Pseudo is Projector augmented-wave + core cor, Zval =  3.0
     Generated using "atomic" code by A. Dal Corso v.5.1
     Shape of augmentation charge: PSQ
     Using radial grid of 1135 points,  4 beta functions with: 
                l(1) =   0
                l(2) =   0
                l(3) =   1
                l(4) =   1
     Q(r) pseudized with 0 coefficients 


     atomic species   valence    mass     pseudopotential
        Al             3.00    26.98200     Al( 1.00)

     48 Sym. Ops., with inversion, found



   Cartesian axes

     site n.     atom                  positions (alat units)
         1           Al  tau(   1) = (   0.0000000   0.0000000   0.0000000  )
         2           Al  tau(   2) = (   0.2500000   0.2500000   0.0000000  )
         3           Al  tau(   3) = (   0.2500000   0.0000000   0.2500000  )
         4           Al  tau(   4) = (   0.0000000   0.2500000   0.2500000  )
         5           Al  tau(   5) = (   0.0000000   0.0000000   0.5000000  )
         6           Al  tau(   6) = (   0.2500000   0.2500000   0.5000000  )
         7           Al  tau(   7) = (   0.2500000   0.0000000   0.7500000  )
         8           Al  tau(   8) = (   0.0000000   0.2500000   0.7500000  )
         9           Al  tau(   9) = (   0.0000000   0.5000000   0.0000000  )
        10           Al  tau(  10) = (   0.2500000   0.7500000   0.0000000  )
        11           Al  tau(  11) = (   0.2500000   0.5000000   0.2500000  )
        12           Al  tau(  12) = (   0.0000000   0.7500000   0.2500000  )
        13           Al  tau(  13) = (   0.0000000   0.5000000   0.5000000  )
        14           Al  tau(  14) = (   0.2500000   0.7500000   0.5000000  )
        15           Al  tau(  15) = (   0.2500000   0.5000000   0.7500000  )
        16           Al  tau(  16) = (   0.0000000   0.7500000   0.7500000  )
        17           Al  tau(  17) = (   0.5000000   0.0000000   0.0000000  )
        18           Al  tau(  18) = (   0.7500000   0.2500000   0.0000000  )
        19           Al  tau(  19) = (   0.7500000   0.0000000   0.2500000  )
        20           Al  tau(  20) = (   0.5000000   0.2500000   0.2500000  )
        21           Al  tau(  21) = (   0.5000000   0.0000000   0.5000000  )
        22           Al  tau(  22) = (   0.7500000   0.2500000   0.5000000  )
        23           Al  tau(  23) = (   0.7500000   0.0000000   0.7500000  )
        24           Al  tau(  24) = (   0.5000000   0.2500000   0.7500000  )
        25           Al  tau(  25) = (   0.5000000   0.5000000   0.0000000  )
        26           Al  tau(  26) = (   0.7500000   0.7500000   0.0000000  )
        27           Al  tau(  27) = (   0.7500000   0.5000000   0.2500000  )
        28           Al  tau(  28) = (   0.5000000   0.7500000   0.2500000  )
        29           Al  tau(  29) = (   0.5000000   0.5000000   0.5000000  )
        30           Al  tau(  30) = (   0.7500000   0.7500000   0.5000000  )
        31           Al  tau(  31) = (   0.7500000   0.5000000   0.7500000  )
        32           Al  tau(  32) = (   0.5000000   0.7500000   0.7500000  )

     number of k points=    56  Marzari-Vanderbilt smearing, width (Ry)=  0.0400
                       cart. coord. in units 2pi/alat
        k(    1) = (   0.0454545   0.0454545   0.0454545), wk =   0.0120210
        k(    2) = (   0.0454545   0.0454545   0.1363636), wk =   0.0360631
        k(    3) = (   0.0454545   0.0454545   0.2272727), wk =   0.0360631
        k(    4) = (   0.0454545   0.0454545   0.3181818), wk =   0.0360631
        k(    5) = (   0.0454545   0.0454545   0.4090909), wk =   0.0360631
        k(    6) = (   0.0454545   0.0454545  -0.5000000), wk =   0.0180316
        k(    7) = (   0.0454545   0.1363636   0.1363636), wk =   0.0360631
        k(    8) = (   0.0454545   0.1363636   0.2272727), wk =   0.0721262
        k(    9) = (   0.0454545   0.1363636   0.3181818), wk =   0.0721262
        k(   10) = (   0.0454545   0.1363636   0.4090909), wk =   0.0721262
        k(   11) = (   0.0454545   0.1363636  -0.5000000), wk =   0.0360631
        k(   12) = (   0.0454545   0.2272727   0.2272727), wk =   0.0360631
        k(   13) = (   0.0454545   0.2272727   0.3181818), wk =   0.0721262
        k(   14) = (   0.0454545   0.2272727   0.4090909), wk =   0.0721262
        k(   15) = (   0.0454545   0.2272727  -0.5000000), wk =   0.0360631
        k(   16) = (   0.0454545   0.3181818   0.3181818), wk =   0.0360631
        k(   17) = (   0.0454545   0.3181818   0.4090909), wk =   0.0721262
        k(   18) = (   0.0454545   0.3181818  -0.5000000), wk =   0.0360631
        k(   19) = (   0.0454545   0.4090909   0.4090909), wk =   0.0360631
        k(   20) = (   0.0454545   0.4090909  -0.5000000), wk =   0.0360631
        k(   21) = (   0.0454545  -0.5000000  -0.5000000), wk =   0.0090158
        k(   22) = (   0.1363636   0.1363636   0.1363636), wk =   0.0120210
        k(   23) = (   0.1363636   0.1363636   0.2272727), wk =   0.0360631
        k(   24) = (   0.1363636   0.1363636   0.3181818), wk =   0.0360631
        k(   25) = (   0.1363636   0.1363636   0.4090909), wk =   0.0360631
        k(   26) = (   0.1363636   0.1363636  -0.5000000), wk =   0.0180316
        k(   27) = (   0.1363636   0.2272727   0.2272727), wk =   0.0360631
        k(   28) = (   0.1363636   0.2272727   0.3181818), wk =   0.0721262
        k(   29) = (   0.1363636   0.2272727   0.4090909), wk =   0.0721262
        k(   30) = (   0.1363636   0.2272727  -0.5000000), wk =   0.0360631
        k(   31) = (   0.1363636   0.3181818   0.3181818), wk =   0.0360631
        k(   32) = (   0.1363636   0.3181818   0.4090909), wk =   0.0721262
        k(   33) = (   0.1363636   0.3181818  -0.5000000), wk =   0.0360631
        k(   34) = (   0.1363636   0.4090909   0.4090909), wk =   0.0360631
        k(   35) = (   0.1363636   0.4090909  -0.5000000), wk =   0.0360631
        k(   36) = (   0.1363636  -0.5000000  -0.5000000), wk =   0.0090158
        k(   37) = (   0.2272727   0.2272727   0.2272727), wk =   0.0120210
        k(   38) = (   0.2272727   0.2272727   0.3181818), wk =   0.0360631
        k(   39) = (   0.2272727   0.2272727   0.4090909), wk =   0.0360631
        k(   40) = (   0.2272727   0.2272727  -0.5000000), wk =   0.0180316
        k(   41) = (   0.2272727   0.3181818   0.3181818), wk =   0.0360631
        k(   42) = (   0.2272727   0.3181818   0.4090909), wk =   0.0721262
        k(   43) = (   0.2272727   0.3181818  -0.5000000), wk =   0.0360631
        k(   44) = (   0.2272727   0.4090909   0.4090909), wk =   0.0360631
        k(   45) = (   0.2272727   0.4090909  -0.5000000), wk =   0.0360631
        k(   46) = (   0.2272727  -0.5000000  -0.5000000), wk =   0.0090158
        k(   47) = (   0.3181818   0.3181818   0.3181818), wk =   0.0120210
        k(   48) = (   0.3181818   0.3181818   0.4090909), wk =   0.0360631
        k(   49) = (   0.3181818   0.3181818  -0.5000000), wk =   0.0180316
        k(   50) = (   0.3181818   0.4090909   0.4090909), wk =   0.0360631
        k(   51) = (   0.3181818   0.4090909  -0.5000000), wk =   0.0360631
        k(   52) = (   0.3181818  -0.5000000  -0.5000000), wk =   0.0090158
        k(   53) = (   0.4090909   0.4090909   0.4090909), wk =   0.0120210
        k(   54) = (   0.4090909   0.4090909  -0.5000000), wk =   0.0180316
        k(   55) = (   0.4090909  -0.5000000  -0.5000000), wk =   0.0090158
        k(   56) = (  -0.5000000  -0.5000000  -0.5000000), wk =   0.0015026

     Dense  grid:   169797 G-vectors     FFT dimensions: (  72,  72,  72)

     Estimated max dynamical RAM per process >      81.78 MB

     Estimated total dynamical RAM >       1.60 GB

     Initial potential from superposition of free atoms

     starting charge   95.92671, renormalised to   96.00000
     Starting wfcs are  128 randomized atomic wfcs
     Checking if some PAW data can be deallocated... 

     total cpu time spent up to now is        7.5 secs

     Self-consistent Calculation

     iteration #  1     ecut=    50.00 Ry     beta= 0.10
     Davidson diagonalization with overlap
     ethr =  1.00E-02,  avg # of iterations =  3.1

     Threshold (ethr) on eigenvalues was too large:
     Diagonalizing with lowered threshold

     Davidson diagonalization with overlap
     ethr =  1.91E-04,  avg # of iterations =  4.6

     total cpu time spent up to now is       32.1 secs

     total energy              =   -1264.12451087 Ry
     Harris-Foulkes estimate   =   -1264.13388022 Ry
     estimated scf accuracy    <       0.17942412 Ry

     iteration #  2     ecut=    50.00 Ry     beta= 0.10
     Davidson diagonalization with overlap
     ethr =  1.87E-04,  avg # of iterations =  1.0

     total cpu time spent up to now is       39.5 secs

     total energy              =   -1264.08402256 Ry
     Harris-Foulkes estimate   =   -1264.12527612 Ry
     estimated scf accuracy    <       0.14410357 Ry

     iteration #  3     ecut=    50.00 Ry     beta= 0.10
     Davidson diagonalization with overlap
     ethr =  1.50E-04,  avg # of iterations =  1.0

     total cpu time spent up to now is       47.0 secs

     total energy              =   -1264.08672132 Ry
     Harris-Foulkes estimate   =   -1264.08672541 Ry
     estimated scf accuracy    <       0.00023920 Ry

     iteration #  4     ecut=    50.00 Ry     beta= 0.10
     Davidson diagonalization with overlap
     c_bands:  1 eigenvalues not converged
     c_bands:  1 eigenvalues not converged
     c_bands:  2 eigenvalues not converged
     c_bands:  1 eigenvalues not converged
     ethr =  2.49E-07,  avg # of iterations =  7.2

     total cpu time spent up to now is       64.7 secs

     total energy              =   -1264.08783547 Ry
     Harris-Foulkes estimate   =   -1264.08757336 Ry
     estimated scf accuracy    <       0.00021272 Ry

     iteration #  5     ecut=    50.00 Ry     beta= 0.10
     Davidson diagonalization with overlap
     ethr =  2.22E-07,  avg # of iterations =  1.4

     total cpu time spent up to now is       72.4 secs

     total energy              =   -1264.08746742 Ry
     Harris-Foulkes estimate   =   -1264.08784364 Ry
     estimated scf accuracy    <       0.00081352 Ry

     iteration #  6     ecut=    50.00 Ry     beta= 0.10
     Davidson diagonalization with overlap
     ethr =  2.22E-07,  avg # of iterations =  2.0

     total cpu time spent up to now is       81.8 secs

     total energy              =   -1264.08749409 Ry
     Harris-Foulkes estimate   =   -1264.08749399 Ry
     estimated scf accuracy    <       0.00000133 Ry

     iteration #  7     ecut=    50.00 Ry     beta= 0.10
     Davidson diagonalization with overlap
     ethr =  1.39E-09,  avg # of iterations =  6.2

     total cpu time spent up to now is       98.4 secs

     total energy              =   -1264.08749635 Ry
     Harris-Foulkes estimate   =   -1264.08749693 Ry
     estimated scf accuracy    <       0.00000190 Ry

     iteration #  8     ecut=    50.00 Ry     beta= 0.10
     Davidson diagonalization with overlap
     ethr =  1.39E-09,  avg # of iterations =  1.0

     total cpu time spent up to now is      105.8 secs

     End of self-consistent calculation

          k = 0.0455 0.0455 0.0455 ( 21247 PWs)   bands (ev):

    -3.2150  -1.1670  -1.1670  -1.1670  -0.7610  -0.7610  -0.7610   0.8523
     0.8523   0.8523   1.2526   1.2526   1.2526   1.2526   1.2526   1.2526
     1.6517   1.6517   1.6518   2.8392   3.2162   3.2163   3.2163   3.6690
     3.6690   3.6691   4.0443   4.8965   4.8965   4.8965   6.4430   6.4430
     6.4430   6.7930   6.7930   6.7931   6.7931   6.7931   6.7931   7.1737
     7.1737   7.1737   7.1737   7.1737   7.1737   8.1943   8.1943   8.1943
     8.1944   8.1944   8.1944   8.7025   8.7025   8.7025   9.0829   9.0830
     9.0830   9.0840

          k = 0.0455 0.0455 0.1364 ( 21262 PWs)   bands (ev):

    -3.1775  -1.5371  -1.1300  -1.1300  -0.7242  -0.7241  -0.3196   0.4873
     0.4873   0.8886   0.8886   0.8887   1.2889   1.2889   1.6878   1.6878
     1.6880   2.0857   2.0857   2.4824   2.8748   2.8749   3.2515   3.7051
     4.0799   4.0800   4.3477   4.4688   4.9311   4.9311   6.2656   6.2656
     6.4499   6.4499   6.4790   6.4790   6.6329   6.6329   6.8445   6.8445
     7.0567   7.2132   7.2132   7.5716   7.5716   7.9922   7.9923   8.2030
     8.3567   8.3567   8.3824   8.3825   8.5804   8.5804   8.5853   8.5853
     8.7371   8.7371

          k = 0.0455 0.0455 0.2273 ( 21225 PWs)   bands (ev):

    -3.1025  -1.8711  -1.0561  -1.0561  -0.6505  -0.6504   0.1569   0.1580
     0.1580   0.5602   0.5602   0.9616   1.3616   1.3616   1.7605   2.1575
     2.1575   2.1586   2.5540   2.5540   2.5541   2.5541   2.9463   3.6921
     4.1511   4.5396   4.5396   4.9296   5.0002   5.0002   5.6296   5.6297
     6.0101   6.0102   6.1397   6.1397   6.5509   6.5509   6.9055   6.9055
     7.2835   7.2835   7.5796   7.6687   7.6687   7.8420   7.9637   7.9638
     8.0454   8.0454   8.0729   8.0729   8.3475   8.4258   8.4258   8.5192
     8.5192   8.8426

          k = 0.0455 0.0455 0.3182 ( 21217 PWs)   bands (ev):

    -2.9901  -2.1686  -0.9453  -0.9453  -0.5400  -0.5400  -0.1354  -0.1354
     0.2677   0.2677   0.6678   1.0709   1.4706   1.4706   1.8691   1.8696
     2.2666   2.2666   2.6610   2.6610   2.6618   3.0349   3.0560   3.0560
     4.6454   4.9878   4.9878   5.0350   5.0351   5.1039   5.1039   5.3732
     5.3732   5.4248   5.8637   5.8637   6.6583   6.6583   6.9456   7.0083
     7.0083   7.3313   7.3313   7.3877   7.3877   7.4220   7.4220   7.7165
     7.7687   7.7687   8.1490   8.1490   8.5392   8.5392   8.6517   8.6517
     8.6937   9.0127

          k = 0.0455 0.0455 0.4091 ( 21264 PWs)   bands (ev):

    -2.8404  -2.4295  -0.7977  -0.7977  -0.3928  -0.3928  -0.3926  -0.3926
     0.0112   0.0112   1.2125   1.2165   1.6158   1.6158   1.6161   2.0138
     2.0140   2.0140   2.3985   2.4106   3.1975   3.1975   3.5907   3.5908
     4.3638   4.3638   4.7524   4.7524   5.1748   5.2420   5.2420   5.5640
     5.5640   5.6220   5.6220   5.9529   6.3282   6.7153   6.7153   6.8006
     6.8006   7.1019   7.1463   7.1463   7.1855   7.1855   7.5262   7.5262
     7.5266   7.5266   7.9068   7.9068   8.8059   8.8059   9.0539   9.0539
     9.1797   9.1798

          k = 0.0455 0.0455-0.5000 ( 21254 PWs)   bands (ev):

    -2.6535  -2.6535  -0.6135  -0.6135  -0.6134  -0.6134  -0.2091  -0.2090
    -0.2090  -0.2090   1.3983   1.3983   1.7900   1.7900   1.7970   1.7970
     1.7970   1.7970   2.1944   2.1944   3.7657   3.7658   3.7658   3.7658
     4.1569   4.1569   4.1569   4.1569   5.4147   5.4147   5.4148   5.4148
     5.7366   5.7366   6.1248   6.1249   6.1249   6.1249   6.5127   6.5127
     6.9769   6.9769   6.9770   6.9770   7.3191   7.3191   7.3192   7.3192
     7.6992   7.6992   7.6993   7.6993   8.9899   8.9899   8.9900   8.9900
     9.3690   9.3690

          k = 0.0455 0.1364 0.1364 ( 21214 PWs)   bands (ev):

    -3.1400  -1.5001  -1.5001  -1.0931  -0.6873  -0.2828  -0.2828   0.1214
     0.5238   0.5238   0.9251   0.9251   1.3250   1.3250   1.7241   1.7241
     2.1219   2.1219   2.1226   2.5182   2.5183   3.2867   3.2868   3.7412
     3.7413   4.3829   4.3829   4.5042   4.8944   4.9656   5.9204   5.9205
     6.2847   6.2848   6.4819   6.4819   6.5149   6.7133   6.7134   7.0519
     7.0519   7.0920   7.0920   7.6232   7.6232   7.8550   7.8550   8.0108
     8.1026   8.1026   8.2375   8.2375   8.5135   8.5136   8.8836   8.8837
     9.0018   9.0018

          k = 0.0455 0.1364 0.2273 ( 21218 PWs)   bands (ev):

    -3.0650  -1.8340  -1.4260  -1.0192  -0.6136  -0.2094  -0.2088   0.1935
     0.1946   0.5968   0.5969   0.9976   0.9980   1.7959   1.7965   1.7973
     2.1936   2.1941   2.1946   2.5900   2.9819   2.9851   3.3574   3.7276
     3.8132   4.1868   4.4531   4.9650   5.0347   5.2805   5.3549   5.6077
     5.6605   6.0214   6.1737   6.4037   6.4165   6.5782   6.5865   6.7754
     7.1625   7.2298   7.4207   7.5415   7.6143   7.6965   7.6996   7.8767
     7.8867   7.9242   8.0452   8.1976   8.3093   8.3819   8.7651   8.8407
     9.0598   9.0743

          k = 0.0455 0.1364 0.3182 ( 21219 PWs)   bands (ev):

    -2.9527  -2.1314  -1.3149  -0.9084  -0.5032  -0.5029  -0.0992  -0.0987
     0.3043   0.7043   0.7059   0.7065   1.1072   1.5074   1.9051   1.9057
     2.3008   2.3023   2.6970   2.6975   3.0707   3.0890   3.0918   3.4853
     4.2931   4.5585   4.6354   4.6809   5.0215   5.1384   5.3288   5.4037
     5.4600   5.7892   5.8492   5.8980   6.5007   6.5944   6.6647   6.6933
     6.8786   6.9805   7.2627   7.2678   7.4189   7.4230   7.6454   7.7512
     7.8016   8.0075   8.0991   8.1358   8.3139   8.5639   8.5800   8.7277
     9.1060   9.2202

          k = 0.0455 0.1364 0.4091 ( 21251 PWs)   bands (ev):

    -2.8030  -2.3922  -1.1669  -0.7609  -0.7608  -0.3560  -0.3559   0.0475
     0.0478   0.4502   0.8525   1.2489   1.2528   1.2531   1.6522   2.0498
     2.4344   2.4464   2.4465   2.8389   2.8409   3.2332   3.6262   4.0089
     4.0180   4.3986   4.6988   4.7862   4.8212   5.0841   5.1738   5.2102
     5.2766   5.6564   5.9758   5.9880   6.3632   6.3762   6.6366   6.8014
     6.8346   7.0177   7.0187   7.1366   7.1810   7.2106   7.4013   7.4073
     7.5226   7.7829   7.9406   8.3216   8.4611   8.5810   8.8568   9.0898
     9.3778   9.5746

          k = 0.0455 0.1364-0.5000 ( 21260 PWs)   bands (ev):

    -2.6162  -2.6161  -0.9822  -0.9821  -0.5767  -0.5766  -0.1723  -0.1723
     0.2307   0.2307   1.0347   1.0347   1.4345   1.4345   1.8261   1.8261
     2.2303   2.2303   2.6261   2.6262   3.4088   3.4089   3.8012   3.8012
     4.1919   4.1919   4.5816   4.5817   4.8741   4.8741   5.3833   5.3833
     5.4492   5.4493   5.7718   5.7718   6.5476   6.5476   6.8098   6.8099
     6.9347   6.9348   6.9737   6.9738   7.0086   7.0086   7.1920   7.1921
     7.5799   7.5799   8.1139   8.1139   8.6418   8.6419   9.1217   9.1217
     9.5622   9.5623

          k = 0.0455 0.2273 0.2273 ( 21211 PWs)   bands (ev):

    -2.9901  -1.7597  -1.7597  -0.9453  -0.5400  -0.5397   0.2667   0.2668
     0.2678   0.2679   0.6698   0.6698   1.4696   1.4697   1.4711   1.8695
     2.2658   2.2658   2.6619   2.6619   3.4276   3.4277   3.4501   3.7986
     3.7986   3.8854   3.8855   4.9647   4.9647   5.1038   5.4252   5.7067
     5.7068   5.8145   6.1692   6.1693   6.2399   6.2399   6.6574   6.8619
     6.8619   6.9146   6.9146   7.2994   7.2994   7.3884   7.9124   7.9124
     7.9460   7.9460   8.1420   8.1420   8.8338   8.8338   8.9940   8.9940
     9.0722   9.2165

          k = 0.0455 0.2273 0.3182 ( 21235 PWs)   bands (ev):

    -2.8778  -2.0570  -1.6484  -0.8346  -0.8345  -0.4296  -0.0253   0.3765
     0.3775   0.3777   0.7773   0.7793   1.1790   1.1804   1.5797   1.9758
     2.3740   2.7688   2.7696   3.1422   3.1599   3.1632   3.5335   3.9050
     3.9482   3.9928   4.3171   4.3645   4.6831   5.0869   5.2075   5.4469
     5.8959   5.9192   5.9663   6.2132   6.2538   6.2780   6.3077   6.3762
     6.6344   6.6643   6.7629   7.0192   7.1119   7.2350   7.7443   8.0098
     8.0494   8.2047   8.2497   8.5886   8.5938   8.7891   8.7956   8.8168
     9.0133   9.3189

          k = 0.0455 0.2273 0.4091 ( 21216 PWs)   bands (ev):

    -2.7282  -2.3177  -1.5000  -1.0930  -0.6871  -0.2825  -0.2823   0.1212
     0.5227   0.5240   0.9241   0.9252   0.9255   1.3215   1.3256   2.5064
     2.5151   2.5180   2.9122   2.9129   3.3026   3.3046   3.6885   3.6970
     4.0468   4.4360   4.4677   4.4784   4.5054   4.8517   4.8922   5.3456
     5.6254   5.6586   5.7252   6.0102   6.0461   6.3895   6.3900   6.4460
     6.4923   6.7739   6.8335   6.8701   6.9013   7.2397   7.5918   7.9770
     8.0116   8.1496   8.1858   8.3894   8.5404   8.5450   8.7709   9.0904
     9.1649   9.6885

          k = 0.0455 0.2273-0.5000 ( 21210 PWs)   bands (ev):

    -2.5415  -2.5414  -1.3149  -1.3148  -0.5030  -0.5030  -0.0989  -0.0989
     0.7053   0.7054   0.7066   0.7066   1.1073   1.1074   1.8985   1.8985
     2.6976   2.6976   3.0867   3.0867   3.0912   3.0912   3.8718   3.8718
     4.2239   4.2239   4.2612   4.2612   5.0387   5.0387   5.0658   5.0659
     5.4539   5.4539   5.5182   5.5182   6.1806   6.1807   6.5640   6.5640
     6.6633   6.6633   7.0042   7.0042   7.0676   7.0677   7.3906   7.3906
     8.3270   8.3270   8.3533   8.3534   8.5214   8.5214   8.5630   8.5630
     9.7106   9.7106

          k = 0.0455 0.3182 0.3182 ( 21249 PWs)   bands (ev):

    -2.7656  -1.9454  -1.9454  -1.1299  -0.7240  -0.3193   0.0847   0.0847
     0.4872   0.4872   0.8866   0.8867   0.8891   1.2893   1.6862   1.6862
     2.8764   2.8764   3.2495   3.2495   3.2702   3.2702   3.6385   3.6386
     4.0333   4.0333   4.1009   4.1010   4.4438   5.1665   5.1665   5.3110
     5.6414   5.6415   5.9969   5.9969   6.0671   6.0671   6.3831   6.3831
     6.4120   6.7087   6.7087   6.7996   6.8356   6.8654   7.7543   7.7543
     8.5063   8.6913   8.6913   8.7299   8.7299   8.8965   8.8966   9.0735
     9.0746   9.0746

          k = 0.0455 0.3182 0.4091 ( 21242 PWs)   bands (ev):

    -2.6161  -2.2059  -1.7968  -1.3889  -0.5766  -0.1723  -0.1721   0.2311
     0.2313   0.6334   0.6336   1.0323   1.0346   1.4305   1.4322   2.2267
     2.6143   3.0195   3.3923   3.4029   3.4086   3.4113   3.4120   3.7796
     3.7844   3.8024   4.2432   4.5689   4.6123   4.9308   4.9707   5.3774
     5.3969   5.4491   5.7521   5.7568   5.7643   5.8281   6.0818   6.1373
     6.2405   6.5942   6.9374   6.9958   7.1030   7.3240   7.6303   7.8765
     8.0801   8.2587   8.4645   8.4786   8.8721   9.0286   9.2104   9.2149
     9.2546   9.4236

          k = 0.0455 0.3182-0.5000 ( 21248 PWs)   bands (ev):

    -2.4295  -2.4295  -1.6113  -1.6112  -0.3926  -0.3926   0.0112   0.0112
     0.4143   0.4143   0.8158   0.8159   1.2142   1.2143   2.0069   2.0069
     2.7996   2.7996   3.1975   3.1976   3.5707   3.5707   3.5867   3.5867
     3.9769   3.9770   4.3628   4.3628   4.7867   4.7867   5.1721   5.1721
     5.5254   5.5254   5.5458   5.5459   5.6215   5.6216   5.9277   5.9278
     6.3887   6.3888   7.1320   7.1321   7.4941   7.4941   7.8796   7.8796
     7.9394   7.9394   8.0478   8.0479   9.0463   9.0464   9.1858   9.1858
     9.8178   9.8200

          k = 0.0455 0.4091 0.4091 ( 21230 PWs)   bands (ev):

    -2.4668  -2.0570  -2.0570  -1.6483  -0.4294  -0.0255  -0.0253  -0.0253
     0.3775   0.3775   0.3777   0.7794   1.5756   1.5756   1.9739   1.9739
     2.7580   2.7580   3.1525   3.1525   3.5529   3.5529   3.9190   3.9190
     3.9405   3.9405   4.3868   4.3869   4.6849   4.6850   5.1349   5.1349
     5.1614   5.1615   5.4918   5.5187   5.5187   5.5870   5.9634   5.9634
     6.3542   6.6131   6.6131   7.0961   7.4612   7.6549   7.6550   7.8469
     7.9132   8.0136   8.6007   8.6007   8.9843   8.9843   9.3870   9.3870
     9.7720   9.7723

          k = 0.0455 0.4091-0.5000 ( 21240 PWs)   bands (ev):

    -2.2804  -2.2804  -1.8711  -1.8711  -0.2456  -0.2455   0.1578   0.1578
     0.1580   0.1581   0.5603   0.5603   1.7567   1.7568   2.1514   2.1514
     2.5479   2.5479   2.9374   2.9375   3.7272   3.7272   4.0951   4.0952
     4.1146   4.1146   4.4793   4.4793   4.5628   4.5628   4.9289   4.9289
     4.9490   4.9490   5.3118   5.3118   5.7589   5.7590   6.0153   6.0153
     6.1724   6.1725   7.0357   7.0357   7.5697   7.5697   7.8083   7.8084
     8.0164   8.0164   8.4010   8.4010   9.1526   9.1526   9.5352   9.5353
     9.5635   9.5635

          k = 0.0455-0.5000-0.5000 ( 21236 PWs)   bands (ev):

    -2.0943  -2.0942  -2.0942  -2.0942  -0.0620  -0.0620  -0.0620  -0.0619
     0.3409   0.3409   0.3409   0.3410   2.3317   2.3317   2.3317   2.3317
     2.3317   2.3318   2.3318   2.3318   4.2682   4.2682   4.2682   4.2682
     4.2682   4.2683   4.2683   4.2683   4.7412   4.7413   4.7413   4.7413
     4.7414   4.7414   4.7414   4.7414   5.9288   5.9288   5.9288   5.9289
     6.5808   6.5808   6.5808   6.5808   7.6212   7.6213   7.6213   7.6213
     8.5699   8.5699   8.5699   8.5699   8.9535   8.9535   8.9535   8.9536
    10.1128  10.1129

          k = 0.1364 0.1364 0.1364 ( 21227 PWs)   bands (ev):

    -3.1025  -1.4630  -1.4630  -1.4630  -0.2461  -0.2461  -0.2461   0.1580
     0.1580   0.1580   1.3613   1.3613   1.3613   1.3613   1.3613   1.3614
     1.7612   2.5543   2.5543   2.5543   2.9461   2.9462   2.9462   4.1513
     4.1513   4.1514   4.4180   4.4180   4.4180   5.3199   5.9523   5.9523
     5.9523   5.9523   5.9523   5.9523   7.1095   7.1095   7.1095   7.1095
     7.1095   7.1095   7.1272   7.1272   7.1272   7.5068   7.5068   7.5068
     8.6522   8.6522   8.6522   8.6522   8.6542   8.6543   8.6543   8.6543
     8.6543   8.6543

          k = 0.1364 0.1364 0.2273 ( 21230 PWs)   bands (ev):

    -3.0276  -1.7968  -1.3889  -1.3889  -0.1726  -0.1726  -0.1721  -0.1720
     0.2301   0.2313   1.0340   1.0340   1.4340   1.4340   1.4349   1.8321
     1.8322   2.6257   2.6257   2.6263   3.0209   3.0209   3.3923   3.7631
     3.8495   4.4882   4.4882   4.6106   4.6106   5.3142   5.3142   5.6416
     5.6416   5.7796   6.0058   6.0058   6.4999   6.4999   6.8798   7.1860
     7.1860   7.1932   7.1932   7.1973   7.1973   7.5388   7.5388   7.9113
     8.0329   8.0329   8.3411   8.3411   8.3915   8.3916   8.7651   8.7651
     9.1049   9.1049

          k = 0.1364 0.1364 0.3182 ( 21232 PWs)   bands (ev):

    -2.9152  -2.0942  -1.2779  -1.2779  -0.4661  -0.4661  -0.0625  -0.0625
     0.3411   0.7408   0.7424   0.7424   1.1441   1.5429   1.5429   2.3369
     2.3369   2.3384   2.3384   2.7340   3.1064   3.4985   3.5208   3.5208
     3.9568   4.5935   4.5935   4.6702   4.6702   5.1058   5.1058   5.3633
     5.3633   5.7968   5.7968   6.1791   6.1791   6.2429   6.2729   6.9145
     6.9145   7.2931   7.2931   7.3019   7.3019   7.4008   7.4008   7.8872
     7.8872   8.0625   8.0625   8.2609   8.2609   8.5543   8.7614   8.8878
     8.8878   9.5892

          k = 0.1364 0.1364 0.4091 ( 21242 PWs)   bands (ev):

    -2.7656  -2.3549  -1.1300  -1.1300  -0.7239  -0.7239   0.0842   0.0842
     0.4868   0.4868   0.4875   0.8891   1.2852   1.6880   1.6880   2.0860
     2.0860   2.4704   2.8747   2.8747   2.8773   3.2672   4.0442   4.0442
     4.0530   4.0530   4.4697   4.7338   4.7338   5.1189   5.1189   5.2043
     5.2043   5.6233   5.6344   5.6345   6.2929   6.2929   6.6708   6.6709
     6.7851   6.7851   6.7988   7.4338   7.4338   7.4399   7.4399   7.7964
     7.7964   7.8183   7.8183   7.9426   8.6301   8.6301   9.0368   9.0369
     9.4311   9.4311

          k = 0.1364 0.1364-0.5000 ( 21210 PWs)   bands (ev):

    -2.5788  -2.5788  -0.9453  -0.9453  -0.9452  -0.9452   0.2673   0.2673
     0.2673   0.2674   0.6701   0.6702   1.8623   1.8623   1.8691   1.8691
     1.8691   1.8691   3.0557   3.0557   3.4445   3.4445   3.4445   3.4445
     4.6155   4.6156   4.6156   4.6156   4.9090   4.9090   4.9090   4.9090
     5.0304   5.0304   6.1949   6.1950   6.1950   6.1950   6.4629   6.4630
     6.4630   6.4630   7.3561   7.3561   7.6084   7.6084   7.6085   7.6085
     7.6088   7.6088   7.6088   7.6088   9.1605   9.1605   9.1605   9.1605
     9.2174   9.2174

          k = 0.1364 0.2273 0.2273 ( 21211 PWs)   bands (ev):

    -2.9527  -1.7226  -1.7226  -1.3149  -0.5029  -0.0992  -0.0986  -0.0986
     0.3033   0.3034   1.1069   1.1069   1.1077   1.5059   1.5060   1.9045
     1.9045   2.3024   3.0885   3.0886   3.0924   3.0924   3.4856   3.8341
     3.8341   4.2939   4.2939   4.5584   4.9993   4.9993   5.0709   5.3797
     5.3797   5.7079   5.7079   6.2383   6.5634   6.5634   6.5645   6.5645
     6.8797   6.9285   6.9285   7.2666   7.6299   7.6299   7.7183   7.7183
     7.9800   7.9800   8.4735   8.4735   8.4853   8.4853   8.7920   8.7920
     9.1172   9.1172

          k = 0.1364 0.2273 0.3182 ( 21250 PWs)   bands (ev):

    -2.8404  -2.0198  -1.6113  -1.2039  -0.7976  -0.3925   0.0108   0.0115
     0.4131   0.8138   0.8154   0.8162   1.2153   1.2160   2.0119   2.0131
     2.0138   2.4090   2.8046   3.1780   3.1994   3.5680   3.5917   3.9405
     3.9833   4.0296   4.3523   4.6637   4.7181   4.7391   4.7874   5.4319
     5.4617   5.5655   5.7965   5.9266   5.9510   6.2845   6.3167   6.6013
     6.6673   6.7305   7.0850   7.3693   7.3839   7.4382   7.7413   7.8549
     8.0820   8.0948   8.2274   8.5134   8.5838   8.8282   8.8873   8.9709
     9.0064   9.2764

          k = 0.1364 0.2273 0.4091 ( 21223 PWs)   bands (ev):

    -2.6909  -2.2804  -1.4630  -1.0561  -1.0560  -0.6502   0.1575   0.1581
     0.5593   0.5599   0.5607   0.9606   1.3579   1.3615   1.7605   2.1576
     2.5424   2.5511   2.5538   2.9464   3.3414   3.7098   3.7240   4.0822
     4.1146   4.1225   4.1712   4.4712   4.5123   4.8038   5.1883   5.2464
     5.3067   5.3162   5.6313   5.6878   6.0073   6.0406   6.0930   6.3585
     6.4682   6.8073   7.1930   7.2408   7.2551   7.5025   7.7235   7.8837
     8.1632   8.2152   8.2693   8.3961   8.4558   8.7273   8.8124   9.1175
     9.1302   9.4890

          k = 0.1364 0.2273-0.5000 ( 21238 PWs)   bands (ev):

    -2.5042  -2.5041  -1.2779  -1.2778  -0.8715  -0.8714   0.3405   0.3405
     0.3412   0.3413   0.7418   0.7418   1.5430   1.5430   1.9346   1.9346
     2.3379   2.3380   3.1225   3.1225   3.5157   3.5157   3.5163   3.5163
     4.2592   4.2592   4.6812   4.6812   4.7155   4.7155   4.9788   4.9788
     5.0692   5.0693   5.8352   5.8352   5.8773   5.8773   6.1538   6.1538
     6.6522   6.6522   6.9826   6.9826   7.6545   7.6545   7.8110   7.8111
     8.0594   8.0594   8.3705   8.3706   8.5730   8.5730   8.9051   8.9052
     9.2446   9.2446

          k = 0.1364 0.3182 0.3182 ( 21236 PWs)   bands (ev):

    -2.7282  -1.9083  -1.9083  -1.0930  -1.0929  -0.2822  -0.2822   0.1208
     0.5241   0.9231   0.9231   0.9248   0.9248   1.7224   1.7224   1.7243
     2.5170   2.5170   3.2852   3.2852   3.3016   3.3017   3.6973   3.6973
     4.0687   4.0687   4.4778   4.5071   4.5072   4.7687   4.8399   4.8399
     5.5331   5.5332   5.6464   5.6464   6.0362   6.0362   6.0589   6.3237
     6.7793   6.7793   6.8039   6.8039   7.2213   7.4671   8.2202   8.2202
     8.3163   8.3163   8.3421   8.3421   8.9261   8.9261   8.9979   8.9980
     9.0838   9.1135

          k = 0.1364 0.3182 0.4091 ( 21217 PWs)   bands (ev):

    -2.5788  -2.1687  -1.7597  -1.3519  -0.9453  -0.5397  -0.1353   0.2673
     0.2681   0.6695   1.0687   1.0705   1.4668   1.4686   1.4705   2.2628
     2.6502   2.6608   3.0538   3.0544   3.4280   3.4386   3.8132   3.8199
     3.8356   4.2194   4.2243   4.2807   4.9087   4.9560   5.0012   5.0285
     5.0340   5.2919   5.4048   5.4422   5.6569   6.0841   6.1727   6.1864
     6.1887   6.5579   6.5851   7.2651   7.5834   7.7298   7.7446   8.1035
     8.3662   8.4525   8.5310   8.7194   8.7536   8.8379   8.8619   8.8827
     9.0472   9.5154

          k = 0.1364 0.3182-0.5000 ( 21242 PWs)   bands (ev):

    -2.3923  -2.3922  -1.5742  -1.5741  -0.7608  -0.7607   0.0482   0.0482
     0.4502   0.4503   1.2506   1.2506   1.2524   1.2525   2.0430   2.0430
     2.8355   2.8355   2.8401   2.8402   3.6063   3.6063   3.6222   3.6222
     3.9909   3.9910   4.4553   4.4554   4.7603   4.7604   5.0832   5.0833
     5.2209   5.2209   5.5307   5.5307   5.5950   5.5950   5.9036   5.9037
     6.3473   6.3473   7.1428   7.1428   7.6216   7.6216   8.0875   8.0875
     8.2991   8.2991   8.5432   8.5433   8.6271   8.6271   9.1074   9.1074
     9.4128   9.4128

          k = 0.1364 0.4091 0.4091 ( 21260 PWs)   bands (ev):

    -2.4295  -2.0198  -2.0198  -1.6113  -0.7977  -0.3925  -0.3925   0.0115
     0.4137   0.8154   0.8155   1.2161   1.6118   1.6118   2.0100   2.0100
     2.7939   2.7939   3.1882   3.1883   3.1967   3.1967   3.5848   3.5848
     4.3414   4.3414   4.3565   4.3565   4.7902   4.7902   4.8067   4.8067
     5.0482   5.4282   5.4282   5.4970   5.5585   5.5585   5.8690   5.9401
     5.9401   6.6854   6.6854   7.1098   7.5873   8.0604   8.2172   8.2173
     8.2512   8.2512   8.2665   8.5933   8.8788   8.8789   9.2707   9.2707
     9.3857   9.4016

          k = 0.1364 0.4091-0.5000 ( 21244 PWs)   bands (ev):

    -2.2432  -2.2431  -1.8340  -1.8339  -0.6134  -0.6133  -0.2088  -0.2087
     0.5964   0.5965   0.9977   0.9977   1.7929   1.7930   2.1874   2.1875
     2.5838   2.5838   2.9733   2.9733   3.3743   3.3744   3.7633   3.7633
     4.1274   4.1274   4.5091   4.5092   4.6015   4.6015   4.9899   4.9899
     5.2219   5.2219   5.3489   5.3489   5.5871   5.5871   5.7300   5.7300
     6.1235   6.1235   7.2031   7.2031   7.6659   7.6659   8.0389   8.0390
     8.3852   8.3853   8.8038   8.8038   8.8195   8.8195   9.0592   9.0592
     9.4116   9.4116

          k = 0.1364-0.5000-0.5000 ( 21272 PWs)   bands (ev):

    -2.0571  -2.0570  -2.0570  -2.0569  -0.4293  -0.4293  -0.4293  -0.4292
     0.7789   0.7790   0.7790   0.7790   2.3677   2.3677   2.3677   2.3678
     2.3678   2.3678   2.3678   2.3678   3.9370   3.9370   3.9370   3.9370
     3.9370   3.9370   3.9370   3.9370   5.1415   5.1415   5.1415   5.1415
     5.1415   5.1416   5.1416   5.1416   5.3932   5.3932   5.3932   5.3933
     6.6536   6.6536   6.6536   6.6536   8.1837   8.1837   8.1837   8.1838
     8.2202   8.2202   8.2202   8.2202   9.3709   9.3709   9.3709   9.3710
     9.6047   9.6048

          k = 0.2273 0.2273 0.2273 ( 21224 PWs)   bands (ev):

    -2.8778  -1.6484  -1.6484  -1.6483  -0.4293  -0.4293  -0.4293   0.3765
     0.3765   0.3765   0.7798   1.5785   1.5785   1.5785   1.5785   1.5785
     1.5786   2.7687   2.7687   2.7687   3.5565   3.5565   3.5565   3.9050
     3.9050   3.9050   4.7524   4.7524   4.7525   5.0680   5.0680   5.0680
     5.0680   5.0680   5.0680   6.2495   6.2495   6.2495   6.6961   7.0084
     7.0084   7.0084   7.0085   7.0085   7.0085   8.0471   8.0471   8.0472
     8.1710   8.1710   8.1710   8.1710   8.1710   8.1710   9.2227   9.2227
     9.2227   9.2227

          k = 0.2273 0.2273 0.3182 ( 21255 PWs)   bands (ev):

    -2.7656  -1.9454  -1.5371  -1.5371  -0.7239  -0.7239  -0.3190   0.4862
     0.4862   0.4876   0.8867   1.2881   1.2881   1.6873   1.6873   2.0842
     2.0842   2.4819   2.4819   3.2494   3.2660   3.6621   4.0114   4.0114
     4.0528   4.0528   4.4224   4.4224   4.4720   4.7878   4.7879   5.1687
     5.1687   5.2470   5.2470   5.6111   5.9705   5.9705   6.3811   6.3811
     7.1172   7.1172   7.1870   7.4849   7.4849   7.5395   7.5395   7.8912
     7.8912   8.1453   8.1453   8.6570   8.6570   8.8916   8.9650   8.9650
     9.3418   9.3418

          k = 0.2273 0.2273 0.4091 ( 21251 PWs)   bands (ev):

    -2.6161  -2.2059  -1.3889  -1.3889  -0.9821  -0.9821  -0.1720   0.2315
     0.6323   0.6323   1.0334   1.0334   1.4305   1.8322   1.8322   2.2298
     2.2298   2.6143   2.6231   2.6231   3.7780   3.7950   3.7950   3.8006
     4.1530   4.1530   4.2452   4.5415   4.5415   4.5781   4.5781   4.9930
     5.2866   5.2866   5.7299   5.7299   5.7750   5.7751   5.7878   5.7878
     6.9244   6.9244   7.2591   7.2591   7.6459   7.6459   7.7105   7.9751
     7.9751   8.2649   8.2649   8.7551   8.7551   8.8488   9.1755   9.1755
     9.2171   9.2172

          k = 0.2273 0.2273-0.5000 ( 21240 PWs)   bands (ev):

    -2.4295  -2.4295  -1.2039  -1.2039  -1.2039  -1.2038   0.0115   0.0116
     0.8147   0.8148   0.8148   0.8148   2.0069   2.0069   2.0131   2.0131
     2.0131   2.0131   3.1940   3.1940   3.1940   3.1940   3.9561   3.9562
     4.3298   4.3298   4.3298   4.3298   4.4195   4.4195   5.1110   5.1110
     5.1110   5.1110   5.5481   5.5481   5.5481   5.5481   6.3349   6.3349
     6.3349   6.3349   7.4352   7.4352   7.4353   7.4353   8.2651   8.2651
     8.3240   8.3241   8.3241   8.3241   8.7504   8.7504   8.7504   8.7504
     9.6672   9.6673

          k = 0.2273 0.3182 0.3182 ( 21230 PWs)   bands (ev):

    -2.6535  -1.8340  -1.8340  -1.4259  -1.0191  -0.6133  -0.6133   0.1949
     0.5958   0.9959   0.9959   1.3971   1.3971   1.7948   1.7948   2.1926
     2.1926   2.1937   2.9827   2.9828   3.3566   3.3566   4.1176   4.1393
     4.1394   4.1548   4.1548   4.5268   4.5268   4.5437   4.8918   4.8918
     4.9645   4.9646   5.3341   5.3341   5.6948   5.7408   6.4854   6.4854
     6.8608   6.8608   7.2587   7.2587   7.5997   7.5998   7.6768   8.0272
     8.0272   8.2296   8.3774   8.3774   8.9773   8.9773   9.0730   9.0730
     9.2011   9.7874

          k = 0.2273 0.3182 0.4091 ( 21256 PWs)   bands (ev):

    -2.5041  -2.0942  -1.6855  -1.2779  -1.2778  -0.8714  -0.4661  -0.0618
     0.7418   1.1415   1.1426   1.5393   1.5411   1.5423   1.9408   2.3349
     2.3369   2.7221   2.7309   2.7324   3.4993   3.5099   3.5136   3.8909
     3.9011   4.2590   4.2723   4.6467   4.6575   4.6633   4.7205   4.7354
     5.0279   5.0430   5.1148   5.4780   5.4925   5.8736   6.2535   6.2677
     6.6258   6.6428   7.0127   7.3706   7.4139   7.7440   8.1106   8.1321
     8.1989   8.2561   8.5474   8.7069   8.8414   8.8961   9.0097   9.2148
     9.3344   9.4234

          k = 0.2273 0.3182-0.5000 ( 21234 PWs)   bands (ev):

    -2.3177  -2.3176  -1.5001  -1.5000  -1.0930  -1.0929  -0.2822  -0.2821
     0.9241   0.9242   1.3233   1.3233   1.7236   1.7236   2.1153   2.1153
     2.5169   2.5169   2.9072   2.9072   3.3011   3.3011   3.6774   3.6775
     4.0569   4.0569   4.4355   4.4355   4.5312   4.5313   4.8155   4.8155
     5.1814   5.1815   5.3068   5.3068   5.6879   5.6879   6.0527   6.0527
     6.8017   6.8017   6.8261   6.8261   7.8902   7.8902   7.9211   7.9211
     8.6340   8.6341   8.6653   8.6654   8.7521   8.7521   9.0990   9.0990
     9.4458   9.4460

          k = 0.2273 0.4091 0.4091 ( 21269 PWs)   bands (ev):

    -2.3549  -1.9454  -1.9454  -1.5371  -1.1299  -0.7239  -0.7239  -0.3189
     0.8877   1.2881   1.2881   1.6843   1.6843   1.6874   2.0823   2.0823
     2.8657   2.8657   2.8744   2.8744   3.2598   3.2598   3.2671   3.2671
     4.0417   4.0417   4.4001   4.4036   4.4036   4.7860   4.7860   4.8861
     4.8861   5.1464   5.2461   5.2461   5.6544   6.0104   6.0104   6.3964
     6.3964   6.7676   6.7676   6.7930   7.8606   7.9359   7.9359   8.2600
     8.2601   8.6344   8.6507   8.6507   8.7196   8.9760   8.9760   9.0717
     9.3591   9.3591

          k = 0.2273 0.4091-0.5000 ( 21244 PWs)   bands (ev):

    -2.1687  -2.1686  -1.7597  -1.7597  -0.9452  -0.9452  -0.5397  -0.5396
     1.0698   1.0699   1.4697   1.4698   1.8653   1.8654   2.2596   2.2596
     2.6558   2.6558   3.0449   3.0450   3.0533   3.0534   3.4436   3.4436
     3.8304   3.8304   4.2146   4.2147   4.5760   4.5760   4.9575   4.9575
     5.0384   5.0384   5.4238   5.4238   5.8060   5.8060   6.1853   6.1854
     6.1885   6.1885   7.3103   7.3103   7.3498   7.3498   8.4390   8.4390
     8.4892   8.4892   8.7767   8.7767   8.8035   8.8035   9.1490   9.1491
     9.2004   9.2004

          k = 0.2273-0.5000-0.5000 ( 21272 PWs)   bands (ev):

    -1.9827  -1.9826  -1.9826  -1.9826  -0.7608  -0.7607  -0.7607  -0.7607
     1.2517   1.2517   1.2517   1.2518   2.4398   2.4398   2.4398   2.4398
     2.4398   2.4398   2.4399   2.4399   3.6207   3.6207   3.6207   3.6207
     3.6207   3.6207   3.6207   3.6207   4.7507   4.7507   4.7507   4.7508
     5.5955   5.5956   5.5956   5.5956   5.5956   5.5956   5.5956   5.5956
     6.7360   6.7360   6.7360   6.7360   7.9048   7.9049   7.9049   7.9049
     8.9430   8.9430   8.9861   8.9869   8.9871   8.9871   8.9871   8.9871
     8.9872   8.9872

          k = 0.3182 0.3182 0.3182 ( 21239 PWs)   bands (ev):

    -2.5415  -1.7226  -1.7226  -1.7226  -0.9083  -0.9083  -0.9083  -0.0985
     1.1051   1.1051   1.1052   1.9034   1.9034   1.9034   1.9034   1.9034
     1.9035   2.6965   2.6965   2.6965   3.4636   3.4636   3.4636   4.2450
     4.2450   4.2450   4.2450   4.2450   4.2451   4.6231   4.6231   4.6231
     5.0794   5.0794   5.0794   5.4581   5.4581   5.4582   6.9704   6.9704
     6.9704   6.9704   6.9704   6.9704   7.7467   7.7468   7.7468   7.7468
     7.7468   7.7468   8.1653   8.9761   8.9761   8.9761   9.4067   9.4067
     9.4067   9.9046

          k = 0.3182 0.3182 0.4091 ( 21265 PWs)   bands (ev):

    -2.3922  -1.9826  -1.5742  -1.5742  -1.1669  -1.1669  -0.7607  -0.3557
     1.2506   1.2506   1.6481   1.6499   1.6499   2.0481   2.0481   2.4430
     2.4431   2.4449   2.4449   2.8298   3.2313   3.6062   3.6062   3.6166
     3.6166   3.9972   3.9972   4.3684   4.3851   4.3851   4.7452   4.7453
     4.8513   5.2117   5.2384   5.2384   5.9853   5.9853   6.3581   6.3581
     7.1129   7.1129   7.1327   7.1327   7.4870   7.4870   7.5009   7.5009
     8.2673   8.2673   8.5816   8.5816   8.6861   9.3323   9.3323   9.3364
     9.4002   9.4002

          k = 0.3182 0.3182-0.5000 ( 21266 PWs)   bands (ev):

    -2.2059  -2.2059  -1.3890  -1.3889  -1.3889  -1.3888  -0.5765  -0.5764
     1.4322   1.4323   1.4323   1.4323   2.2235   2.2235   2.2286   2.2286
     2.2287   2.2287   3.0147   3.0148   3.0148   3.0148   3.7841   3.7841
     3.7841   3.7841   3.7948   3.7948   4.5571   4.5572   4.5572   4.5573
     5.0038   5.0039   5.7740   5.7740   5.7741   5.7741   6.5442   6.5442
     6.5442   6.5442   7.2896   7.2896   7.2896   7.2896   8.0301   8.0301
     8.0302   8.0302   8.8191   8.8191   8.8191   8.8191   9.2380   9.2380
     9.4744   9.4745

          k = 0.3182 0.4091 0.4091 ( 21230 PWs)   bands (ev):

    -2.2432  -1.8340  -1.8340  -1.4260  -1.4259  -1.0191  -1.0190  -0.6133
     1.3960   1.7930   1.7930   1.7949   1.7949   2.1906   2.1906   2.1925
     2.5870   2.5870   2.9733   2.9733   2.9817   2.9817   3.3669   3.3669
     3.7485   3.7586   3.7586   4.1385   4.1385   4.1437   4.1437   4.5218
     5.3558   5.3558   5.7384   5.7384   5.7406   6.4988   6.4988   6.5111
     6.8776   6.8776   6.8863   6.8863   7.6321   7.6321   7.6551   7.6551
     8.0018   8.0215   8.0215   8.7550   8.7550   8.7917   9.1538   9.1539
     9.2056   9.4431

          k = 0.3182 0.4091-0.5000 ( 21242 PWs)   bands (ev):

    -2.0570  -2.0570  -1.6484  -1.6483  -1.2409  -1.2408  -0.8345  -0.8344
     1.5774   1.5774   1.9738   1.9739   1.9758   1.9758   2.3677   2.3678
     2.7636   2.7636   2.7666   2.7667   3.1523   3.1524   3.1579   3.1579
     3.5493   3.5493   3.9260   3.9261   3.9350   3.9350   4.3141   4.3142
     5.5278   5.5278   5.9111   5.9111   6.2932   6.2932   6.2975   6.2975
     6.6749   6.6750   7.0684   7.0684   7.4274   7.4274   7.8098   7.8099
     8.1811   8.1811   8.2088   8.2088   8.5732   8.5732   8.9399   8.9400
     9.6079   9.6080

          k = 0.3182-0.5000-0.5000 ( 21252 PWs)   bands (ev):

    -1.8712  -1.8711  -1.8711  -1.8711  -1.0560  -1.0560  -1.0560  -1.0559
     1.7586   1.7586   1.7586   1.7587   2.5478   2.5478   2.5478   2.5478
     2.5478   2.5478   2.5479   2.5479   3.3363   3.3363   3.3363   3.3363
     3.3363   3.3363   3.3363   3.3363   4.1030   4.1030   4.1030   4.1031
     6.0862   6.0862   6.0862   6.0862   6.0862   6.0862   6.0862   6.0862
     6.8460   6.8460   6.8460   6.8460   7.6239   7.6240   7.6240   7.6240
     8.3608   8.3609   8.3609   8.3609   8.3609   8.3609   8.3609   8.3609
     9.7792   9.7793

          k = 0.4091 0.4091 0.4091 ( 21260 PWs)   bands (ev):

    -2.0942  -1.6855  -1.6855  -1.6854  -1.2779  -1.2779  -1.2778  -0.8714
     1.9377   1.9377   1.9377   2.3349   2.3349   2.3349   2.3349   2.3349
     2.3349   2.7307   2.7307   2.7307   3.1165   3.1165   3.1165   3.5095
     3.5095   3.5095   3.5095   3.5095   3.5095   3.8994   3.8994   3.8994
     5.8777   5.8777   5.8777   6.2642   6.2642   6.2643   7.0203   7.0203
     7.0203   7.0204   7.0204   7.0204   7.4089   7.4089   7.4089   7.4089
     7.4089   7.4089   8.1532   8.1532   8.1532   8.5457   8.5457   8.5457
     9.7237  10.3211

          k = 0.4091 0.4091-0.5000 ( 21228 PWs)   bands (ev):

    -1.9083  -1.9083  -1.5001  -1.5000  -1.5000  -1.5000  -1.0930  -1.0929
     2.1183   2.1184   2.1184   2.1185   2.5118   2.5118   2.5150   2.5150
     2.5151   2.5151   2.9071   2.9071   2.9071   2.9071   3.2953   3.2953
     3.2954   3.2954   3.3005   3.3005   3.6872   3.6873   3.6873   3.6873
     6.0529   6.0529   6.4340   6.4340   6.4340   6.4340   6.8218   6.8218
     6.8218   6.8219   7.1973   7.1973   7.1974   7.1974   7.5728   7.5728
     7.5729   7.5729   7.9627   7.9627   7.9627   7.9627   8.3332   8.3332
    10.2727  10.4903

          k = 0.4091-0.5000-0.5000 ( 21224 PWs)   bands (ev):

    -1.7226  -1.7226  -1.7226  -1.7225  -1.3149  -1.3149  -1.3149  -1.3148
     2.2988   2.2988   2.2988   2.2989   2.6916   2.6916   2.6916   2.6917
     2.6917   2.6917   2.6917   2.6917   3.0862   3.0862   3.0862   3.0862
     3.0862   3.0862   3.0862   3.0862   3.4737   3.4738   3.4738   3.4738
     6.6103   6.6103   6.6103   6.6103   6.6103   6.6103   6.6103   6.6103
     6.9889   6.9889   6.9889   6.9889   7.3776   7.3776   7.3776   7.3777
     7.7508   7.7508   7.7508   7.7509   7.7509   7.7509   7.7509   7.7509
    10.6631  10.6631

          k =-0.5000-0.5000-0.5000 ( 21368 PWs)   bands (ev):

    -1.5372  -1.5372  -1.5372  -1.5371  -1.5371  -1.5371  -1.5371  -1.5370
     2.8711   2.8711   2.8711   2.8711   2.8711   2.8712   2.8712   2.8712
     2.8712   2.8712   2.8712   2.8712   2.8712   2.8712   2.8712   2.8712
     2.8712   2.8712   2.8713   2.8713   2.8713   2.8713   2.8713   2.8713
     7.1659   7.1659   7.1659   7.1659   7.1659   7.1659   7.1659   7.1659
     7.1660   7.1660   7.1660   7.1660   7.1660   7.1660   7.1660   7.1660
     7.1660   7.1660   7.1660   7.1660   7.1660   7.1660   7.1660   7.1660
    11.3663  11.3663

     the Fermi energy is     7.9285 ev

!    total energy              =   -1264.08749638 Ry
     Harris-Foulkes estimate   =   -1264.08749640 Ry
     estimated scf accuracy    <       0.00000033 Ry

     total all-electron energy =    -15540.656518 Ry

     The total energy is the sum of the following terms:

     one-electron contribution =     101.33537318 Ry
     hartree contribution      =       0.19688236 Ry
     xc contribution           =     -82.93440060 Ry
     ewald contribution        =    -173.00051813 Ry
     one-center paw contrib.   =   -1109.68209033 Ry
     smearing contrib. (-TS)   =      -0.00274286 Ry

     convergence has been achieved in   8 iterations

     Forces acting on atoms (cartesian axes, Ry/au):

     atom    1 type  1   force =     0.00000000    0.00000000    0.00000000
     atom    2 type  1   force =     0.00000087    0.00000087    0.00000000
     atom    3 type  1   force =     0.00000087   -0.00000000    0.00000087
     atom    4 type  1   force =    -0.00000000    0.00000087    0.00000087
     atom    5 type  1   force =     0.00000000    0.00000000    0.00000000
     atom    6 type  1   force =    -0.00000205   -0.00000205    0.00000000
     atom    7 type  1   force =     0.00000087    0.00000000   -0.00000087
     atom    8 type  1   force =    -0.00000000    0.00000087   -0.00000087
     atom    9 type  1   force =     0.00000000    0.00000000    0.00000000
     atom   10 type  1   force =     0.00000087   -0.00000087    0.00000000
     atom   11 type  1   force =    -0.00000205    0.00000000   -0.00000205
     atom   12 type  1   force =     0.00000000   -0.00000087    0.00000087
     atom   13 type  1   force =     0.00000000    0.00000000    0.00000000
     atom   14 type  1   force =    -0.00000205    0.00000205   -0.00000000
     atom   15 type  1   force =    -0.00000205    0.00000000    0.00000205
     atom   16 type  1   force =    -0.00000000   -0.00000087   -0.00000087
     atom   17 type  1   force =     0.00000000    0.00000000    0.00000000
     atom   18 type  1   force =    -0.00000087    0.00000087    0.00000000
     atom   19 type  1   force =    -0.00000087    0.00000000    0.00000087
     atom   20 type  1   force =    -0.00000000   -0.00000205   -0.00000205
     atom   21 type  1   force =     0.00000000    0.00000000    0.00000000
     atom   22 type  1   force =     0.00000205   -0.00000205    0.00000000
     atom   23 type  1   force =    -0.00000087    0.00000000   -0.00000087
     atom   24 type  1   force =    -0.00000000   -0.00000205    0.00000205
     atom   25 type  1   force =     0.00000000    0.00000000    0.00000000
     atom   26 type  1   force =    -0.00000087   -0.00000087   -0.00000000
     atom   27 type  1   force =     0.00000205   -0.00000000   -0.00000205
     atom   28 type  1   force =     0.00000000    0.00000205   -0.00000205
     atom   29 type  1   force =     0.00000000    0.00000000    0.00000000
     atom   30 type  1   force =     0.00000205    0.00000205    0.00000000
     atom   31 type  1   force =     0.00000205   -0.00000000    0.00000205
     atom   32 type  1   force =     0.00000000    0.00000205    0.00000205

     Total force =     0.000011     Total SCF correction =     0.000102
     SCF correction compared to forces is large: reduce conv_thr to get better values


     Computing stress (Cartesian axis) and pressure

          total   stress  (Ry/bohr**3)                   (kbar)     P=    0.05
   0.00000031   0.00000000   0.00000000          0.05      0.00      0.00
   0.00000000   0.00000031   0.00000000          0.00      0.05      0.00
   0.00000000   0.00000000   0.00000031          0.00      0.00      0.05


     Writing output data file jUtKmYbJwcQIubRg.save/
 
     init_run     :      6.82s CPU      6.99s WALL (       1 calls)
     electrons    :     96.24s CPU     98.36s WALL (       1 calls)
     forces       :      1.17s CPU      1.22s WALL (       1 calls)
     stress       :      5.98s CPU      6.01s WALL (       1 calls)

     Called by init_run:
     wfcinit      :      6.18s CPU      6.32s WALL (       1 calls)
     potinit      :      0.11s CPU      0.12s WALL (       1 calls)
     hinit0       :      0.38s CPU      0.40s WALL (       1 calls)

     Called by electrons:
     c_bands      :     84.50s CPU     86.26s WALL (       9 calls)
     sum_band     :     11.10s CPU     11.39s WALL (       9 calls)
     v_of_rho     :      0.10s CPU      0.11s WALL (       9 calls)
     newd         :      0.08s CPU      0.11s WALL (       9 calls)
     PAW_pot      :      0.52s CPU      0.53s WALL (       9 calls)
     mix_rho      :      0.02s CPU      0.02s WALL (       9 calls)

     Called by c_bands:
     init_us_2    :      1.74s CPU      1.76s WALL (    1176 calls)
     cegterg      :     79.86s CPU     81.26s WALL (     504 calls)

     Called by sum_band:
     sum_band:bec :      0.05s CPU      0.05s WALL (     504 calls)
     addusdens    :      0.06s CPU      0.08s WALL (       9 calls)

     Called by *egterg:
     h_psi        :     58.24s CPU     59.42s WALL (    2102 calls)
     s_psi        :      4.75s CPU      4.77s WALL (    2102 calls)
     g_psi        :      0.22s CPU      0.22s WALL (    1542 calls)
     cdiaghg      :     11.78s CPU     11.83s WALL (    1990 calls)

     Called by h_psi:
     h_psi:pot    :     57.88s CPU     59.05s WALL (    2102 calls)
     h_psi:calbec :      4.78s CPU      5.08s WALL (    2102 calls)
     vloc_psi     :     48.25s CPU     49.10s WALL (    2102 calls)
     add_vuspsi   :      4.83s CPU      4.85s WALL (    2102 calls)

     General routines
     calbec       :      8.68s CPU      9.14s WALL (    2886 calls)
     fft          :      0.40s CPU      0.43s WALL (     126 calls)
     ffts         :      0.01s CPU      0.01s WALL (       9 calls)
     fftw         :     52.72s CPU     53.65s WALL (  203948 calls)
 
     Parallel routines
     fft_scatt_xy :      4.82s CPU      4.90s WALL (  204083 calls)
     fft_scatt_yz :     31.69s CPU     32.29s WALL (  204083 calls)
 
     PWSCF        :  1m51.77s CPU     1m57.74s WALL

 
   This run was terminated on:   3:22: 2  25Mar2020            

=------------------------------------------------------------------------------=
   JOB DONE.
=------------------------------------------------------------------------------=
