
     Program PWSCF v.6.3 starts on 26Mar2020 at  4:18:19 

     This program is part of the open-source Quantum ESPRESSO suite
     for quantum simulation of materials; please cite
         "P. Giannozzi et al., J. Phys.:Condens. Matter 21 395502 (2009);
         "P. Giannozzi et al., J. Phys.:Condens. Matter 29 465901 (2017);
          URL http://www.quantum-espresso.org", 
     in publications or presentations arising from this work. More details at
     http://www.quantum-espresso.org/quote

     Parallel version (MPI & OpenMP), running on      20 processor cores
     Number of MPI processes:                20
     Threads/MPI process:                     1

     MPI processes distributed on     1 nodes
     R & G space division:  proc/nbgrp/npool/nimage =      20
     Reading input from /rds/homes/b/bxp912/jobs/20200324_al_eos_e/wd/pwscf_ec/ec_9_6.in
Warning: card &IONS ignored
Warning: card ION_DYNAMICS = 'BFGS', ignored
Warning: card / ignored
Warning: card &CELL ignored
Warning: card CELL_DYNAMICS = 'BFGS', ignored
Warning: card CELL_FACTOR = 2.0, ignored
Warning: card PRESS = 0.0, ignored
Warning: card / ignored

     Current dimensions of program PWSCF are:
     Max number of different atomic species (ntypx) = 10
     Max number of k-points (npk) =  40000
     Max angular momentum in pseudopotentials (lmaxx) =  3
     Message from routine read_upf::
     Pseudo file /rds/homes/b/bxp912/pp/Al.pbe-nl-kjpaw_psl.1.0.0.UPF has been successfully fixed on the fly.
To avoid this message in the future you can permanently fix 
 your pseudo files following instructions given in: 
https://gitlab.com/QEF/q-e/blob/master/upftools/how_to_fix_upf.md
               file Al.pbe-nl-kjpaw_psl.1.0.0.UPF: wavefunction(s)  3S 3P renormalized

     Subspace diagonalization in iterative solution of the eigenvalue problem:
     a serial algorithm will be used

     Found symmetry operation: I + (  0.2500  0.2500  0.0000)
     This is a supercell, fractional translations are disabled
 
     Parallelization info
     --------------------
     sticks:   dense  smooth     PW     G-vecs:    dense   smooth      PW
     Min         185     185     51                 8495     8495    1230
     Max         187     187     53                 8500     8500    1232
     Sum        3717    3717   1033               169933   169933   24623
 


     bravais-lattice index     =            0
     lattice parameter (alat)  =      15.2652  a.u.
     unit-cell volume          =    3557.1654 (a.u.)^3
     number of atoms/cell      =           32
     number of atomic types    =            1
     number of electrons       =        96.00
     number of Kohn-Sham states=           58
     kinetic-energy cutoff     =      50.0000  Ry
     charge density cutoff     =     200.0000  Ry
     convergence threshold     =      1.0E-06
     mixing beta               =       0.1000
     number of iterations used =           10  plain     mixing
     Exchange-correlation      = SLA PW PBX PBC ( 1  4  3  4 0 0)

     celldm(1)=  15.265160  celldm(2)=   0.000000  celldm(3)=   0.000000
     celldm(4)=   0.000000  celldm(5)=   0.000000  celldm(6)=   0.000000

     crystal axes: (cart. coord. in units of alat)
               a(1) = (   1.000004   0.000000   0.000000 )  
               a(2) = (   0.000000   1.003337   0.000000 )  
               a(3) = (   0.000000   0.000000   0.996670 )  

     reciprocal axes: (cart. coord. in units 2 pi/alat)
               b(1) = (  0.999996  0.000000  0.000000 )  
               b(2) = (  0.000000  0.996674  0.000000 )  
               b(3) = (  0.000000  0.000000  1.003341 )  


     PseudoPot. # 1 for Al read from file:
     /rds/homes/b/bxp912/pp/Al.pbe-nl-kjpaw_psl.1.0.0.UPF
     MD5 check sum: 339dbea23cf3ab9a065ad45c0f9085d7
     Pseudo is Projector augmented-wave + core cor, Zval =  3.0
     Generated using "atomic" code by A. Dal Corso v.5.1
     Shape of augmentation charge: PSQ
     Using radial grid of 1135 points,  4 beta functions with: 
                l(1) =   0
                l(2) =   0
                l(3) =   1
                l(4) =   1
     Q(r) pseudized with 0 coefficients 


     atomic species   valence    mass     pseudopotential
        Al             3.00    26.98200     Al( 1.00)

      8 Sym. Ops., with inversion, found



   Cartesian axes

     site n.     atom                  positions (alat units)
         1           Al  tau(   1) = (   0.0000000   0.0000000   0.0000000  )
         2           Al  tau(   2) = (   0.2500009   0.2508343   0.0000000  )
         3           Al  tau(   3) = (   0.2500009   0.0000000   0.2491676  )
         4           Al  tau(   4) = (   0.0000000   0.2508343   0.2491676  )
         5           Al  tau(   5) = (   0.0000000   0.0000000   0.4983352  )
         6           Al  tau(   6) = (   0.2500009   0.2508343   0.4983352  )
         7           Al  tau(   7) = (   0.2500009   0.0000000   0.7475028  )
         8           Al  tau(   8) = (   0.0000000   0.2508343   0.7475028  )
         9           Al  tau(   9) = (   0.0000000   0.5016685   0.0000000  )
        10           Al  tau(  10) = (   0.2500009   0.7525028   0.0000000  )
        11           Al  tau(  11) = (   0.2500009   0.5016685   0.2491676  )
        12           Al  tau(  12) = (   0.0000000   0.7525028   0.2491676  )
        13           Al  tau(  13) = (   0.0000000   0.5016685   0.4983352  )
        14           Al  tau(  14) = (   0.2500009   0.7525028   0.4983352  )
        15           Al  tau(  15) = (   0.2500009   0.5016685   0.7475028  )
        16           Al  tau(  16) = (   0.0000000   0.7525028   0.7475028  )
        17           Al  tau(  17) = (   0.5000019   0.0000000   0.0000000  )
        18           Al  tau(  18) = (   0.7500028   0.2508343   0.0000000  )
        19           Al  tau(  19) = (   0.7500028   0.0000000   0.2491676  )
        20           Al  tau(  20) = (   0.5000019   0.2508343   0.2491676  )
        21           Al  tau(  21) = (   0.5000019   0.0000000   0.4983352  )
        22           Al  tau(  22) = (   0.7500028   0.2508343   0.4983352  )
        23           Al  tau(  23) = (   0.7500028   0.0000000   0.7475028  )
        24           Al  tau(  24) = (   0.5000019   0.2508343   0.7475028  )
        25           Al  tau(  25) = (   0.5000019   0.5016685   0.0000000  )
        26           Al  tau(  26) = (   0.7500028   0.7525028   0.0000000  )
        27           Al  tau(  27) = (   0.7500028   0.5016685   0.2491676  )
        28           Al  tau(  28) = (   0.5000019   0.7525028   0.2491676  )
        29           Al  tau(  29) = (   0.5000019   0.5016685   0.4983352  )
        30           Al  tau(  30) = (   0.7500028   0.7525028   0.4983352  )
        31           Al  tau(  31) = (   0.7500028   0.5016685   0.7475028  )
        32           Al  tau(  32) = (   0.5000019   0.7525028   0.7475028  )

     number of k points=   216  Marzari-Vanderbilt smearing, width (Ry)=  0.0400

     Number of k-points >= 100: set verbosity='high' to print them.

     Dense  grid:   169933 G-vectors     FFT dimensions: (  72,  72,  72)

     Estimated max dynamical RAM per process >     232.02 MB

     Estimated total dynamical RAM >       4.53 GB

     Initial potential from superposition of free atoms

     starting charge   95.92671, renormalised to   96.00000
     Starting wfcs are  128 randomized atomic wfcs
     Checking if some PAW data can be deallocated... 

     total cpu time spent up to now is       32.8 secs

     Self-consistent Calculation

     iteration #  1     ecut=    50.00 Ry     beta= 0.10
     Davidson diagonalization with overlap
     ethr =  1.00E-02,  avg # of iterations =  3.1

     Threshold (ethr) on eigenvalues was too large:
     Diagonalizing with lowered threshold

     Davidson diagonalization with overlap
     ethr =  1.91E-04,  avg # of iterations =  4.6

     total cpu time spent up to now is      152.7 secs

     total energy              =   -1264.12487952 Ry
     Harris-Foulkes estimate   =   -1264.13439161 Ry
     estimated scf accuracy    <       0.17937416 Ry

     iteration #  2     ecut=    50.00 Ry     beta= 0.10
     Davidson diagonalization with overlap
     ethr =  1.87E-04,  avg # of iterations =  1.1

     total cpu time spent up to now is      189.3 secs

     total energy              =   -1264.08381014 Ry
     Harris-Foulkes estimate   =   -1264.12565461 Ry
     estimated scf accuracy    <       0.14408887 Ry

     iteration #  3     ecut=    50.00 Ry     beta= 0.10
     Davidson diagonalization with overlap
     ethr =  1.50E-04,  avg # of iterations =  1.0

     total cpu time spent up to now is      226.3 secs

     total energy              =   -1264.08656734 Ry
     Harris-Foulkes estimate   =   -1264.08657415 Ry
     estimated scf accuracy    <       0.00025064 Ry

     iteration #  4     ecut=    50.00 Ry     beta= 0.10
     Davidson diagonalization with overlap
     c_bands:  1 eigenvalues not converged
     c_bands:  1 eigenvalues not converged
     c_bands:  1 eigenvalues not converged
     c_bands:  2 eigenvalues not converged
     c_bands:  1 eigenvalues not converged
     c_bands:  1 eigenvalues not converged
     c_bands:  1 eigenvalues not converged
     c_bands:  1 eigenvalues not converged
     c_bands:  1 eigenvalues not converged
     c_bands:  1 eigenvalues not converged
     c_bands:  1 eigenvalues not converged
     c_bands:  1 eigenvalues not converged
     c_bands:  2 eigenvalues not converged
     c_bands:  2 eigenvalues not converged
     c_bands:  1 eigenvalues not converged
     ethr =  2.61E-07,  avg # of iterations =  7.6

     total cpu time spent up to now is      313.2 secs

     total energy              =   -1264.08746898 Ry
     Harris-Foulkes estimate   =   -1264.08742588 Ry
     estimated scf accuracy    <       0.00021883 Ry

     iteration #  5     ecut=    50.00 Ry     beta= 0.10
     Davidson diagonalization with overlap
     c_bands:  1 eigenvalues not converged
     c_bands:  1 eigenvalues not converged
     c_bands:  2 eigenvalues not converged
     ethr =  2.28E-07,  avg # of iterations =  1.7

     total cpu time spent up to now is      351.4 secs

     total energy              =   -1264.08734119 Ry
     Harris-Foulkes estimate   =   -1264.08747014 Ry
     estimated scf accuracy    <       0.00031218 Ry

     iteration #  6     ecut=    50.00 Ry     beta= 0.10
     Davidson diagonalization with overlap
     c_bands:  3 eigenvalues not converged
     ethr =  2.28E-07,  avg # of iterations =  1.1

     total cpu time spent up to now is      388.2 secs

     total energy              =   -1264.08734968 Ry
     Harris-Foulkes estimate   =   -1264.08735395 Ry
     estimated scf accuracy    <       0.00001497 Ry

     iteration #  7     ecut=    50.00 Ry     beta= 0.10
     Davidson diagonalization with overlap
     ethr =  1.56E-08,  avg # of iterations =  4.2

     total cpu time spent up to now is      449.9 secs

     total energy              =   -1264.08735449 Ry
     Harris-Foulkes estimate   =   -1264.08735398 Ry
     estimated scf accuracy    <       0.00000485 Ry

     iteration #  8     ecut=    50.00 Ry     beta= 0.10
     Davidson diagonalization with overlap
     c_bands:  1 eigenvalues not converged
     ethr =  5.05E-09,  avg # of iterations =  1.7

     total cpu time spent up to now is      488.8 secs

     total energy              =   -1264.08735389 Ry
     Harris-Foulkes estimate   =   -1264.08735472 Ry
     estimated scf accuracy    <       0.00000921 Ry

     iteration #  9     ecut=    50.00 Ry     beta= 0.10
     Davidson diagonalization with overlap
     ethr =  5.05E-09,  avg # of iterations =  1.1

     total cpu time spent up to now is      525.3 secs

     total energy              =   -1264.08735295 Ry
     Harris-Foulkes estimate   =   -1264.08735405 Ry
     estimated scf accuracy    <       0.00000549 Ry

     iteration # 10     ecut=    50.00 Ry     beta= 0.10
     Davidson diagonalization with overlap
     ethr =  5.05E-09,  avg # of iterations =  2.5

     total cpu time spent up to now is      567.1 secs

     End of self-consistent calculation

     Number of k-points >= 100: set verbosity='high' to print the bands.

     the Fermi energy is     7.9283 ev

!    total energy              =   -1264.08735300 Ry
     Harris-Foulkes estimate   =   -1264.08735334 Ry
     estimated scf accuracy    <       0.00000054 Ry

     total all-electron energy =    -15540.656375 Ry

     The total energy is the sum of the following terms:

     one-electron contribution =     101.33593546 Ry
     hartree contribution      =       0.19685221 Ry
     xc contribution           =     -82.93452939 Ry
     ewald contribution        =    -173.00042940 Ry
     one-center paw contrib.   =   -1109.68242276 Ry
     smearing contrib. (-TS)   =      -0.00275913 Ry

     convergence has been achieved in  10 iterations

     Forces acting on atoms (cartesian axes, Ry/au):

     atom    1 type  1   force =     0.00000000    0.00000000    0.00000000
     atom    2 type  1   force =    -0.00001339    0.00003669    0.00000000
     atom    3 type  1   force =    -0.00001591   -0.00000000    0.00000126
     atom    4 type  1   force =     0.00000000    0.00002935   -0.00000610
     atom    5 type  1   force =     0.00000000    0.00000000    0.00000000
     atom    6 type  1   force =    -0.00001612    0.00002524    0.00000000
     atom    7 type  1   force =    -0.00001591    0.00000000   -0.00000126
     atom    8 type  1   force =    -0.00000000    0.00002935    0.00000610
     atom    9 type  1   force =     0.00000000    0.00000000    0.00000000
     atom   10 type  1   force =    -0.00001339   -0.00003669   -0.00000000
     atom   11 type  1   force =    -0.00001364    0.00000000   -0.00001314
     atom   12 type  1   force =     0.00000000   -0.00002935   -0.00000610
     atom   13 type  1   force =     0.00000000    0.00000000    0.00000000
     atom   14 type  1   force =    -0.00001612   -0.00002524    0.00000000
     atom   15 type  1   force =    -0.00001364   -0.00000000    0.00001314
     atom   16 type  1   force =     0.00000000   -0.00002935    0.00000610
     atom   17 type  1   force =     0.00000000    0.00000000    0.00000000
     atom   18 type  1   force =     0.00001339    0.00003669   -0.00000000
     atom   19 type  1   force =     0.00001591    0.00000000    0.00000126
     atom   20 type  1   force =     0.00000000    0.00003273   -0.00000530
     atom   21 type  1   force =     0.00000000    0.00000000    0.00000000
     atom   22 type  1   force =     0.00001612    0.00002524    0.00000000
     atom   23 type  1   force =     0.00001591    0.00000000   -0.00000126
     atom   24 type  1   force =    -0.00000000    0.00003273    0.00000530
     atom   25 type  1   force =     0.00000000    0.00000000    0.00000000
     atom   26 type  1   force =     0.00001339   -0.00003669    0.00000000
     atom   27 type  1   force =     0.00001364   -0.00000000   -0.00001314
     atom   28 type  1   force =     0.00000000   -0.00003273   -0.00000530
     atom   29 type  1   force =     0.00000000    0.00000000    0.00000000
     atom   30 type  1   force =     0.00001612   -0.00002524    0.00000000
     atom   31 type  1   force =     0.00001364    0.00000000    0.00001314
     atom   32 type  1   force =     0.00000000   -0.00003273    0.00000530

     Total force =     0.000142     Total SCF correction =     0.000760
     SCF correction compared to forces is large: reduce conv_thr to get better values


     Computing stress (Cartesian axis) and pressure

          total   stress  (Ry/bohr**3)                   (kbar)     P=    0.11
   0.00000079   0.00000000   0.00000000          0.12      0.00      0.00
   0.00000000  -0.00001138   0.00000000          0.00     -1.67      0.00
   0.00000000   0.00000000   0.00001287          0.00      0.00      1.89


     Writing output data file UWIJowFWoNTJEsSd.save/
 
     init_run     :     31.54s CPU     32.28s WALL (       1 calls)
     electrons    :    524.12s CPU    534.37s WALL (       1 calls)
     forces       :      6.43s CPU      6.62s WALL (       1 calls)
     stress       :     42.26s CPU     43.09s WALL (       1 calls)

     Called by init_run:
     wfcinit      :     31.17s CPU     31.89s WALL (       1 calls)
     potinit      :      0.11s CPU      0.12s WALL (       1 calls)
     hinit0       :      0.14s CPU      0.15s WALL (       1 calls)

     Called by electrons:
     c_bands      :    456.97s CPU    465.52s WALL (      11 calls)
     sum_band     :     66.25s CPU     67.86s WALL (      11 calls)
     v_of_rho     :      0.14s CPU      0.15s WALL (      11 calls)
     newd         :      0.11s CPU      0.15s WALL (      11 calls)
     PAW_pot      :      0.70s CPU      0.70s WALL (      11 calls)
     mix_rho      :      0.04s CPU      0.04s WALL (      11 calls)

     Called by c_bands:
     init_us_2    :      9.75s CPU      9.88s WALL (    5400 calls)
     cegterg      :    429.74s CPU    437.93s WALL (    2376 calls)

     Called by sum_band:
     sum_band:bec :      0.27s CPU      0.28s WALL (    2376 calls)
     addusdens    :      0.08s CPU      0.13s WALL (      11 calls)

     Called by *egterg:
     h_psi        :    317.91s CPU    325.17s WALL (    8994 calls)
     s_psi        :     30.48s CPU     30.63s WALL (    8994 calls)
     g_psi        :      1.72s CPU      1.73s WALL (    6402 calls)
     cdiaghg      :     50.88s CPU     51.06s WALL (    8562 calls)

     Called by h_psi:
     h_psi:pot    :    316.51s CPU    323.75s WALL (    8994 calls)
     h_psi:calbec :     31.65s CPU     33.21s WALL (    8994 calls)
     vloc_psi     :    254.61s CPU    260.16s WALL (    8994 calls)
     add_vuspsi   :     30.18s CPU     30.31s WALL (    8994 calls)

     General routines
     calbec       :     49.09s CPU     51.56s WALL (   12450 calls)
     fft          :      0.18s CPU      0.19s WALL (     148 calls)
     ffts         :      0.01s CPU      0.01s WALL (      11 calls)
     fftw         :    279.80s CPU    285.67s WALL (  887632 calls)
 
     Parallel routines
     fft_scatt_xy :     28.85s CPU     29.44s WALL (  887791 calls)
     fft_scatt_yz :    134.17s CPU    137.24s WALL (  887791 calls)
 
     PWSCF        : 10m10.60s CPU    10m44.01s WALL

 
   This run was terminated on:   4:29: 3  26Mar2020            

=------------------------------------------------------------------------------=
   JOB DONE.
=------------------------------------------------------------------------------=
