
     Program PWSCF v.6.3 starts on 26Mar2020 at  2:42:38 

     This program is part of the open-source Quantum ESPRESSO suite
     for quantum simulation of materials; please cite
         "P. Giannozzi et al., J. Phys.:Condens. Matter 21 395502 (2009);
         "P. Giannozzi et al., J. Phys.:Condens. Matter 29 465901 (2017);
          URL http://www.quantum-espresso.org", 
     in publications or presentations arising from this work. More details at
     http://www.quantum-espresso.org/quote

     Parallel version (MPI & OpenMP), running on      20 processor cores
     Number of MPI processes:                20
     Threads/MPI process:                     1

     MPI processes distributed on     1 nodes
     R & G space division:  proc/nbgrp/npool/nimage =      20
     Reading input from /rds/homes/b/bxp912/jobs/20200324_al_eos_e/wd/pwscf_ec/ec_9_2.in
Warning: card &IONS ignored
Warning: card ION_DYNAMICS = 'BFGS', ignored
Warning: card / ignored
Warning: card &CELL ignored
Warning: card CELL_DYNAMICS = 'BFGS', ignored
Warning: card CELL_FACTOR = 2.0, ignored
Warning: card PRESS = 0.0, ignored
Warning: card / ignored

     Current dimensions of program PWSCF are:
     Max number of different atomic species (ntypx) = 10
     Max number of k-points (npk) =  40000
     Max angular momentum in pseudopotentials (lmaxx) =  3
     Message from routine read_upf::
     Pseudo file /rds/homes/b/bxp912/pp/Al.pbe-nl-kjpaw_psl.1.0.0.UPF has been successfully fixed on the fly.
To avoid this message in the future you can permanently fix 
 your pseudo files following instructions given in: 
https://gitlab.com/QEF/q-e/blob/master/upftools/how_to_fix_upf.md
               file Al.pbe-nl-kjpaw_psl.1.0.0.UPF: wavefunction(s)  3S 3P renormalized

     Subspace diagonalization in iterative solution of the eigenvalue problem:
     a serial algorithm will be used

     Found symmetry operation: I + (  0.2500  0.2500  0.0000)
     This is a supercell, fractional translations are disabled
 
     Parallelization info
     --------------------
     sticks:   dense  smooth     PW     G-vecs:    dense   smooth      PW
     Min         185     185     51                 8499     8499    1229
     Max         186     186     52                 8504     8504    1232
     Sum        3709    3709   1033               170013   170013   24601
 


     bravais-lattice index     =            0
     lattice parameter (alat)  =      15.2652  a.u.
     unit-cell volume          =    3557.1654 (a.u.)^3
     number of atoms/cell      =           32
     number of atomic types    =            1
     number of electrons       =        96.00
     number of Kohn-Sham states=           58
     kinetic-energy cutoff     =      50.0000  Ry
     charge density cutoff     =     200.0000  Ry
     convergence threshold     =      1.0E-06
     mixing beta               =       0.1000
     number of iterations used =           10  plain     mixing
     Exchange-correlation      = SLA PW PBX PBC ( 1  4  3  4 0 0)

     celldm(1)=  15.265160  celldm(2)=   0.000000  celldm(3)=   0.000000
     celldm(4)=   0.000000  celldm(5)=   0.000000  celldm(6)=   0.000000

     crystal axes: (cart. coord. in units of alat)
               a(1) = (   1.000000   0.000000   0.000000 )  
               a(2) = (   0.000000   1.001112   0.000000 )  
               a(3) = (   0.000000   0.000000   0.998889 )  

     reciprocal axes: (cart. coord. in units 2 pi/alat)
               b(1) = (  1.000000  0.000000  0.000000 )  
               b(2) = (  0.000000  0.998890  0.000000 )  
               b(3) = (  0.000000  0.000000  1.001112 )  


     PseudoPot. # 1 for Al read from file:
     /rds/homes/b/bxp912/pp/Al.pbe-nl-kjpaw_psl.1.0.0.UPF
     MD5 check sum: 339dbea23cf3ab9a065ad45c0f9085d7
     Pseudo is Projector augmented-wave + core cor, Zval =  3.0
     Generated using "atomic" code by A. Dal Corso v.5.1
     Shape of augmentation charge: PSQ
     Using radial grid of 1135 points,  4 beta functions with: 
                l(1) =   0
                l(2) =   0
                l(3) =   1
                l(4) =   1
     Q(r) pseudized with 0 coefficients 


     atomic species   valence    mass     pseudopotential
        Al             3.00    26.98200     Al( 1.00)

      8 Sym. Ops., with inversion, found



   Cartesian axes

     site n.     atom                  positions (alat units)
         1           Al  tau(   1) = (   0.0000000   0.0000000   0.0000000  )
         2           Al  tau(   2) = (   0.2500001   0.2502779   0.0000000  )
         3           Al  tau(   3) = (   0.2500001   0.0000000   0.2497223  )
         4           Al  tau(   4) = (   0.0000000   0.2502779   0.2497223  )
         5           Al  tau(   5) = (   0.0000000   0.0000000   0.4994446  )
         6           Al  tau(   6) = (   0.2500001   0.2502779   0.4994446  )
         7           Al  tau(   7) = (   0.2500001   0.0000000   0.7491670  )
         8           Al  tau(   8) = (   0.0000000   0.2502779   0.7491670  )
         9           Al  tau(   9) = (   0.0000000   0.5005558   0.0000000  )
        10           Al  tau(  10) = (   0.2500001   0.7508336   0.0000000  )
        11           Al  tau(  11) = (   0.2500001   0.5005558   0.2497223  )
        12           Al  tau(  12) = (   0.0000000   0.7508336   0.2497223  )
        13           Al  tau(  13) = (   0.0000000   0.5005558   0.4994446  )
        14           Al  tau(  14) = (   0.2500001   0.7508336   0.4994446  )
        15           Al  tau(  15) = (   0.2500001   0.5005558   0.7491670  )
        16           Al  tau(  16) = (   0.0000000   0.7508336   0.7491670  )
        17           Al  tau(  17) = (   0.5000002   0.0000000   0.0000000  )
        18           Al  tau(  18) = (   0.7500003   0.2502779   0.0000000  )
        19           Al  tau(  19) = (   0.7500003   0.0000000   0.2497223  )
        20           Al  tau(  20) = (   0.5000002   0.2502779   0.2497223  )
        21           Al  tau(  21) = (   0.5000002   0.0000000   0.4994446  )
        22           Al  tau(  22) = (   0.7500003   0.2502779   0.4994446  )
        23           Al  tau(  23) = (   0.7500003   0.0000000   0.7491670  )
        24           Al  tau(  24) = (   0.5000002   0.2502779   0.7491670  )
        25           Al  tau(  25) = (   0.5000002   0.5005558   0.0000000  )
        26           Al  tau(  26) = (   0.7500003   0.7508336   0.0000000  )
        27           Al  tau(  27) = (   0.7500003   0.5005558   0.2497223  )
        28           Al  tau(  28) = (   0.5000002   0.7508336   0.2497223  )
        29           Al  tau(  29) = (   0.5000002   0.5005558   0.4994446  )
        30           Al  tau(  30) = (   0.7500003   0.7508336   0.4994446  )
        31           Al  tau(  31) = (   0.7500003   0.5005558   0.7491670  )
        32           Al  tau(  32) = (   0.5000002   0.7508336   0.7491670  )

     number of k points=   216  Marzari-Vanderbilt smearing, width (Ry)=  0.0400

     Number of k-points >= 100: set verbosity='high' to print them.

     Dense  grid:   170013 G-vectors     FFT dimensions: (  72,  72,  72)

     Estimated max dynamical RAM per process >     232.04 MB

     Estimated total dynamical RAM >       4.53 GB

     Initial potential from superposition of free atoms

     starting charge   95.92671, renormalised to   96.00000
     Starting wfcs are  128 randomized atomic wfcs
     Checking if some PAW data can be deallocated... 

     total cpu time spent up to now is       32.5 secs

     Self-consistent Calculation

     iteration #  1     ecut=    50.00 Ry     beta= 0.10
     Davidson diagonalization with overlap
     ethr =  1.00E-02,  avg # of iterations =  3.1

     Threshold (ethr) on eigenvalues was too large:
     Diagonalizing with lowered threshold

     Davidson diagonalization with overlap
     ethr =  1.91E-04,  avg # of iterations =  4.6

     total cpu time spent up to now is      150.6 secs

     total energy              =   -1264.12501407 Ry
     Harris-Foulkes estimate   =   -1264.13452481 Ry
     estimated scf accuracy    <       0.17938611 Ry

     iteration #  2     ecut=    50.00 Ry     beta= 0.10
     Davidson diagonalization with overlap
     ethr =  1.87E-04,  avg # of iterations =  1.1

     total cpu time spent up to now is      186.8 secs

     total energy              =   -1264.08393755 Ry
     Harris-Foulkes estimate   =   -1264.12579173 Ry
     estimated scf accuracy    <       0.14411045 Ry

     iteration #  3     ecut=    50.00 Ry     beta= 0.10
     Davidson diagonalization with overlap
     ethr =  1.50E-04,  avg # of iterations =  1.0

     total cpu time spent up to now is      223.1 secs

     total energy              =   -1264.08669394 Ry
     Harris-Foulkes estimate   =   -1264.08670228 Ry
     estimated scf accuracy    <       0.00025118 Ry

     iteration #  4     ecut=    50.00 Ry     beta= 0.10
     Davidson diagonalization with overlap
     c_bands:  1 eigenvalues not converged
     c_bands:  1 eigenvalues not converged
     c_bands:  1 eigenvalues not converged
     c_bands:  1 eigenvalues not converged
     c_bands:  1 eigenvalues not converged
     c_bands:  1 eigenvalues not converged
     c_bands:  2 eigenvalues not converged
     c_bands:  1 eigenvalues not converged
     c_bands:  1 eigenvalues not converged
     c_bands:  1 eigenvalues not converged
     c_bands:  1 eigenvalues not converged
     c_bands:  3 eigenvalues not converged
     c_bands:  2 eigenvalues not converged
     ethr =  2.62E-07,  avg # of iterations =  7.2

     total cpu time spent up to now is      310.6 secs

     total energy              =   -1264.08757865 Ry
     Harris-Foulkes estimate   =   -1264.08755304 Ry
     estimated scf accuracy    <       0.00021808 Ry

     iteration #  5     ecut=    50.00 Ry     beta= 0.10
     Davidson diagonalization with overlap
     c_bands:  1 eigenvalues not converged
     ethr =  2.27E-07,  avg # of iterations =  1.4

     total cpu time spent up to now is      347.7 secs

     total energy              =   -1264.08747130 Ry
     Harris-Foulkes estimate   =   -1264.08757952 Ry
     estimated scf accuracy    <       0.00027292 Ry

     iteration #  6     ecut=    50.00 Ry     beta= 0.10
     Davidson diagonalization with overlap
     ethr =  2.27E-07,  avg # of iterations =  1.0

     total cpu time spent up to now is      383.9 secs

     total energy              =   -1264.08747796 Ry
     Harris-Foulkes estimate   =   -1264.08748214 Ry
     estimated scf accuracy    <       0.00001626 Ry

     iteration #  7     ecut=    50.00 Ry     beta= 0.10
     Davidson diagonalization with overlap
     c_bands:  2 eigenvalues not converged
     ethr =  1.69E-08,  avg # of iterations =  4.0

     total cpu time spent up to now is      442.0 secs

     total energy              =   -1264.08748174 Ry
     Harris-Foulkes estimate   =   -1264.08748153 Ry
     estimated scf accuracy    <       0.00000511 Ry

     iteration #  8     ecut=    50.00 Ry     beta= 0.10
     Davidson diagonalization with overlap
     ethr =  5.32E-09,  avg # of iterations =  1.1

     total cpu time spent up to now is      478.3 secs

     total energy              =   -1264.08748141 Ry
     Harris-Foulkes estimate   =   -1264.08748186 Ry
     estimated scf accuracy    <       0.00000698 Ry

     iteration #  9     ecut=    50.00 Ry     beta= 0.10
     Davidson diagonalization with overlap
     ethr =  5.32E-09,  avg # of iterations =  1.0

     total cpu time spent up to now is      514.3 secs

     total energy              =   -1264.08748027 Ry
     Harris-Foulkes estimate   =   -1264.08748152 Ry
     estimated scf accuracy    <       0.00000462 Ry

     iteration # 10     ecut=    50.00 Ry     beta= 0.10
     Davidson diagonalization with overlap
     ethr =  4.81E-09,  avg # of iterations =  2.7

     total cpu time spent up to now is      558.6 secs

     End of self-consistent calculation

     Number of k-points >= 100: set verbosity='high' to print the bands.

     the Fermi energy is     7.9284 ev

!    total energy              =   -1264.08748075 Ry
     Harris-Foulkes estimate   =   -1264.08748079 Ry
     estimated scf accuracy    <       0.00000012 Ry

     total all-electron energy =    -15540.656503 Ry

     The total energy is the sum of the following terms:

     one-electron contribution =     101.33557868 Ry
     hartree contribution      =       0.19688116 Ry
     xc contribution           =     -82.93443017 Ry
     ewald contribution        =    -173.00050827 Ry
     one-center paw contrib.   =   -1109.68225609 Ry
     smearing contrib. (-TS)   =      -0.00274606 Ry

     convergence has been achieved in  10 iterations

     Forces acting on atoms (cartesian axes, Ry/au):

     atom    1 type  1   force =     0.00000000    0.00000000    0.00000000
     atom    2 type  1   force =    -0.00000307    0.00000516    0.00000000
     atom    3 type  1   force =    -0.00000122    0.00000000    0.00000085
     atom    4 type  1   force =    -0.00000000    0.00000827   -0.00000402
     atom    5 type  1   force =     0.00000000    0.00000000    0.00000000
     atom    6 type  1   force =    -0.00000220    0.00000296    0.00000000
     atom    7 type  1   force =    -0.00000122    0.00000000   -0.00000085
     atom    8 type  1   force =     0.00000000    0.00000827    0.00000402
     atom    9 type  1   force =     0.00000000    0.00000000    0.00000000
     atom   10 type  1   force =    -0.00000307   -0.00000516    0.00000000
     atom   11 type  1   force =    -0.00000756    0.00000000   -0.00000339
     atom   12 type  1   force =     0.00000000   -0.00000827   -0.00000402
     atom   13 type  1   force =     0.00000000    0.00000000    0.00000000
     atom   14 type  1   force =    -0.00000220   -0.00000296    0.00000000
     atom   15 type  1   force =    -0.00000756    0.00000000    0.00000339
     atom   16 type  1   force =     0.00000000   -0.00000827    0.00000402
     atom   17 type  1   force =     0.00000000    0.00000000    0.00000000
     atom   18 type  1   force =     0.00000307    0.00000516    0.00000000
     atom   19 type  1   force =     0.00000122   -0.00000000    0.00000085
     atom   20 type  1   force =     0.00000000    0.00000091    0.00000012
     atom   21 type  1   force =     0.00000000    0.00000000    0.00000000
     atom   22 type  1   force =     0.00000220    0.00000296    0.00000000
     atom   23 type  1   force =     0.00000122   -0.00000000   -0.00000085
     atom   24 type  1   force =     0.00000000    0.00000091   -0.00000012
     atom   25 type  1   force =     0.00000000    0.00000000    0.00000000
     atom   26 type  1   force =     0.00000307   -0.00000516    0.00000000
     atom   27 type  1   force =     0.00000756    0.00000000   -0.00000339
     atom   28 type  1   force =    -0.00000000   -0.00000091    0.00000012
     atom   29 type  1   force =     0.00000000    0.00000000    0.00000000
     atom   30 type  1   force =     0.00000220   -0.00000296    0.00000000
     atom   31 type  1   force =     0.00000756    0.00000000    0.00000339
     atom   32 type  1   force =    -0.00000000   -0.00000091   -0.00000012

     Total force =     0.000029     Total SCF correction =     0.000151
     SCF correction compared to forces is large: reduce conv_thr to get better values


     Computing stress (Cartesian axis) and pressure

          total   stress  (Ry/bohr**3)                   (kbar)     P=    0.08
   0.00000057   0.00000000   0.00000000          0.08      0.00      0.00
   0.00000000  -0.00000348   0.00000000          0.00     -0.51      0.00
   0.00000000   0.00000000   0.00000456          0.00      0.00      0.67


     Writing output data file nMDRisoyLlnQSFEY.save/
 
     init_run     :     31.18s CPU     31.98s WALL (       1 calls)
     electrons    :    514.64s CPU    526.07s WALL (       1 calls)
     forces       :      6.61s CPU      6.83s WALL (       1 calls)
     stress       :     41.59s CPU     41.81s WALL (       1 calls)

     Called by init_run:
     wfcinit      :     30.82s CPU     31.59s WALL (       1 calls)
     potinit      :      0.12s CPU      0.12s WALL (       1 calls)
     hinit0       :      0.13s CPU      0.16s WALL (       1 calls)

     Called by electrons:
     c_bands      :    448.56s CPU    458.03s WALL (      11 calls)
     sum_band     :     65.17s CPU     67.01s WALL (      11 calls)
     v_of_rho     :      0.14s CPU      0.15s WALL (      11 calls)
     newd         :      0.10s CPU      0.15s WALL (      11 calls)
     PAW_pot      :      0.71s CPU      0.72s WALL (      11 calls)
     mix_rho      :      0.04s CPU      0.04s WALL (      11 calls)

     Called by c_bands:
     init_us_2    :      9.83s CPU     10.01s WALL (    5400 calls)
     cegterg      :    421.34s CPU    429.51s WALL (    2376 calls)

     Called by sum_band:
     sum_band:bec :      0.28s CPU      0.29s WALL (    2376 calls)
     addusdens    :      0.08s CPU      0.13s WALL (      11 calls)

     Called by *egterg:
     h_psi        :    311.98s CPU    319.33s WALL (    8656 calls)
     s_psi        :     30.35s CPU     30.45s WALL (    8656 calls)
     g_psi        :      1.71s CPU      1.72s WALL (    6064 calls)
     cdiaghg      :     48.44s CPU     48.57s WALL (    8224 calls)

     Called by h_psi:
     h_psi:pot    :    310.50s CPU    317.82s WALL (    8656 calls)
     h_psi:calbec :     31.47s CPU     33.08s WALL (    8656 calls)
     vloc_psi     :    248.88s CPU    254.49s WALL (    8656 calls)
     add_vuspsi   :     30.07s CPU     30.20s WALL (    8656 calls)

     General routines
     calbec       :     47.76s CPU     50.25s WALL (   12112 calls)
     fft          :      0.15s CPU      0.19s WALL (     148 calls)
     ffts         :      0.01s CPU      0.01s WALL (      11 calls)
     fftw         :    272.23s CPU    278.26s WALL (  888570 calls)
 
     Parallel routines
     fft_scatt_xy :     28.61s CPU     29.27s WALL (  888729 calls)
     fft_scatt_yz :    125.95s CPU    129.00s WALL (  888729 calls)
 
     PWSCF        :  9m58.81s CPU    10m27.39s WALL

 
   This run was terminated on:   2:53: 5  26Mar2020            

=------------------------------------------------------------------------------=
   JOB DONE.
=------------------------------------------------------------------------------=
