
     Program PWSCF v.6.3 starts on 26Mar2020 at  2:31:42 

     This program is part of the open-source Quantum ESPRESSO suite
     for quantum simulation of materials; please cite
         "P. Giannozzi et al., J. Phys.:Condens. Matter 21 395502 (2009);
         "P. Giannozzi et al., J. Phys.:Condens. Matter 29 465901 (2017);
          URL http://www.quantum-espresso.org", 
     in publications or presentations arising from this work. More details at
     http://www.quantum-espresso.org/quote

     Parallel version (MPI & OpenMP), running on      20 processor cores
     Number of MPI processes:                20
     Threads/MPI process:                     1

     MPI processes distributed on     1 nodes
     R & G space division:  proc/nbgrp/npool/nimage =      20
     Reading input from /rds/homes/b/bxp912/jobs/20200324_al_eos_e/wd/pwscf_ec/ec_9_1.in
Warning: card &IONS ignored
Warning: card ION_DYNAMICS = 'BFGS', ignored
Warning: card / ignored
Warning: card &CELL ignored
Warning: card CELL_DYNAMICS = 'BFGS', ignored
Warning: card CELL_FACTOR = 2.0, ignored
Warning: card PRESS = 0.0, ignored
Warning: card / ignored

     Current dimensions of program PWSCF are:
     Max number of different atomic species (ntypx) = 10
     Max number of k-points (npk) =  40000
     Max angular momentum in pseudopotentials (lmaxx) =  3
     Message from routine read_upf::
     Pseudo file /rds/homes/b/bxp912/pp/Al.pbe-nl-kjpaw_psl.1.0.0.UPF has been successfully fixed on the fly.
To avoid this message in the future you can permanently fix 
 your pseudo files following instructions given in: 
https://gitlab.com/QEF/q-e/blob/master/upftools/how_to_fix_upf.md
               file Al.pbe-nl-kjpaw_psl.1.0.0.UPF: wavefunction(s)  3S 3P renormalized

     Subspace diagonalization in iterative solution of the eigenvalue problem:
     a serial algorithm will be used

     Found symmetry operation: I + (  0.2500  0.2500  0.0000)
     This is a supercell, fractional translations are disabled
 
     Parallelization info
     --------------------
     sticks:   dense  smooth     PW     G-vecs:    dense   smooth      PW
     Min         185     185     51                 8495     8495    1228
     Max         186     186     53                 8502     8502    1231
     Sum        3709    3709   1033               169933   169933   24573
 


     bravais-lattice index     =            0
     lattice parameter (alat)  =      15.2652  a.u.
     unit-cell volume          =    3557.1654 (a.u.)^3
     number of atoms/cell      =           32
     number of atomic types    =            1
     number of electrons       =        96.00
     number of Kohn-Sham states=           58
     kinetic-energy cutoff     =      50.0000  Ry
     charge density cutoff     =     200.0000  Ry
     convergence threshold     =      1.0E-06
     mixing beta               =       0.1000
     number of iterations used =           10  plain     mixing
     Exchange-correlation      = SLA PW PBX PBC ( 1  4  3  4 0 0)

     celldm(1)=  15.265160  celldm(2)=   0.000000  celldm(3)=   0.000000
     celldm(4)=   0.000000  celldm(5)=   0.000000  celldm(6)=   0.000000

     crystal axes: (cart. coord. in units of alat)
               a(1) = (   1.000000   0.000000   0.000000 )  
               a(2) = (   0.000000   1.000556   0.000000 )  
               a(3) = (   0.000000   0.000000   0.999445 )  

     reciprocal axes: (cart. coord. in units 2 pi/alat)
               b(1) = (  1.000000  0.000000  0.000000 )  
               b(2) = (  0.000000  0.999445  0.000000 )  
               b(3) = (  0.000000  0.000000  1.000556 )  


     PseudoPot. # 1 for Al read from file:
     /rds/homes/b/bxp912/pp/Al.pbe-nl-kjpaw_psl.1.0.0.UPF
     MD5 check sum: 339dbea23cf3ab9a065ad45c0f9085d7
     Pseudo is Projector augmented-wave + core cor, Zval =  3.0
     Generated using "atomic" code by A. Dal Corso v.5.1
     Shape of augmentation charge: PSQ
     Using radial grid of 1135 points,  4 beta functions with: 
                l(1) =   0
                l(2) =   0
                l(3) =   1
                l(4) =   1
     Q(r) pseudized with 0 coefficients 


     atomic species   valence    mass     pseudopotential
        Al             3.00    26.98200     Al( 1.00)

      8 Sym. Ops., with inversion, found



   Cartesian axes

     site n.     atom                  positions (alat units)
         1           Al  tau(   1) = (   0.0000000   0.0000000   0.0000000  )
         2           Al  tau(   2) = (   0.2500000   0.2501389   0.0000000  )
         3           Al  tau(   3) = (   0.2500000   0.0000000   0.2498611  )
         4           Al  tau(   4) = (   0.0000000   0.2501389   0.2498611  )
         5           Al  tau(   5) = (   0.0000000   0.0000000   0.4997223  )
         6           Al  tau(   6) = (   0.2500000   0.2501389   0.4997223  )
         7           Al  tau(   7) = (   0.2500000   0.0000000   0.7495834  )
         8           Al  tau(   8) = (   0.0000000   0.2501389   0.7495834  )
         9           Al  tau(   9) = (   0.0000000   0.5002778   0.0000000  )
        10           Al  tau(  10) = (   0.2500000   0.7504167   0.0000000  )
        11           Al  tau(  11) = (   0.2500000   0.5002778   0.2498611  )
        12           Al  tau(  12) = (   0.0000000   0.7504167   0.2498611  )
        13           Al  tau(  13) = (   0.0000000   0.5002778   0.4997223  )
        14           Al  tau(  14) = (   0.2500000   0.7504167   0.4997223  )
        15           Al  tau(  15) = (   0.2500000   0.5002778   0.7495834  )
        16           Al  tau(  16) = (   0.0000000   0.7504167   0.7495834  )
        17           Al  tau(  17) = (   0.5000001   0.0000000   0.0000000  )
        18           Al  tau(  18) = (   0.7500001   0.2501389   0.0000000  )
        19           Al  tau(  19) = (   0.7500001   0.0000000   0.2498611  )
        20           Al  tau(  20) = (   0.5000001   0.2501389   0.2498611  )
        21           Al  tau(  21) = (   0.5000001   0.0000000   0.4997223  )
        22           Al  tau(  22) = (   0.7500001   0.2501389   0.4997223  )
        23           Al  tau(  23) = (   0.7500001   0.0000000   0.7495834  )
        24           Al  tau(  24) = (   0.5000001   0.2501389   0.7495834  )
        25           Al  tau(  25) = (   0.5000001   0.5002778   0.0000000  )
        26           Al  tau(  26) = (   0.7500001   0.7504167   0.0000000  )
        27           Al  tau(  27) = (   0.7500001   0.5002778   0.2498611  )
        28           Al  tau(  28) = (   0.5000001   0.7504167   0.2498611  )
        29           Al  tau(  29) = (   0.5000001   0.5002778   0.4997223  )
        30           Al  tau(  30) = (   0.7500001   0.7504167   0.4997223  )
        31           Al  tau(  31) = (   0.7500001   0.5002778   0.7495834  )
        32           Al  tau(  32) = (   0.5000001   0.7504167   0.7495834  )

     number of k points=   216  Marzari-Vanderbilt smearing, width (Ry)=  0.0400

     Number of k-points >= 100: set verbosity='high' to print them.

     Dense  grid:   169933 G-vectors     FFT dimensions: (  72,  72,  72)

     Estimated max dynamical RAM per process >     232.02 MB

     Estimated total dynamical RAM >       4.53 GB

     Initial potential from superposition of free atoms

     starting charge   95.92671, renormalised to   96.00000
     Starting wfcs are  128 randomized atomic wfcs
     Checking if some PAW data can be deallocated... 

     total cpu time spent up to now is       32.9 secs

     Self-consistent Calculation

     iteration #  1     ecut=    50.00 Ry     beta= 0.10
     Davidson diagonalization with overlap
     ethr =  1.00E-02,  avg # of iterations =  3.1

     Threshold (ethr) on eigenvalues was too large:
     Diagonalizing with lowered threshold

     Davidson diagonalization with overlap
     ethr =  1.91E-04,  avg # of iterations =  4.6

     total cpu time spent up to now is      152.8 secs

     total energy              =   -1264.12504339 Ry
     Harris-Foulkes estimate   =   -1264.13455445 Ry
     estimated scf accuracy    <       0.17939597 Ry

     iteration #  2     ecut=    50.00 Ry     beta= 0.10
     Davidson diagonalization with overlap
     ethr =  1.87E-04,  avg # of iterations =  1.1

     total cpu time spent up to now is      189.5 secs

     total energy              =   -1264.08394885 Ry
     Harris-Foulkes estimate   =   -1264.12580841 Ry
     estimated scf accuracy    <       0.14411699 Ry

     iteration #  3     ecut=    50.00 Ry     beta= 0.10
     Davidson diagonalization with overlap
     ethr =  1.50E-04,  avg # of iterations =  1.0

     total cpu time spent up to now is      227.0 secs

     total energy              =   -1264.08670701 Ry
     Harris-Foulkes estimate   =   -1264.08671548 Ry
     estimated scf accuracy    <       0.00025134 Ry

     iteration #  4     ecut=    50.00 Ry     beta= 0.10
     Davidson diagonalization with overlap
     c_bands:  1 eigenvalues not converged
     c_bands:  1 eigenvalues not converged
     c_bands:  1 eigenvalues not converged
     c_bands:  1 eigenvalues not converged
     c_bands:  2 eigenvalues not converged
     c_bands:  2 eigenvalues not converged
     c_bands:  2 eigenvalues not converged
     c_bands:  2 eigenvalues not converged
     c_bands:  2 eigenvalues not converged
     c_bands:  1 eigenvalues not converged
     c_bands:  3 eigenvalues not converged
     c_bands:  2 eigenvalues not converged
     ethr =  2.62E-07,  avg # of iterations =  7.1

     total cpu time spent up to now is      313.5 secs

     total energy              =   -1264.08758532 Ry
     Harris-Foulkes estimate   =   -1264.08756393 Ry
     estimated scf accuracy    <       0.00021725 Ry

     iteration #  5     ecut=    50.00 Ry     beta= 0.10
     Davidson diagonalization with overlap
     ethr =  2.26E-07,  avg # of iterations =  1.4

     total cpu time spent up to now is      351.5 secs

     total energy              =   -1264.08748267 Ry
     Harris-Foulkes estimate   =   -1264.08758614 Ry
     estimated scf accuracy    <       0.00026303 Ry

     iteration #  6     ecut=    50.00 Ry     beta= 0.10
     Davidson diagonalization with overlap
     ethr =  2.26E-07,  avg # of iterations =  1.0

     total cpu time spent up to now is      388.4 secs

     total energy              =   -1264.08748931 Ry
     Harris-Foulkes estimate   =   -1264.08749319 Ry
     estimated scf accuracy    <       0.00001566 Ry

     iteration #  7     ecut=    50.00 Ry     beta= 0.10
     Davidson diagonalization with overlap
     c_bands:  1 eigenvalues not converged
     c_bands:  1 eigenvalues not converged
     ethr =  1.63E-08,  avg # of iterations =  4.0

     total cpu time spent up to now is      450.1 secs

     total energy              =   -1264.08749342 Ry
     Harris-Foulkes estimate   =   -1264.08749333 Ry
     estimated scf accuracy    <       0.00000489 Ry

     iteration #  8     ecut=    50.00 Ry     beta= 0.10
     Davidson diagonalization with overlap
     ethr =  5.10E-09,  avg # of iterations =  1.0

     total cpu time spent up to now is      494.7 secs

     total energy              =   -1264.08749338 Ry
     Harris-Foulkes estimate   =   -1264.08749351 Ry
     estimated scf accuracy    <       0.00000587 Ry

     iteration #  9     ecut=    50.00 Ry     beta= 0.10
     Davidson diagonalization with overlap
     ethr =  5.10E-09,  avg # of iterations =  1.0

     total cpu time spent up to now is      536.8 secs

     total energy              =   -1264.08749214 Ry
     Harris-Foulkes estimate   =   -1264.08749345 Ry
     estimated scf accuracy    <       0.00000466 Ry

     iteration # 10     ecut=    50.00 Ry     beta= 0.10
     Davidson diagonalization with overlap
     ethr =  4.85E-09,  avg # of iterations =  2.6

     total cpu time spent up to now is      585.6 secs

     End of self-consistent calculation

     Number of k-points >= 100: set verbosity='high' to print the bands.

     the Fermi energy is     7.9285 ev

!    total energy              =   -1264.08749254 Ry
     Harris-Foulkes estimate   =   -1264.08749259 Ry
     estimated scf accuracy    <       0.00000009 Ry

     total all-electron energy =    -15540.656515 Ry

     The total energy is the sum of the following terms:

     one-electron contribution =     101.33546815 Ry
     hartree contribution      =       0.19688271 Ry
     xc contribution           =     -82.93438527 Ry
     ewald contribution        =    -173.00051567 Ry
     one-center paw contrib.   =   -1109.68219838 Ry
     smearing contrib. (-TS)   =      -0.00274409 Ry

     convergence has been achieved in  10 iterations

     Forces acting on atoms (cartesian axes, Ry/au):

     atom    1 type  1   force =     0.00000000    0.00000000    0.00000000
     atom    2 type  1   force =    -0.00000712    0.00001640    0.00000000
     atom    3 type  1   force =    -0.00000862   -0.00000000    0.00000170
     atom    4 type  1   force =     0.00000000    0.00001418   -0.00000562
     atom    5 type  1   force =     0.00000000    0.00000000    0.00000000
     atom    6 type  1   force =    -0.00000750    0.00000757    0.00000000
     atom    7 type  1   force =    -0.00000862   -0.00000000   -0.00000170
     atom    8 type  1   force =    -0.00000000    0.00001418    0.00000562
     atom    9 type  1   force =     0.00000000    0.00000000    0.00000000
     atom   10 type  1   force =    -0.00000712   -0.00001640    0.00000000
     atom   11 type  1   force =    -0.00000954    0.00000000   -0.00000691
     atom   12 type  1   force =    -0.00000000   -0.00001418   -0.00000562
     atom   13 type  1   force =     0.00000000    0.00000000    0.00000000
     atom   14 type  1   force =    -0.00000750   -0.00000757   -0.00000000
     atom   15 type  1   force =    -0.00000954    0.00000000    0.00000691
     atom   16 type  1   force =     0.00000000   -0.00001418    0.00000562
     atom   17 type  1   force =     0.00000000    0.00000000    0.00000000
     atom   18 type  1   force =     0.00000712    0.00001640    0.00000000
     atom   19 type  1   force =     0.00000862    0.00000000    0.00000170
     atom   20 type  1   force =    -0.00000000    0.00001235   -0.00000408
     atom   21 type  1   force =     0.00000000    0.00000000    0.00000000
     atom   22 type  1   force =     0.00000750    0.00000757   -0.00000000
     atom   23 type  1   force =     0.00000862    0.00000000   -0.00000170
     atom   24 type  1   force =     0.00000000    0.00001235    0.00000408
     atom   25 type  1   force =     0.00000000    0.00000000    0.00000000
     atom   26 type  1   force =     0.00000712   -0.00001640    0.00000000
     atom   27 type  1   force =     0.00000954    0.00000000   -0.00000691
     atom   28 type  1   force =     0.00000000   -0.00001235   -0.00000408
     atom   29 type  1   force =     0.00000000    0.00000000    0.00000000
     atom   30 type  1   force =     0.00000750   -0.00000757    0.00000000
     atom   31 type  1   force =     0.00000954   -0.00000000    0.00000691
     atom   32 type  1   force =     0.00000000   -0.00001235    0.00000408

     Total force =     0.000065     Total SCF correction =     0.000243
     SCF correction compared to forces is large: reduce conv_thr to get better values


     Computing stress (Cartesian axis) and pressure

          total   stress  (Ry/bohr**3)                   (kbar)     P=    0.07
   0.00000052   0.00000000   0.00000000          0.08      0.00      0.00
   0.00000000  -0.00000150   0.00000000          0.00     -0.22      0.00
   0.00000000   0.00000000   0.00000250          0.00      0.00      0.37


     Writing output data file CfFYtfbFSwjeshQH.save/
 
     init_run     :     31.57s CPU     32.37s WALL (       1 calls)
     electrons    :    540.64s CPU    552.71s WALL (       1 calls)
     forces       :      7.49s CPU      7.75s WALL (       1 calls)
     stress       :     41.84s CPU     41.94s WALL (       1 calls)

     Called by init_run:
     wfcinit      :     31.22s CPU     31.98s WALL (       1 calls)
     potinit      :      0.12s CPU      0.13s WALL (       1 calls)
     hinit0       :      0.12s CPU      0.15s WALL (       1 calls)

     Called by electrons:
     c_bands      :    470.48s CPU    480.77s WALL (      11 calls)
     sum_band     :     69.25s CPU     70.95s WALL (      11 calls)
     v_of_rho     :      0.14s CPU      0.15s WALL (      11 calls)
     newd         :      0.11s CPU      0.15s WALL (      11 calls)
     PAW_pot      :      0.69s CPU      0.71s WALL (      11 calls)
     mix_rho      :      0.03s CPU      0.04s WALL (      11 calls)

     Called by c_bands:
     init_us_2    :      9.97s CPU     10.16s WALL (    5400 calls)
     cegterg      :    442.72s CPU    452.09s WALL (    2376 calls)

     Called by sum_band:
     sum_band:bec :      0.28s CPU      0.29s WALL (    2376 calls)
     addusdens    :      0.09s CPU      0.13s WALL (      11 calls)

     Called by *egterg:
     h_psi        :    331.81s CPU    340.06s WALL (    8629 calls)
     s_psi        :     30.65s CPU     30.82s WALL (    8629 calls)
     g_psi        :      1.70s CPU      1.71s WALL (    6037 calls)
     cdiaghg      :     48.39s CPU     48.64s WALL (    8197 calls)

     Called by h_psi:
     h_psi:pot    :    330.34s CPU    338.57s WALL (    8629 calls)
     h_psi:calbec :     32.46s CPU     34.06s WALL (    8629 calls)
     vloc_psi     :    267.53s CPU    273.98s WALL (    8629 calls)
     add_vuspsi   :     30.27s CPU     30.47s WALL (    8629 calls)

     General routines
     calbec       :     49.82s CPU     52.25s WALL (   12085 calls)
     fft          :      0.14s CPU      0.18s WALL (     148 calls)
     ffts         :      0.01s CPU      0.01s WALL (      11 calls)
     fftw         :    294.65s CPU    301.41s WALL (  885560 calls)
 
     Parallel routines
     fft_scatt_xy :     28.95s CPU     29.58s WALL (  885719 calls)
     fft_scatt_yz :    148.36s CPU    152.05s WALL (  885719 calls)
 
     PWSCF        : 10m26.36s CPU    10m55.42s WALL

 
   This run was terminated on:   2:42:37  26Mar2020            

=------------------------------------------------------------------------------=
   JOB DONE.
=------------------------------------------------------------------------------=
