--------------------------------------------------------------------------
WARNING: There was an error initializing an OpenFabrics device.

  Local host:   bear-pg0211u07b
  Local device: mlx5_0
--------------------------------------------------------------------------

     Program PWSCF v.6.3 starts on  5Sep2020 at  6: 9:15 

     This program is part of the open-source Quantum ESPRESSO suite
     for quantum simulation of materials; please cite
         "P. Giannozzi et al., J. Phys.:Condens. Matter 21 395502 (2009);
         "P. Giannozzi et al., J. Phys.:Condens. Matter 29 465901 (2017);
          URL http://www.quantum-espresso.org", 
     in publications or presentations arising from this work. More details at
     http://www.quantum-espresso.org/quote

     Parallel version (MPI & OpenMP), running on      40 processor cores
     Number of MPI processes:                40
     Threads/MPI process:                     1

     MPI processes distributed on     1 nodes
     R & G space division:  proc/nbgrp/npool/nimage =      40
     Reading input from wd/eos/eos_002.in
Warning: card &IONS ignored
Warning: card ION_DYNAMICS = 'BFGS', ignored
Warning: card / ignored
Warning: card &CELL ignored
Warning: card CELL_DYNAMICS = 'BFGS', ignored
Warning: card CELL_FACTOR = 2.0, ignored
Warning: card PRESS = 0.0, ignored
Warning: card / ignored

     Current dimensions of program PWSCF are:
     Max number of different atomic species (ntypx) = 10
     Max number of k-points (npk) =  40000
     Max angular momentum in pseudopotentials (lmaxx) =  3
               file Fe.pbe-spn-kjpaw_psl.1.0.0.UPF: wavefunction(s)  3P 3D renormalized

     Subspace diagonalization in iterative solution of the eigenvalue problem:
     a serial algorithm will be used

 
     Parallelization info
     --------------------
     sticks:   dense  smooth     PW     G-vecs:    dense   smooth      PW
     Min          91      60     16                 4175     2238     330
     Max          92      61     17                 4178     2243     337
     Sum        3673    2417    673               167037    89583   13397
 


     bravais-lattice index     =            0
     lattice parameter (alat)  =      10.3915  a.u.
     unit-cell volume          =    1109.5210 (a.u.)^3
     number of atoms/cell      =           16
     number of atomic types    =            1
     number of electrons       =       256.00
     number of Kohn-Sham states=          154
     kinetic-energy cutoff     =      71.0000  Ry
     charge density cutoff     =     430.0000  Ry
     convergence threshold     =      5.0E-05
     mixing beta               =       0.1000
     number of iterations used =           10  plain     mixing
     Exchange-correlation      = SLA PW PBX PBC ( 1  4  3  4 0 0)

     celldm(1)=  10.391466  celldm(2)=   0.000000  celldm(3)=   0.000000
     celldm(4)=   0.000000  celldm(5)=   0.000000  celldm(6)=   0.000000

     crystal axes: (cart. coord. in units of alat)
               a(1) = (   0.996250   0.000000   0.000000 )  
               a(2) = (   0.000000   0.996250   0.000000 )  
               a(3) = (   0.000000   0.000000   0.996250 )  

     reciprocal axes: (cart. coord. in units 2 pi/alat)
               b(1) = (  1.003764  0.000000  0.000000 )  
               b(2) = (  0.000000  1.003764  0.000000 )  
               b(3) = (  0.000000  0.000000  1.003764 )  


     PseudoPot. # 1 for Fe read from file:
     /rds/homes/b/bxp912/pp/Fe.pbe-spn-kjpaw_psl.1.0.0.UPF
     MD5 check sum: 42f43b795421b414b0dc916aa790dbcb
     Pseudo is Projector augmented-wave + core cor, Zval = 16.0
     Generated using "atomic" code by A. Dal Corso v.6.3
     Shape of augmentation charge: PSQ
     Using radial grid of 1191 points,  6 beta functions with: 
                l(1) =   0
                l(2) =   0
                l(3) =   1
                l(4) =   1
                l(5) =   2
                l(6) =   2
     Q(r) pseudized with 0 coefficients 


     atomic species   valence    mass     pseudopotential
        Fe            16.00    55.84500     Fe( 1.00)

     48 Sym. Ops., with inversion, found



   Cartesian axes

     site n.     atom                  positions (alat units)
         1           Fe  tau(   1) = (   0.0000000   0.0000000   0.0000000  )
         2           Fe  tau(   2) = (   0.2490714   0.2490714   0.2490714  )
         3           Fe  tau(   3) = (   0.0000000   0.0000000   0.4981245  )
         4           Fe  tau(   4) = (   0.2490714   0.2490714   0.7471786  )
         5           Fe  tau(   5) = (   0.0000000   0.4981251   0.0000000  )
         6           Fe  tau(   6) = (   0.2490714   0.7471787   0.2490714  )
         7           Fe  tau(   7) = (   0.0000000   0.4981251   0.4981245  )
         8           Fe  tau(   8) = (   0.2490714   0.7471787   0.7471786  )
         9           Fe  tau(   9) = (   0.4981251   0.0000000   0.0000000  )
        10           Fe  tau(  10) = (   0.7471787   0.2490714   0.2490714  )
        11           Fe  tau(  11) = (   0.4981251   0.0000000   0.4981245  )
        12           Fe  tau(  12) = (   0.7471787   0.2490714   0.7471786  )
        13           Fe  tau(  13) = (   0.4981251   0.4981251   0.0000000  )
        14           Fe  tau(  14) = (   0.7471787   0.7471787   0.2490714  )
        15           Fe  tau(  15) = (   0.4981251   0.4981251   0.4981245  )
        16           Fe  tau(  16) = (   0.7471787   0.7471787   0.7471786  )

     number of k points=    35  Marzari-Vanderbilt smearing, width (Ry)=  0.0400
                       cart. coord. in units 2pi/alat
        k(    1) = (   0.0557647   0.0557647   0.0557647), wk =   0.0219479
        k(    2) = (   0.0557647   0.0557647   0.1672940), wk =   0.0658436
        k(    3) = (   0.0557647   0.0557647   0.2788234), wk =   0.0658436
        k(    4) = (   0.0557647   0.0557647   0.3903527), wk =   0.0658436
        k(    5) = (   0.0557647   0.0557647  -0.5018821), wk =   0.0329218
        k(    6) = (   0.0557647   0.1672940   0.1672940), wk =   0.0658436
        k(    7) = (   0.0557647   0.1672940   0.2788234), wk =   0.1316872
        k(    8) = (   0.0557647   0.1672940   0.3903527), wk =   0.1316872
        k(    9) = (   0.0557647   0.1672940  -0.5018821), wk =   0.0658436
        k(   10) = (   0.0557647   0.2788234   0.2788234), wk =   0.0658436
        k(   11) = (   0.0557647   0.2788234   0.3903527), wk =   0.1316872
        k(   12) = (   0.0557647   0.2788234  -0.5018821), wk =   0.0658436
        k(   13) = (   0.0557647   0.3903527   0.3903527), wk =   0.0658436
        k(   14) = (   0.0557647   0.3903527  -0.5018821), wk =   0.0658436
        k(   15) = (   0.0557647  -0.5018821  -0.5018821), wk =   0.0164609
        k(   16) = (   0.1672940   0.1672940   0.1672940), wk =   0.0219479
        k(   17) = (   0.1672940   0.1672940   0.2788234), wk =   0.0658436
        k(   18) = (   0.1672940   0.1672940   0.3903527), wk =   0.0658436
        k(   19) = (   0.1672940   0.1672940  -0.5018821), wk =   0.0329218
        k(   20) = (   0.1672940   0.2788234   0.2788234), wk =   0.0658436
        k(   21) = (   0.1672940   0.2788234   0.3903527), wk =   0.1316872
        k(   22) = (   0.1672940   0.2788234  -0.5018821), wk =   0.0658436
        k(   23) = (   0.1672940   0.3903527   0.3903527), wk =   0.0658436
        k(   24) = (   0.1672940   0.3903527  -0.5018821), wk =   0.0658436
        k(   25) = (   0.1672940  -0.5018821  -0.5018821), wk =   0.0164609
        k(   26) = (   0.2788234   0.2788234   0.2788234), wk =   0.0219479
        k(   27) = (   0.2788234   0.2788234   0.3903527), wk =   0.0658436
        k(   28) = (   0.2788234   0.2788234  -0.5018821), wk =   0.0329218
        k(   29) = (   0.2788234   0.3903527   0.3903527), wk =   0.0658436
        k(   30) = (   0.2788234   0.3903527  -0.5018821), wk =   0.0658436
        k(   31) = (   0.2788234  -0.5018821  -0.5018821), wk =   0.0164609
        k(   32) = (   0.3903527   0.3903527   0.3903527), wk =   0.0219479
        k(   33) = (   0.3903527   0.3903527  -0.5018821), wk =   0.0329218
        k(   34) = (   0.3903527  -0.5018821  -0.5018821), wk =   0.0164609
        k(   35) = (  -0.5018821  -0.5018821  -0.5018821), wk =   0.0027435

     Dense  grid:   167037 G-vectors     FFT dimensions: (  72,  72,  72)

     Smooth grid:    89583 G-vectors     FFT dimensions: (  60,  60,  60)

     Estimated max dynamical RAM per process >      56.30 MB

     Estimated total dynamical RAM >       2.20 GB

     Check: negative/imaginary core charge=   -0.000006    0.000000

     Initial potential from superposition of free atoms

     starting charge  255.99300, renormalised to  256.00000
     Starting wfcs are  160 randomized atomic wfcs
     Checking if some PAW data can be deallocated... 

     total cpu time spent up to now is        4.1 secs

     Self-consistent Calculation

     iteration #  1     ecut=    71.00 Ry     beta= 0.10
     Davidson diagonalization with overlap
     ethr =  1.00E-02,  avg # of iterations =  3.3

     Threshold (ethr) on eigenvalues was too large:
     Diagonalizing with lowered threshold

     Davidson diagonalization with overlap
     ethr =  2.61E-04,  avg # of iterations =  2.9

     total cpu time spent up to now is       28.5 secs

     total energy              =   -5267.74780853 Ry
     Harris-Foulkes estimate   =   -5267.86557012 Ry
     estimated scf accuracy    <       0.74695528 Ry

     iteration #  2     ecut=    71.00 Ry     beta= 0.10
     Davidson diagonalization with overlap
     ethr =  2.92E-04,  avg # of iterations =  1.0

     total cpu time spent up to now is       36.2 secs

     total energy              =   -5267.60830939 Ry
     Harris-Foulkes estimate   =   -5267.76340913 Ry
     estimated scf accuracy    <       0.37104238 Ry

     iteration #  3     ecut=    71.00 Ry     beta= 0.10
     Davidson diagonalization with overlap
     ethr =  1.45E-04,  avg # of iterations =  3.2

     total cpu time spent up to now is       50.4 secs

     total energy              =   -5267.69519929 Ry
     Harris-Foulkes estimate   =   -5267.71379266 Ry
     estimated scf accuracy    <       0.41517124 Ry

     iteration #  4     ecut=    71.00 Ry     beta= 0.10
     Davidson diagonalization with overlap
     ethr =  1.45E-04,  avg # of iterations =  1.0

     total cpu time spent up to now is       58.1 secs

     total energy              =   -5267.69846122 Ry
     Harris-Foulkes estimate   =   -5267.70490590 Ry
     estimated scf accuracy    <       0.02868092 Ry

     iteration #  5     ecut=    71.00 Ry     beta= 0.10
     Davidson diagonalization with overlap
     ethr =  1.12E-05,  avg # of iterations =  2.2

     total cpu time spent up to now is       68.3 secs

     total energy              =   -5267.69938515 Ry
     Harris-Foulkes estimate   =   -5267.70096972 Ry
     estimated scf accuracy    <       0.02037555 Ry

     iteration #  6     ecut=    71.00 Ry     beta= 0.10
     Davidson diagonalization with overlap
     ethr =  7.96E-06,  avg # of iterations =  2.5

     total cpu time spent up to now is       78.7 secs

     total energy              =   -5267.70172754 Ry
     Harris-Foulkes estimate   =   -5267.70106599 Ry
     estimated scf accuracy    <       0.01104824 Ry

     iteration #  7     ecut=    71.00 Ry     beta= 0.10
     Davidson diagonalization with overlap
     ethr =  4.32E-06,  avg # of iterations =  2.4

     total cpu time spent up to now is       88.8 secs

     total energy              =   -5267.70052024 Ry
     Harris-Foulkes estimate   =   -5267.70225918 Ry
     estimated scf accuracy    <       0.01307987 Ry

     iteration #  8     ecut=    71.00 Ry     beta= 0.10
     Davidson diagonalization with overlap
     ethr =  4.32E-06,  avg # of iterations =  2.2

     total cpu time spent up to now is       98.4 secs

     total energy              =   -5267.70105263 Ry
     Harris-Foulkes estimate   =   -5267.70137012 Ry
     estimated scf accuracy    <       0.00573579 Ry

     iteration #  9     ecut=    71.00 Ry     beta= 0.10
     Davidson diagonalization with overlap
     ethr =  2.24E-06,  avg # of iterations =  2.2

     total cpu time spent up to now is      107.8 secs

     total energy              =   -5267.70127958 Ry
     Harris-Foulkes estimate   =   -5267.70130042 Ry
     estimated scf accuracy    <       0.00031502 Ry

     iteration # 10     ecut=    71.00 Ry     beta= 0.10
     Davidson diagonalization with overlap
     ethr =  1.23E-07,  avg # of iterations =  3.1

     total cpu time spent up to now is      122.4 secs

     End of self-consistent calculation

          k = 0.0558 0.0558 0.0558 ( 11161 PWs)   bands (ev):

   -66.5247 -66.4204 -66.4204 -66.4199 -66.4029 -66.4028 -66.4025 -66.4019
   -66.4019 -66.4015 -66.4011 -66.4010 -66.4006 -66.3933 -66.3928 -66.3133
   -32.8306 -32.8306 -32.8306 -32.8276 -32.8276 -32.8275 -32.6551 -32.6551
   -32.6484 -32.5767 -32.5741 -32.5738 -32.5738 -32.5504 -32.5504 -32.5375
   -32.5370 -32.5370 -32.4981 -32.4981 -32.4722 -32.4554 -32.4553 -32.4553
   -32.4434 -32.4433 -32.4433 -32.4292 -32.4287 -32.4287 -32.4256 -32.4252
   -32.4252 -32.4180 -32.4180 -32.4180 -32.4069 -32.4069 -32.4067 -32.2364
   -32.2345 -32.2345 -32.2344 -32.2310 -32.2309 -32.2309 -32.2294 -32.2294
    11.6790  15.5889  15.5889  15.5890  15.6831  15.6831  15.6831  15.7090
    15.7090  15.7090  15.9422  15.9422  16.0991  16.0991  16.0991  17.4687
    17.5602  17.5602  17.5644  17.5645  17.5645  17.5784  17.5784  17.5784
    17.7055  17.7055  17.7535  18.0003  18.0006  18.0006  18.4017  18.4020
    18.4020  18.9008  18.9008  18.9490  19.2330  19.2330  19.2332  19.3389
    19.3389  19.3389  19.4283  19.4284  19.4284  19.5251  19.5251  19.5251
    20.2853  20.2857  20.2857  20.5136  20.5138  20.5138  20.5402  20.5403
    20.5403  20.6848  20.6850  20.6850  20.6862  20.6864  20.6864  20.7172
    20.7172  20.9752  20.9752  20.9752  20.9861  20.9864  20.9864  21.0337
    21.0337  21.0341  21.0341  21.5288  21.5290  21.5290  21.7601  21.8144
    21.8145  21.8145  21.8401  21.8401  22.2757  22.2757  22.2757  22.3051
    22.3052  22.3052

          k = 0.0558 0.0558 0.1673 ( 11200 PWs)   bands (ev):

   -66.5210 -66.4389 -66.4195 -66.4193 -66.4050 -66.4047 -66.4022 -66.4016
   -66.4013 -66.4006 -66.4001 -66.3997 -66.3941 -66.3934 -66.3840 -66.3161
   -32.8223 -32.8223 -32.8211 -32.8184 -32.8132 -32.8132 -32.6590 -32.6485
   -32.6386 -32.6156 -32.6063 -32.6062 -32.6037 -32.6028 -32.5711 -32.5709
   -32.5343 -32.5055 -32.4945 -32.4925 -32.4801 -32.4552 -32.4550 -32.4470
   -32.4353 -32.4331 -32.4328 -32.4325 -32.4314 -32.4229 -32.4227 -32.4186
   -32.4184 -32.4140 -32.4139 -32.3815 -32.3788 -32.3785 -32.3711 -32.2522
   -32.2443 -32.2442 -32.2425 -32.2400 -32.2355 -32.2345 -32.2344 -32.2321
    11.8183  14.9573  15.6450  15.6451  15.6954  15.6954  15.7749  15.7749
    15.7853  15.8099  16.0064  16.0080  16.1423  16.1423  16.4293  17.3576
    17.4691  17.4804  17.5457  17.5586  17.5962  17.6019  17.6154  17.6155
    17.6577  17.6577  17.8987  17.9102  17.9553  17.9554  18.3022  18.3024
    18.7626  18.8747  18.8959  19.0128  19.0147  19.0149  19.0813  19.1981
    19.1981  19.2418  19.5181  19.5182  19.6372  19.6373  19.6679  19.7705
    19.9707  19.9709  20.0367  20.2701  20.2705  20.2707  20.4345  20.5198
    20.5200  20.6228  20.6230  20.6422  20.7066  20.7085  20.7087  20.7332
    20.7477  20.7677  20.7677  20.7935  20.9892  21.0111  21.0114  21.0308
    21.0315  21.2099  21.3219  21.3220  21.4949  21.5820  21.6981  21.8229
    21.8229  21.8324  21.8700  21.8701  22.1772  22.1772  22.3510  22.3510
    22.4414  22.4414

          k = 0.0558 0.0558 0.2788 ( 11195 PWs)   bands (ev):

   -66.5138 -66.4572 -66.4179 -66.4177 -66.4075 -66.4072 -66.4012 -66.4011
   -66.4008 -66.3997 -66.3996 -66.3992 -66.3951 -66.3943 -66.3675 -66.3216
   -32.8030 -32.8030 -32.8025 -32.8005 -32.7880 -32.7879 -32.6601 -32.6592
   -32.6531 -32.6497 -32.6497 -32.6352 -32.6262 -32.6232 -32.6172 -32.6171
   -32.5282 -32.5182 -32.5149 -32.4999 -32.4529 -32.4526 -32.4485 -32.4473
   -32.4424 -32.4371 -32.4368 -32.4211 -32.4208 -32.4185 -32.4182 -32.3985
   -32.3902 -32.3773 -32.3772 -32.3474 -32.3441 -32.3439 -32.3376 -32.2784
   -32.2602 -32.2602 -32.2589 -32.2573 -32.2475 -32.2443 -32.2442 -32.2421
    12.0927  14.2773  15.7305  15.7305  15.7364  15.7364  15.8758  15.8759
    15.9817  16.0033  16.1255  16.1385  16.1909  16.1909  16.5677  17.1939
    17.2244  17.2421  17.4251  17.4761  17.5129  17.5237  17.7299  17.7299
    17.7997  17.7997  17.9487  17.9489  18.1567  18.1783  18.2347  18.2349
    18.7196  18.7197  18.8578  18.8843  18.8843  18.8892  18.9236  18.9720
    19.1077  19.3745  19.3986  19.3988  19.6207  19.6209  19.7818  19.7818
    19.8010  19.8207  19.8208  19.8321  19.8805  19.9527  20.0653  20.4946
    20.5210  20.5211  20.6209  20.6211  20.7447  20.7591  20.8058  20.8291
    20.8292  20.9705  20.9714  20.9946  21.0257  21.0279  21.0378  21.0666
    21.0666  21.0787  21.2802  21.3137  21.4428  21.5209  21.5209  21.7586
    21.8381  21.8381  21.9256  21.9257  22.0479  22.0479  22.4338  22.4338
    22.5777  22.5777

          k = 0.0558 0.0558 0.3904 ( 11196 PWs)   bands (ev):

   -66.5033 -66.4744 -66.4157 -66.4154 -66.4102 -66.4100 -66.4005 -66.4003
   -66.3999 -66.3996 -66.3993 -66.3983 -66.3965 -66.3956 -66.3527 -66.3296
   -32.7754 -32.7745 -32.7742 -32.7741 -32.7534 -32.7534 -32.7020 -32.6996
   -32.6946 -32.6946 -32.6654 -32.6653 -32.6583 -32.6424 -32.6160 -32.6028
   -32.5615 -32.5480 -32.5008 -32.4878 -32.4634 -32.4568 -32.4496 -32.4493
   -32.4416 -32.4413 -32.4197 -32.4194 -32.4186 -32.4183 -32.4012 -32.3539
   -32.3495 -32.3417 -32.3416 -32.3157 -32.3135 -32.3113 -32.3111 -32.3072
   -32.2826 -32.2826 -32.2822 -32.2821 -32.2653 -32.2605 -32.2604 -32.2584
    12.4936  13.6121  15.7868  15.7869  15.7998  15.7998  15.9979  15.9980
    16.1891  16.1891  16.2557  16.2723  16.2791  16.3306  16.5504  16.8805
    16.9167  16.9254  17.4188  17.4363  17.4739  17.4828  17.9025  17.9025
    17.9983  17.9983  18.0740  18.0741  18.2747  18.2749  18.4547  18.4547
    18.4896  18.5105  18.5704  18.5704  18.8525  18.8590  18.8592  18.8859
    18.9018  18.9133  19.0396  19.0398  19.2351  19.3528  19.3573  19.5855
    19.6905  20.0234  20.0235  20.0516  20.0517  20.2774  20.2798  20.3839
    20.3840  20.3991  20.4844  20.4845  20.7964  20.8056  20.8897  20.9162
    20.9189  20.9844  21.0019  21.0187  21.0248  21.0375  21.1155  21.1218
    21.1362  21.1363  21.2643  21.3597  21.3597  21.5534  21.5534  21.6330
    21.8140  21.8140  21.8564  21.8565  21.9292  21.9293  22.5337  22.5337
    22.6456  22.6457

          k = 0.0558 0.0558-0.5019 ( 11226 PWs)   bands (ev):

   -66.4902 -66.4900 -66.4133 -66.4130 -66.4128 -66.4126 -66.4003 -66.3999
   -66.3997 -66.3995 -66.3984 -66.3981 -66.3971 -66.3969 -66.3402 -66.3399
   -32.7414 -32.7412 -32.7409 -32.7407 -32.7374 -32.7373 -32.7372 -32.7372
   -32.7117 -32.7116 -32.7115 -32.7114 -32.6532 -32.6530 -32.5911 -32.5909
   -32.5776 -32.5774 -32.4823 -32.4820 -32.4732 -32.4730 -32.4460 -32.4457
   -32.4457 -32.4455 -32.4190 -32.4188 -32.4187 -32.4185 -32.3556 -32.3554
   -32.3153 -32.3151 -32.3133 -32.3130 -32.3098 -32.3096 -32.3095 -32.3094
   -32.2886 -32.2884 -32.2832 -32.2830 -32.2829 -32.2829 -32.2806 -32.2804
    13.0069  13.0073  15.8177  15.8177  15.8179  15.8179  16.1150  16.1150
    16.1152  16.1152  16.4353  16.4355  16.5797  16.5802  16.5817  16.5820
    16.5896  16.5899  17.4384  17.4388  17.4481  17.4484  18.1220  18.1220
    18.1222  18.1224  18.2212  18.2212  18.2214  18.2214  18.4358  18.4359
    18.4360  18.4363  18.6002  18.6004  18.6004  18.6006  18.8644  18.8646
    18.8911  18.8911  18.8925  18.8928  18.9045  18.9046  19.3950  19.3953
    20.0063  20.0066  20.2157  20.2157  20.2158  20.2161  20.2920  20.2920
    20.2921  20.2923  20.6287  20.6289  20.7568  20.7570  20.8553  20.8555
    20.8607  20.8609  20.9947  20.9950  21.0101  21.0104  21.0256  21.0258
    21.3993  21.3995  21.3995  21.3996  21.4653  21.4655  21.6157  21.6158
    21.6158  21.6159  21.8777  21.8777  21.8779  21.8780  22.6184  22.6184
    22.6187  22.6187

          k = 0.0558 0.1673 0.1673 ( 11223 PWs)   bands (ev):

   -66.5174 -66.4377 -66.4374 -66.4186 -66.4101 -66.4044 -66.4041 -66.4012
   -66.3997 -66.3994 -66.3959 -66.3950 -66.3936 -66.3844 -66.3841 -66.3188
   -32.8205 -32.8133 -32.8132 -32.8051 -32.8050 -32.7930 -32.6661 -32.6445
   -32.6403 -32.6343 -32.6342 -32.6264 -32.6223 -32.6189 -32.5931 -32.5453
   -32.5296 -32.5292 -32.4937 -32.4916 -32.4913 -32.4612 -32.4500 -32.4496
   -32.4434 -32.4402 -32.4400 -32.4288 -32.4285 -32.4267 -32.4230 -32.4137
   -32.4040 -32.3904 -32.3830 -32.3827 -32.3581 -32.3447 -32.3446 -32.2736
   -32.2606 -32.2508 -32.2507 -32.2426 -32.2426 -32.2405 -32.2312 -32.2295
    11.9559  15.0325  15.0326  15.6412  15.7077  15.7993  15.7994  15.8749
    15.8749  15.8855  16.0692  16.0740  16.1947  16.4711  16.4711  17.2566
    17.3711  17.5517  17.5923  17.5924  17.5941  17.5942  17.6320  17.6320
    17.6380  17.6720  17.7642  17.8835  17.8948  17.9229  18.1952  18.5847
    18.5850  18.8121  18.8761  18.8762  18.8803  18.9261  19.0730  19.1182
    19.4235  19.4238  19.4911  19.4911  19.5415  19.6012  19.7051  19.8105
    19.8105  19.8176  19.8179  20.0156  20.0156  20.1724  20.2722  20.2726
    20.5134  20.6295  20.6450  20.6450  20.7000  20.7041  20.7042  20.7260
    20.7322  20.9118  20.9611  20.9956  20.9959  21.0107  21.0108  21.0215
    21.0230  21.1278  21.1280  21.3489  21.4611  21.4613  21.4804  21.4804
    21.5933  21.8542  21.8594  21.9936  22.0670  22.4271  22.7531  22.7532
    22.9427  23.1107

          k = 0.0558 0.1673 0.2788 ( 11197 PWs)   bands (ev):

   -66.5104 -66.4553 -66.4348 -66.4171 -66.4156 -66.4067 -66.4032 -66.4007
   -66.3992 -66.3987 -66.3963 -66.3942 -66.3924 -66.3848 -66.3683 -66.3240
   -32.8074 -32.7954 -32.7952 -32.7890 -32.7816 -32.7620 -32.6744 -32.6729
   -32.6713 -32.6592 -32.6571 -32.6545 -32.6317 -32.6289 -32.6017 -32.5768
   -32.5332 -32.5265 -32.4896 -32.4871 -32.4847 -32.4834 -32.4630 -32.4538
   -32.4535 -32.4455 -32.4392 -32.4268 -32.4254 -32.4119 -32.4056 -32.3875
   -32.3849 -32.3702 -32.3610 -32.3493 -32.3315 -32.3131 -32.3127 -32.3056
   -32.2817 -32.2641 -32.2636 -32.2587 -32.2522 -32.2507 -32.2344 -32.2334
    12.2270  14.3714  15.1646  15.5980  15.8058  15.8417  15.9754  15.9990
    16.0258  16.0660  16.1865  16.2028  16.2607  16.5052  16.6166  17.1377
    17.2218  17.2398  17.4880  17.5565  17.5785  17.5874  17.6355  17.7001
    17.7234  17.7604  17.8563  17.9326  18.0507  18.0995  18.1151  18.4526
    18.6123  18.7178  18.7334  18.7544  18.7933  18.8404  18.8630  19.0614
    19.0965  19.2528  19.2907  19.4497  19.5097  19.5921  19.6059  19.6148
    19.6911  19.7912  19.8123  19.8646  19.8964  20.0317  20.0580  20.3876
    20.5163  20.5460  20.5850  20.6222  20.6557  20.6894  20.7277  20.7697
    20.9371  20.9534  20.9549  21.0173  21.0228  21.0436  21.0467  21.0619
    21.1118  21.2241  21.2416  21.2555  21.2650  21.2932  21.3476  21.4514
    21.5707  21.7871  21.8425  21.9246  22.0626  22.5689  22.5902  23.1572
    23.2653  23.3817

          k = 0.0558 0.1673 0.3904 ( 11209 PWs)   bands (ev):

   -66.5002 -66.4721 -66.4310 -66.4211 -66.4148 -66.4094 -66.4016 -66.4001
   -66.3992 -66.3980 -66.3976 -66.3952 -66.3896 -66.3859 -66.3540 -66.3317
   -32.7842 -32.7696 -32.7684 -32.7660 -32.7494 -32.7228 -32.7155 -32.7050
   -32.6986 -32.6969 -32.6761 -32.6702 -32.6679 -32.6279 -32.6128 -32.5774
   -32.5593 -32.5182 -32.5144 -32.4809 -32.4806 -32.4721 -32.4635 -32.4609
   -32.4530 -32.4513 -32.4358 -32.4261 -32.4260 -32.3986 -32.3883 -32.3745
   -32.3480 -32.3443 -32.3375 -32.3317 -32.3188 -32.3083 -32.3053 -32.2853
   -32.2842 -32.2829 -32.2823 -32.2821 -32.2695 -32.2639 -32.2445 -32.2444
    12.6224  13.7214  15.3176  15.5425  15.8900  15.8922  16.0969  16.1859
    16.2763  16.2770  16.3293  16.3402  16.3882  16.4651  16.6068  16.9141
    16.9266  16.9438  17.4552  17.4996  17.5118  17.5363  17.8122  17.8526
    17.8675  17.9256  17.9279  18.0794  18.1536  18.2931  18.3455  18.4068
    18.5118  18.5229  18.5859  18.5940  18.7156  18.7159  18.7606  18.8038
    18.8125  18.8451  18.9297  19.0728  19.1353  19.1375  19.4128  19.8037
    19.8361  19.9996  20.0007  20.0584  20.0611  20.0807  20.2541  20.3292
    20.3533  20.4119  20.4849  20.5281  20.6977  20.7513  20.7754  20.8547
    20.8923  20.8981  20.9027  21.0145  21.0210  21.0299  21.0309  21.0930
    21.1073  21.1417  21.1792  21.3049  21.3114  21.4084  21.4508  21.5526
    21.5587  21.5643  21.7624  21.9638  22.0451  22.4062  22.7520  23.0877
    23.4419  23.5863

          k = 0.0558 0.1673-0.5019 ( 11218 PWs)   bands (ev):

   -66.4873 -66.4871 -66.4265 -66.4262 -66.4123 -66.4121 -66.4000 -66.3998
   -66.3996 -66.3993 -66.3966 -66.3963 -66.3875 -66.3873 -66.3419 -66.3417
   -32.7530 -32.7529 -32.7375 -32.7373 -32.7370 -32.7368 -32.7345 -32.7344
   -32.7114 -32.7114 -32.6774 -32.6774 -32.6750 -32.6749 -32.5884 -32.5882
   -32.5496 -32.5495 -32.4935 -32.4933 -32.4730 -32.4728 -32.4679 -32.4676
   -32.4567 -32.4565 -32.4261 -32.4259 -32.3929 -32.3927 -32.3886 -32.3885
   -32.3395 -32.3394 -32.3123 -32.3121 -32.3081 -32.3079 -32.3051 -32.3050
   -32.2921 -32.2919 -32.2824 -32.2823 -32.2619 -32.2618 -32.2611 -32.2610
    13.1276  13.1281  15.4512  15.4514  15.9187  15.9189  16.2116  16.2118
    16.3444  16.3446  16.4957  16.4959  16.6057  16.6060  16.6271  16.6275
    16.6331  16.6334  17.4722  17.4725  17.4973  17.4976  18.0159  18.0161
    18.0366  18.0368  18.0628  18.0630  18.1311  18.1313  18.4538  18.4538
    18.4997  18.4998  18.5692  18.5693  18.6908  18.6910  18.7011  18.7013
    18.7138  18.7138  18.7545  18.7546  18.8297  18.8299  19.5970  19.5973
    20.0933  20.0936  20.1223  20.1226  20.2466  20.2468  20.2938  20.2939
    20.3330  20.3331  20.3411  20.3412  20.6862  20.6864  20.8217  20.8219
    20.8352  20.8354  20.9630  20.9632  21.0141  21.0143  21.0537  21.0539
    21.1665  21.1666  21.2695  21.2696  21.3827  21.3828  21.4610  21.4611
    21.6281  21.6283  21.7933  21.7934  22.2143  22.2145  22.9394  22.9397
    23.5769  23.5773

          k = 0.0558 0.2788 0.2788 ( 11208 PWs)   bands (ev):

   -66.5038 -66.4517 -66.4514 -66.4240 -66.4155 -66.4057 -66.4055 -66.4001
   -66.3985 -66.3982 -66.3979 -66.3946 -66.3860 -66.3701 -66.3698 -66.3288
   -32.8007 -32.7797 -32.7797 -32.7692 -32.7692 -32.7269 -32.6910 -32.6909
   -32.6884 -32.6863 -32.6771 -32.6747 -32.6508 -32.6200 -32.5757 -32.5346
   -32.5318 -32.5313 -32.5204 -32.5200 -32.4845 -32.4720 -32.4696 -32.4613
   -32.4611 -32.4471 -32.4467 -32.4381 -32.4379 -32.4323 -32.3917 -32.3625
   -32.3537 -32.3533 -32.3464 -32.3427 -32.3392 -32.3141 -32.3079 -32.2854
   -32.2853 -32.2717 -32.2717 -32.2634 -32.2634 -32.2632 -32.2308 -32.2299
    12.4909  14.5466  14.5467  15.4430  15.9296  16.0435  16.0435  16.1645
    16.1646  16.1875  16.2896  16.3377  16.3636  16.6572  16.6573  17.0748
    17.1381  17.3218  17.3218  17.5486  17.6244  17.6480  17.6481  17.6934
    17.6934  17.7589  17.7787  17.9616  17.9964  18.0952  18.1256  18.5042
    18.5043  18.6186  18.6362  18.6365  18.6486  18.6654  18.7166  18.8286
    19.0829  19.0829  19.1493  19.1493  19.3166  19.3529  19.3533  19.4341
    19.8790  19.8790  19.9382  19.9804  20.0301  20.0304  20.2509  20.3364
    20.3369  20.5091  20.5973  20.5973  20.6267  20.6456  20.6457  20.7077
    20.7440  20.9091  20.9107  20.9180  21.0154  21.0254  21.0614  21.1157
    21.1271  21.1274  21.1802  21.2069  21.2070  21.3170  21.3173  21.5000
    21.5001  21.5407  21.8960  22.0916  22.1048  22.8069  23.2292  23.2294
    23.8396  23.8397

          k = 0.0558 0.2788 0.3904 ( 11202 PWs)   bands (ev):

   -66.4941 -66.4674 -66.4463 -66.4321 -66.4134 -66.4081 -66.4039 -66.4000
   -66.3995 -66.3985 -66.3973 -66.3954 -66.3806 -66.3725 -66.3566 -66.3359
   -32.7841 -32.7577 -32.7573 -32.7517 -32.7423 -32.7269 -32.7091 -32.7022
   -32.7017 -32.6996 -32.6962 -32.6837 -32.6796 -32.6019 -32.5835 -32.5511
   -32.5467 -32.5224 -32.5108 -32.4849 -32.4831 -32.4813 -32.4812 -32.4773
   -32.4755 -32.4683 -32.4515 -32.4376 -32.4361 -32.4088 -32.3861 -32.3791
   -32.3600 -32.3380 -32.3334 -32.3249 -32.3228 -32.3178 -32.2970 -32.2842
   -32.2837 -32.2817 -32.2793 -32.2709 -32.2621 -32.2618 -32.2341 -32.2338
    12.8747  13.9310  14.7769  15.2535  16.0484  16.0919  16.2829  16.3220
    16.3530  16.4209  16.4243  16.4256  16.5270  16.6195  16.6624  16.9429
    16.9434  17.0257  17.5265  17.5317  17.5721  17.5877  17.6187  17.7546
    17.7683  17.8082  17.8921  17.8946  18.1589  18.2456  18.2552  18.2663
    18.3795  18.4831  18.4900  18.5541  18.5645  18.5957  18.6834  18.7042
    18.7270  18.7890  18.7955  18.8087  18.9492  19.0034  19.6364  19.6517
    20.0227  20.0369  20.0943  20.1315  20.1350  20.1420  20.1451  20.2398
    20.3462  20.4015  20.4716  20.5123  20.5365  20.6546  20.6713  20.6986
    20.7992  20.8200  20.8399  20.8444  20.9508  21.0212  21.0381  21.0434
    21.0641  21.1371  21.1445  21.1665  21.1747  21.2515  21.2731  21.3399
    21.6754  21.7370  21.8839  22.0430  22.3630  22.9547  23.0995  23.6596
    23.9140  24.5430

          k = 0.0558 0.2788-0.5019 ( 11182 PWs)   bands (ev):

   -66.4819 -66.4816 -66.4397 -66.4395 -66.4109 -66.4107 -66.4020 -66.4018
   -66.3990 -66.3988 -66.3965 -66.3962 -66.3762 -66.3759 -66.3453 -66.3451
   -32.7588 -32.7587 -32.7310 -32.7309 -32.7307 -32.7307 -32.7301 -32.7300
   -32.7114 -32.7114 -32.7011 -32.7010 -32.6352 -32.6352 -32.5787 -32.5785
   -32.5148 -32.5147 -32.5032 -32.5030 -32.4989 -32.4987 -32.4738 -32.4736
   -32.4656 -32.4654 -32.4375 -32.4374 -32.4338 -32.4337 -32.3720 -32.3719
   -32.3686 -32.3684 -32.3056 -32.3054 -32.3017 -32.3015 -32.3001 -32.2998
   -32.2990 -32.2990 -32.2822 -32.2821 -32.2445 -32.2445 -32.2444 -32.2443
    13.3623  13.3628  15.0247  15.0250  16.1055  16.1057  16.3877  16.3879
    16.5059  16.5061  16.5659  16.5661  16.6423  16.6426  16.7036  16.7039
    16.7585  16.7588  17.5381  17.5384  17.5650  17.5653  17.8338  17.8340
    17.8567  17.8569  17.8642  17.8644  18.0574  18.0576  18.4502  18.4503
    18.4740  18.4742  18.4813  18.4815  18.5098  18.5100  18.5165  18.5166
    18.6720  18.6721  18.6946  18.6948  18.7491  18.7493  19.8559  19.8562
    19.9871  19.9871  20.0561  20.0564  20.2294  20.2297  20.3170  20.3172
    20.3347  20.3348  20.3688  20.3689  20.5138  20.5140  20.7563  20.7565
    20.7694  20.7696  20.9051  20.9053  20.9509  20.9510  21.0350  21.0351
    21.0655  21.0656  21.0848  21.0849  21.1806  21.1807  21.3108  21.3110
    21.8073  21.8074  21.9225  21.9225  22.6585  22.6587  23.3985  23.3988
    24.6174  24.6178

          k = 0.0558 0.3904 0.3904 ( 11200 PWs)   bands (ev):

   -66.4852 -66.4609 -66.4606 -66.4426 -66.4113 -66.4065 -66.4063 -66.4020
   -66.3989 -66.3977 -66.3974 -66.3959 -66.3726 -66.3608 -66.3605 -66.3422
   -32.7740 -32.7422 -32.7422 -32.7332 -32.7332 -32.7299 -32.7298 -32.7150
   -32.7133 -32.7120 -32.7111 -32.6942 -32.6378 -32.5853 -32.5391 -32.5387
   -32.5351 -32.5346 -32.5201 -32.5133 -32.5050 -32.4886 -32.4885 -32.4869
   -32.4723 -32.4511 -32.4510 -32.4444 -32.4439 -32.4434 -32.4336 -32.3710
   -32.3615 -32.3345 -32.3341 -32.3151 -32.3083 -32.3050 -32.2935 -32.2893
   -32.2879 -32.2878 -32.2822 -32.2821 -32.2446 -32.2446 -32.2306 -32.2302
    13.2390  14.2218  14.2219  14.9203  16.2236  16.3601  16.3602  16.4939
    16.5227  16.5268  16.5269  16.5639  16.6589  16.6590  16.7316  16.8612
    16.9157  17.2498  17.2499  17.5720  17.5899  17.6502  17.6741  17.6742
    17.6847  17.6847  17.7713  17.9001  17.9729  18.0985  18.2090  18.2802
    18.2804  18.3817  18.4350  18.4572  18.4768  18.4769  18.5096  18.5096
    18.6388  18.6428  18.6432  18.7306  18.7757  19.2919  19.2923  19.8786
    19.9779  20.0627  20.1259  20.1263  20.2464  20.2465  20.2659  20.2762
    20.3954  20.3958  20.4344  20.5221  20.5597  20.5597  20.5625  20.5781
    20.5782  20.7598  20.7631  20.7742  20.8665  20.9641  20.9642  20.9913
    21.0376  21.0687  21.1022  21.1025  21.1406  21.1975  21.1978  21.2223
    21.8652  21.8653  21.9453  22.0540  22.7449  23.5011  23.5410  23.5411
    24.2799  24.2800

          k = 0.0558 0.3904-0.5019 ( 11208 PWs)   bands (ev):

   -66.4740 -66.4738 -66.4524 -66.4522 -66.4091 -66.4088 -66.4044 -66.4041
   -66.3983 -66.3981 -66.3968 -66.3965 -66.3661 -66.3659 -66.3506 -66.3504
   -32.7554 -32.7554 -32.7259 -32.7258 -32.7257 -32.7256 -32.7251 -32.7250
   -32.7234 -32.7232 -32.7131 -32.7130 -32.5872 -32.5872 -32.5642 -32.5640
   -32.5234 -32.5232 -32.5074 -32.5072 -32.4912 -32.4911 -32.4844 -32.4843
   -32.4788 -32.4787 -32.4635 -32.4634 -32.4494 -32.4493 -32.4066 -32.4065
   -32.3468 -32.3465 -32.3121 -32.3119 -32.2973 -32.2972 -32.2962 -32.2961
   -32.2949 -32.2949 -32.2846 -32.2845 -32.2340 -32.2340 -32.2338 -32.2337
    13.6968  13.6972  14.5641  14.5644  16.3398  16.3400  16.5989  16.5990
    16.5991  16.5992  16.6124  16.6127  16.6460  16.6462  16.7689  16.7691
    16.9785  16.9787  17.5547  17.5549  17.6008  17.6010  17.6019  17.6020
    17.6665  17.6667  17.7244  17.7245  18.1045  18.1047  18.2398  18.2399
    18.3259  18.3260  18.3324  18.3326  18.3378  18.3380  18.3938  18.3940
    18.6625  18.6627  18.6816  18.6818  18.9487  18.9488  19.6205  19.6205
    20.0591  20.0593  20.1317  20.1319  20.3154  20.3156  20.3674  20.3676
    20.4223  20.4224  20.4229  20.4230  20.4262  20.4264  20.6615  20.6616
    20.6682  20.6684  20.6968  20.6970  20.8391  20.8393  20.8909  20.8911
    21.0623  21.0625  21.1146  21.1148  21.1274  21.1276  21.2101  21.2102
    21.9375  21.9376  21.9942  21.9942  23.1462  23.1465  23.9076  23.9079
    24.1408  24.1411

          k = 0.0558-0.5019-0.5019 ( 11228 PWs)   bands (ev):

   -66.4641 -66.4641 -66.4639 -66.4637 -66.4069 -66.4068 -66.4066 -66.4064
   -66.3976 -66.3975 -66.3973 -66.3971 -66.3577 -66.3576 -66.3574 -66.3572
   -32.7439 -32.7438 -32.7438 -32.7437 -32.7240 -32.7240 -32.7239 -32.7238
   -32.7170 -32.7170 -32.7169 -32.7169 -32.5455 -32.5455 -32.5451 -32.5450
   -32.5365 -32.5364 -32.5359 -32.5359 -32.5035 -32.5035 -32.5034 -32.5033
   -32.4585 -32.4585 -32.4585 -32.4583 -32.4428 -32.4427 -32.4423 -32.4423
   -32.3279 -32.3279 -32.3275 -32.3273 -32.2941 -32.2940 -32.2939 -32.2939
   -32.2898 -32.2898 -32.2897 -32.2896 -32.2304 -32.2304 -32.2304 -32.2302
    14.1081  14.1082  14.1084  14.1087  16.5475  16.5477  16.5478  16.5479
    16.6291  16.6292  16.6293  16.6296  16.7526  16.7528  16.7529  16.7530
    17.2535  17.2535  17.2537  17.2538  17.5937  17.5938  17.5938  17.5939
    17.6417  17.6418  17.6419  17.6419  18.1998  18.2001  18.2001  18.2001
    18.2157  18.2158  18.2158  18.2161  18.3043  18.3044  18.3044  18.3046
    18.6507  18.6507  18.6508  18.6512  19.2687  19.2687  19.2691  19.2691
    20.1499  20.1500  20.1501  20.1505  20.4086  20.4089  20.4092  20.4092
    20.4509  20.4509  20.4510  20.4511  20.5448  20.5450  20.5450  20.5452
    20.5466  20.5467  20.5469  20.5469  20.8159  20.8160  20.8161  20.8163
    21.0918  21.0918  21.0922  21.0922  21.1507  21.1507  21.1510  21.1511
    22.0008  22.0008  22.0009  22.0009  23.6463  23.6467  23.6468  23.6469
    24.4239  24.4243

          k = 0.1673 0.1673 0.1673 ( 11206 PWs)   bands (ev):

   -66.5139 -66.4363 -66.4363 -66.4359 -66.4095 -66.4095 -66.4091 -66.3967
   -66.3957 -66.3957 -66.3952 -66.3930 -66.3846 -66.3846 -66.3842 -66.3213
   -32.8110 -32.8110 -32.8110 -32.7862 -32.7862 -32.7862 -32.6618 -32.6591
   -32.6591 -32.6521 -32.6520 -32.6520 -32.6019 -32.5967 -32.5967 -32.5533
   -32.5528 -32.5528 -32.4993 -32.4992 -32.4992 -32.4524 -32.4520 -32.4520
   -32.4431 -32.4431 -32.4239 -32.4236 -32.4236 -32.4186 -32.4182 -32.4182
   -32.3858 -32.3857 -32.3857 -32.3773 -32.3273 -32.3273 -32.3271 -32.2962
   -32.2640 -32.2640 -32.2640 -32.2400 -32.2399 -32.2399 -32.2357 -32.2357
    12.0922  15.1122  15.1122  15.1122  15.7497  15.7497  15.7497  15.9827
    15.9828  15.9828  16.1354  16.1354  16.5251  16.5251  16.5251  17.1732
    17.4801  17.4801  17.5670  17.5672  17.5672  17.6168  17.6168  17.6168
    17.7289  17.7289  17.7290  17.7694  17.8440  17.8440  18.4311  18.4314
    18.4314  18.7966  18.7966  18.7969  18.7991  18.7991  19.2349  19.2356
    19.2359  19.2359  19.4333  19.4334  19.4334  19.6081  19.6081  19.6081
    19.8449  19.8449  19.8450  19.8956  19.8957  19.8957  20.4755  20.4760
    20.4760  20.5507  20.5508  20.5508  20.6646  20.6646  20.7053  20.7054
    20.7054  20.9640  20.9643  20.9643  20.9961  20.9961  20.9987  20.9987
    21.0676  21.1192  21.1192  21.1193  21.4778  21.4778  21.4778  21.6930
    21.6933  21.6933  21.7188  21.7188  22.4509  22.4510  22.4510  23.2271
    23.2271  23.2271

          k = 0.1673 0.1673 0.2788 ( 11191 PWs)   bands (ev):

   -66.5071 -66.4534 -66.4337 -66.4334 -66.4148 -66.4146 -66.4080 -66.3988
   -66.3950 -66.3928 -66.3924 -66.3920 -66.3852 -66.3849 -66.3690 -66.3263
   -32.7986 -32.7985 -32.7928 -32.7731 -32.7577 -32.7577 -32.6846 -32.6812
   -32.6812 -32.6713 -32.6692 -32.6458 -32.6454 -32.5912 -32.5910 -32.5779
   -32.5720 -32.5354 -32.5081 -32.5004 -32.5003 -32.4695 -32.4648 -32.4646
   -32.4573 -32.4513 -32.4268 -32.4095 -32.4092 -32.3953 -32.3921 -32.3920
   -32.3886 -32.3885 -32.3505 -32.3502 -32.3290 -32.3044 -32.3043 -32.2996
   -32.2820 -32.2820 -32.2721 -32.2565 -32.2481 -32.2423 -32.2422 -32.2362
    12.3602  14.4680  15.2524  15.2524  15.7100  15.7100  15.9586  16.1216
    16.1217  16.1674  16.2563  16.2575  16.5810  16.5810  16.6797  17.0917
    17.2409  17.3193  17.4518  17.5793  17.5805  17.5807  17.6682  17.6944
    17.6982  17.6982  17.8760  17.8777  17.8777  18.0674  18.2858  18.2860
    18.5794  18.6125  18.6126  18.6990  18.7185  18.7753  18.9724  18.9725
    18.9907  18.9908  19.2250  19.3744  19.3746  19.3907  19.3922  19.4370
    19.7328  19.8377  19.8377  19.9876  19.9876  20.1537  20.2390  20.4374
    20.4375  20.5449  20.6174  20.6461  20.6462  20.7247  20.7295  20.7309
    20.7520  20.7523  20.9496  20.9511  20.9704  20.9944  21.0097  21.0122
    21.0123  21.2362  21.2906  21.2906  21.3195  21.3927  21.4669  21.4810
    21.4810  21.7658  21.7761  21.7763  22.1838  22.1839  23.0877  23.4287
    23.4287  23.8605

          k = 0.1673 0.1673 0.3904 ( 11203 PWs)   bands (ev):

   -66.4971 -66.4697 -66.4300 -66.4297 -66.4203 -66.4200 -66.4060 -66.4012
   -66.3943 -66.3931 -66.3897 -66.3893 -66.3862 -66.3859 -66.3553 -66.3338
   -32.7768 -32.7768 -32.7661 -32.7550 -32.7214 -32.7214 -32.7152 -32.7151
   -32.7089 -32.6915 -32.6795 -32.6793 -32.6351 -32.6350 -32.6256 -32.5697
   -32.5512 -32.5458 -32.4960 -32.4958 -32.4922 -32.4900 -32.4767 -32.4765
   -32.4610 -32.4519 -32.4366 -32.4024 -32.4021 -32.3921 -32.3919 -32.3689
   -32.3605 -32.3605 -32.3515 -32.3251 -32.3182 -32.3044 -32.3043 -32.2849
   -32.2823 -32.2821 -32.2813 -32.2757 -32.2663 -32.2504 -32.2503 -32.2434
    12.7507  13.8320  15.4165  15.4165  15.6555  15.6555  16.2518  16.2817
    16.2818  16.4139  16.4184  16.4337  16.5573  16.5574  16.6780  16.9345
    16.9436  16.9778  17.4581  17.5332  17.5757  17.6012  17.7244  17.7246
    17.8311  17.8312  18.0465  18.0465  18.1594  18.1650  18.1652  18.3357
    18.4857  18.4859  18.5696  18.5698  18.6439  18.6590  18.6596  18.6933
    18.6934  18.7441  18.9054  18.9056  18.9345  18.9452  19.5744  19.6979
    19.9366  20.0025  20.0879  20.0879  20.0940  20.0940  20.3171  20.3172
    20.3684  20.3738  20.4613  20.5196  20.5196  20.7027  20.7710  20.8226
    20.8790  20.8928  20.9774  20.9906  20.9948  20.9950  21.0365  21.0679
    21.0840  21.0841  21.1470  21.2018  21.4755  21.4756  21.4993  21.5259
    21.5260  21.7369  21.7466  21.7467  21.9232  21.9233  23.6641  23.6641
    23.7892  23.9613

          k = 0.1673 0.1673-0.5019 ( 11168 PWs)   bands (ev):

   -66.4845 -66.4843 -66.4256 -66.4253 -66.4251 -66.4249 -66.4038 -66.4036
   -66.3937 -66.3935 -66.3879 -66.3875 -66.3873 -66.3871 -66.3436 -66.3433
   -32.7481 -32.7480 -32.7479 -32.7479 -32.7330 -32.7328 -32.7321 -32.7319
   -32.6827 -32.6826 -32.6795 -32.6795 -32.6793 -32.6792 -32.6001 -32.5999
   -32.5215 -32.5214 -32.5186 -32.5184 -32.4876 -32.4874 -32.4874 -32.4873
   -32.4461 -32.4458 -32.4137 -32.4136 -32.3966 -32.3964 -32.3963 -32.3962
   -32.3309 -32.3308 -32.3305 -32.3304 -32.3135 -32.3132 -32.3028 -32.3027
   -32.2898 -32.2895 -32.2637 -32.2636 -32.2636 -32.2635 -32.2566 -32.2565
    13.2486  13.2490  15.5597  15.5598  15.5600  15.5600  16.4407  16.4408
    16.4409  16.4410  16.5700  16.5702  16.6037  16.6040  16.6620  16.6625
    16.6981  16.6984  17.4887  17.4890  17.5555  17.5558  17.9891  17.9892
    17.9894  17.9895  18.0008  18.0008  18.0010  18.0012  18.4611  18.4612
    18.4613  18.4615  18.5183  18.5183  18.5839  18.5842  18.5842  18.5843
    18.6322  18.6325  18.6363  18.6364  18.7072  18.7074  19.7786  19.7789
    20.0155  20.0155  20.1635  20.1638  20.1986  20.1986  20.1987  20.1989
    20.3301  20.3301  20.3302  20.3302  20.7936  20.7938  20.8005  20.8007
    20.8299  20.8301  20.9348  20.9351  20.9845  20.9847  21.0932  21.0934
    21.1026  21.1027  21.1028  21.1029  21.6373  21.6373  21.6373  21.6375
    21.6433  21.6434  21.6813  21.6815  21.6816  21.6817  23.8683  23.8683
    23.8686  23.8686

          k = 0.1673 0.2788 0.2788 ( 11220 PWs)   bands (ev):

   -66.5005 -66.4499 -66.4497 -66.4311 -66.4228 -66.4132 -66.4130 -66.4017
   -66.3921 -66.3920 -66.3917 -66.3861 -66.3855 -66.3708 -66.3705 -66.3309
   -32.7917 -32.7814 -32.7813 -32.7493 -32.7493 -32.7248 -32.6976 -32.6954
   -32.6947 -32.6946 -32.6789 -32.6560 -32.6420 -32.6169 -32.5843 -32.5501
   -32.5478 -32.5474 -32.5366 -32.5364 -32.5117 -32.4852 -32.4851 -32.4837
   -32.4357 -32.4242 -32.4239 -32.4166 -32.4164 -32.3937 -32.3934 -32.3776
   -32.3667 -32.3642 -32.3541 -32.3539 -32.3309 -32.3042 -32.2922 -32.2842
   -32.2841 -32.2810 -32.2810 -32.2578 -32.2577 -32.2557 -32.2391 -32.2363
    12.6218  14.6482  14.6483  15.4096  15.5606  15.9263  15.9263  16.2820
    16.3025  16.3025  16.3608  16.3898  16.6872  16.7449  16.7450  17.0619
    17.2562  17.2974  17.2974  17.5120  17.5276  17.6529  17.6530  17.7384
    17.7522  17.7534  17.7853  17.7853  18.0443  18.0457  18.1269  18.4002
    18.4003  18.5046  18.5513  18.5515  18.6190  18.6253  18.7166  18.7837
    18.8510  18.8510  19.0083  19.0084  19.0815  19.1338  19.1341  19.5831
    19.9419  19.9420  19.9770  20.1066  20.1819  20.1821  20.3271  20.3679
    20.5260  20.5260  20.5314  20.5318  20.5490  20.6278  20.6662  20.6663
    20.7034  20.9173  20.9199  20.9206  20.9482  20.9802  20.9891  20.9894
    21.0063  21.2007  21.2007  21.3138  21.3425  21.4634  21.4635  21.4827
    21.4829  21.5777  21.7567  21.8579  21.8629  22.7410  22.7411  23.7040
    24.4925  24.4927

          k = 0.1673 0.2788 0.3904 ( 11208 PWs)   bands (ev):

   -66.4911 -66.4652 -66.4446 -66.4308 -66.4275 -66.4182 -66.4107 -66.4048
   -66.3917 -66.3914 -66.3895 -66.3864 -66.3808 -66.3732 -66.3578 -66.3378
   -32.7758 -32.7627 -32.7562 -32.7376 -32.7241 -32.7186 -32.7159 -32.7110
   -32.7003 -32.6906 -32.6892 -32.6850 -32.6490 -32.6246 -32.5933 -32.5701
   -32.5663 -32.5297 -32.5201 -32.5150 -32.5111 -32.5016 -32.5009 -32.4994
   -32.4564 -32.4339 -32.4239 -32.4083 -32.4065 -32.3976 -32.3910 -32.3802
   -32.3602 -32.3431 -32.3414 -32.3301 -32.3226 -32.3135 -32.2999 -32.2894
   -32.2805 -32.2794 -32.2725 -32.2631 -32.2619 -32.2616 -32.2416 -32.2392
    13.0017  14.0439  14.8852  15.3724  15.5977  15.8723  16.2303  16.4485
    16.4613  16.5032  16.5442  16.5691  16.7169  16.7186  16.7557  16.9697
    16.9870  17.0267  17.4927  17.5138  17.5923  17.5977  17.6438  17.6852
    17.7676  17.8620  17.8854  17.9388  18.0096  18.1595  18.2036  18.2043
    18.3216  18.3855  18.4417  18.4828  18.5074  18.5339  18.5643  18.5789
    18.6167  18.6326  18.6545  18.6665  18.7594  18.8290  19.3575  19.7993
    19.9982  20.1004  20.1701  20.1719  20.1772  20.2197  20.2393  20.2848
    20.4263  20.4409  20.4419  20.5409  20.5442  20.6358  20.7166  20.7714
    20.8290  20.8474  20.8546  20.9378  20.9790  20.9819  21.0198  21.0370
    21.0427  21.0548  21.0614  21.1678  21.2645  21.3723  21.4917  21.5553
    21.6107  21.6287  21.7630  21.7911  21.8542  22.4112  23.3598  24.0247
    24.5233  24.6500

          k = 0.1673 0.2788-0.5019 ( 11188 PWs)   bands (ev):

   -66.4793 -66.4790 -66.4383 -66.4381 -66.4232 -66.4230 -66.4080 -66.4078
   -66.3915 -66.3913 -66.3878 -66.3875 -66.3766 -66.3764 -66.3469 -66.3467
   -32.7523 -32.7523 -32.7396 -32.7395 -32.7249 -32.7247 -32.7245 -32.7243
   -32.6986 -32.6985 -32.6844 -32.6843 -32.6403 -32.6402 -32.6000 -32.5998
   -32.5395 -32.5393 -32.5175 -32.5173 -32.5101 -32.5099 -32.4888 -32.4887
   -32.4530 -32.4529 -32.4305 -32.4303 -32.4023 -32.4022 -32.3691 -32.3689
   -32.3590 -32.3590 -32.3189 -32.3188 -32.3095 -32.3092 -32.2992 -32.2990
   -32.2952 -32.2949 -32.2692 -32.2691 -32.2498 -32.2497 -32.2475 -32.2474
    13.4836  13.4840  15.1399  15.1402  15.7641  15.7643  16.5936  16.5939
    16.6040  16.6042  16.6183  16.6184  16.6537  16.6539  16.7822  16.7825
    16.7994  16.7996  17.5454  17.5456  17.6189  17.6191  17.7940  17.7942
    17.8111  17.8113  17.8984  17.8986  18.0164  18.0165  18.2503  18.2504
    18.4021  18.4023  18.4229  18.4231  18.4271  18.4273  18.4721  18.4723
    18.5431  18.5432  18.5472  18.5474  18.6139  18.6141  19.6516  19.6517
    20.0336  20.0339  20.1891  20.1893  20.2802  20.2805  20.3244  20.3246
    20.3720  20.3721  20.3791  20.3792  20.7443  20.7445  20.7481  20.7483
    20.7833  20.7835  20.8833  20.8835  20.9727  20.9728  20.9797  20.9799
    21.0692  21.0694  21.1234  21.1235  21.2755  21.2757  21.4439  21.4440
    21.7147  21.7148  21.7693  21.7694  22.0879  22.0881  24.0010  24.0014
    24.3237  24.3240

          k = 0.1673 0.3904 0.3904 ( 11198 PWs)   bands (ev):

   -66.4824 -66.4588 -66.4586 -66.4410 -66.4241 -66.4156 -66.4153 -66.4086
   -66.3904 -66.3897 -66.3894 -66.3870 -66.3732 -66.3618 -66.3615 -66.3439
   -32.7655 -32.7428 -32.7427 -32.7248 -32.7247 -32.7198 -32.7157 -32.7157
   -32.7120 -32.7055 -32.6995 -32.6686 -32.6421 -32.6106 -32.5673 -32.5611
   -32.5609 -32.5473 -32.5469 -32.5286 -32.5258 -32.5257 -32.5250 -32.4876
   -32.4509 -32.4257 -32.4229 -32.4225 -32.4150 -32.4149 -32.4032 -32.3608
   -32.3586 -32.3318 -32.3315 -32.3236 -32.3233 -32.3040 -32.2974 -32.2973
   -32.2867 -32.2789 -32.2789 -32.2778 -32.2490 -32.2490 -32.2383 -32.2371
    13.3639  14.3379  14.3379  15.0413  15.8239  16.1717  16.1717  16.5905
    16.6038  16.6948  16.6948  16.7568  16.7570  16.7695  16.8167  16.8568
    17.0116  17.2487  17.2488  17.5161  17.5800  17.6300  17.6922  17.6922
    17.7236  17.7236  17.8775  17.8808  17.8918  17.9431  18.1644  18.2407
    18.2408  18.2570  18.3284  18.3285  18.3961  18.3961  18.4047  18.4444
    18.4661  18.5044  18.5046  18.5999  18.6022  19.0256  19.0259  19.6305
    20.0502  20.2126  20.2817  20.2817  20.3070  20.3439  20.3442  20.3520
    20.4726  20.5368  20.5564  20.5565  20.5924  20.5928  20.6074  20.6075
    20.7523  20.7810  20.7827  20.8357  20.8660  20.9568  20.9569  20.9850
    21.0128  21.0131  21.0635  21.0731  21.2311  21.2866  21.2869  21.3088
    21.7426  21.7427  21.8051  21.8846  22.1512  22.9500  22.9502  24.0750
    24.4410  25.1662

          k = 0.1673 0.3904-0.5019 ( 11220 PWs)   bands (ev):

   -66.4716 -66.4714 -66.4506 -66.4504 -66.4202 -66.4200 -66.4123 -66.4121
   -66.3899 -66.3897 -66.3882 -66.3879 -66.3669 -66.3667 -66.3520 -66.3517
   -32.7477 -32.7476 -32.7296 -32.7295 -32.7201 -32.7200 -32.7181 -32.7180
   -32.7134 -32.7133 -32.6920 -32.6919 -32.5952 -32.5952 -32.5886 -32.5884
   -32.5509 -32.5508 -32.5452 -32.5451 -32.5325 -32.5324 -32.4989 -32.4988
   -32.4551 -32.4550 -32.4210 -32.4208 -32.4088 -32.4087 -32.3897 -32.3897
   -32.3446 -32.3444 -32.3087 -32.3086 -32.3069 -32.3067 -32.3005 -32.3003
   -32.2986 -32.2985 -32.2779 -32.2779 -32.2410 -32.2409 -32.2402 -32.2402
    13.8182  13.8186  14.6834  14.6837  16.0345  16.0347  16.5132  16.5135
    16.6965  16.6967  16.7019  16.7022  16.8331  16.8332  16.9152  16.9154
    17.0029  17.0032  17.5538  17.5540  17.6145  17.6147  17.6189  17.6191
    17.6251  17.6253  17.7877  17.7879  18.0521  18.0522  18.0711  18.0713
    18.2008  18.2010  18.2617  18.2618  18.3047  18.3049  18.3413  18.3414
    18.5092  18.5094  18.5457  18.5459  18.7243  18.7244  19.2972  19.2973
    20.2519  20.2521  20.3117  20.3119  20.4083  20.4085  20.4433  20.4434
    20.4626  20.4628  20.4641  20.4642  20.5758  20.5760  20.6817  20.6818
    20.6924  20.6926  20.8249  20.8251  20.8599  20.8600  20.9400  20.9401
    20.9972  20.9974  21.0446  21.0447  21.1494  21.1495  21.2893  21.2895
    21.8031  21.8031  21.8434  21.8434  22.5462  22.5465  23.5088  23.5091
    24.8461  24.8464

          k = 0.1673-0.5019-0.5019 ( 11232 PWs)   bands (ev):

   -66.4620 -66.4619 -66.4617 -66.4615 -66.4166 -66.4165 -66.4163 -66.4161
   -66.3890 -66.3889 -66.3887 -66.3885 -66.3588 -66.3587 -66.3585 -66.3583
   -32.7356 -32.7356 -32.7356 -32.7354 -32.7219 -32.7219 -32.7218 -32.7217
   -32.7020 -32.7020 -32.7019 -32.7018 -32.5696 -32.5696 -32.5693 -32.5693
   -32.5481 -32.5481 -32.5481 -32.5479 -32.5476 -32.5475 -32.5470 -32.5470
   -32.4221 -32.4219 -32.4217 -32.4216 -32.4145 -32.4145 -32.4145 -32.4144
   -32.3238 -32.3238 -32.3235 -32.3233 -32.3019 -32.3019 -32.3018 -32.3018
   -32.2889 -32.2888 -32.2887 -32.2887 -32.2378 -32.2378 -32.2378 -32.2377
    14.2292  14.2293  14.2295  14.2298  16.3126  16.3128  16.3129  16.3130
    16.7228  16.7228  16.7230  16.7232  16.9658  16.9660  16.9660  16.9661
    17.2718  17.2719  17.2721  17.2722  17.5500  17.5500  17.5501  17.5502
    17.6992  17.6993  17.6994  17.6994  18.0497  18.0498  18.0498  18.0501
    18.1677  18.1680  18.1680  18.1680  18.2572  18.2573  18.2573  18.2575
    18.5068  18.5068  18.5069  18.5073  18.9805  18.9806  18.9809  18.9809
    20.3910  20.3910  20.3911  20.3914  20.4683  20.4684  20.4684  20.4686
    20.5780  20.5780  20.5781  20.5782  20.5877  20.5878  20.5879  20.5880
    20.6168  20.6173  20.6174  20.6174  20.8075  20.8076  20.8078  20.8079
    21.0209  21.0209  21.0212  21.0213  21.1949  21.1949  21.1952  21.1953
    21.8535  21.8536  21.8537  21.8537  23.0244  23.0248  23.0249  23.0250
    25.3720  25.3724

          k = 0.2788 0.2788 0.2788 ( 11224 PWs)   bands (ev):

   -66.4943 -66.4465 -66.4465 -66.4461 -66.4210 -66.4210 -66.4206 -66.4059
   -66.3899 -66.3864 -66.3864 -66.3859 -66.3722 -66.3722 -66.3718 -66.3353
   -32.7740 -32.7739 -32.7739 -32.7215 -32.7215 -32.7215 -32.7043 -32.7042
   -32.7042 -32.7039 -32.6647 -32.6647 -32.6319 -32.6319 -32.5763 -32.5759
   -32.5759 -32.5497 -32.5496 -32.5496 -32.5204 -32.5082 -32.5080 -32.5080
   -32.3984 -32.3977 -32.3975 -32.3975 -32.3958 -32.3955 -32.3955 -32.3897
   -32.3897 -32.3564 -32.3563 -32.3563 -32.3176 -32.3001 -32.2999 -32.2999
   -32.2737 -32.2737 -32.2736 -32.2559 -32.2558 -32.2558 -32.2491 -32.2491
    12.8784  14.8384  14.8384  14.8385  15.7885  15.7885  15.7885  16.4599
    16.4600  16.4600  16.4917  16.4917  16.8759  16.8760  16.8760  17.0797
    17.2846  17.2848  17.2848  17.3191  17.5112  17.5112  17.7071  17.7072
    17.7072  17.8853  17.8853  17.9138  17.9138  17.9138  18.2564  18.2566
    18.2566  18.4144  18.4144  18.4147  18.5268  18.5269  18.5269  18.5816
    18.5816  18.7321  18.7321  18.7323  18.8616  18.8619  18.8619  19.7970
    19.9862  20.0796  20.0796  20.0796  20.3089  20.3091  20.3091  20.4549
    20.4549  20.4549  20.6235  20.6235  20.6566  20.6567  20.6567  20.7981
    20.7985  20.7985  20.9242  20.9243  20.9243  20.9246  20.9246  20.9534
    20.9534  21.2088  21.2089  21.2089  21.4457  21.4457  21.4458  21.5102
    21.5102  21.5758  21.5761  21.5761  22.3398  22.3400  22.3400  24.6623
    24.7910  24.7910

          k = 0.2788 0.2788 0.3904 ( 11211 PWs)   bands (ev):

   -66.4854 -66.4609 -66.4416 -66.4413 -66.4284 -66.4282 -66.4178 -66.4101
   -66.3883 -66.3866 -66.3816 -66.3813 -66.3745 -66.3742 -66.3601 -66.3416
   -32.7594 -32.7593 -32.7482 -32.7202 -32.7202 -32.7169 -32.7083 -32.7048
   -32.6876 -32.6875 -32.6838 -32.6759 -32.6438 -32.6117 -32.6115 -32.6031
   -32.5851 -32.5525 -32.5525 -32.5388 -32.5316 -32.5291 -32.5290 -32.4886
   -32.4399 -32.4259 -32.4003 -32.3976 -32.3819 -32.3817 -32.3676 -32.3675
   -32.3613 -32.3612 -32.3476 -32.3226 -32.3192 -32.3191 -32.3066 -32.2981
   -32.2795 -32.2683 -32.2659 -32.2658 -32.2597 -32.2563 -32.2563 -32.2474
    13.2500  14.2604  15.0900  15.0900  15.6025  15.6025  16.1119  16.6287
    16.6288  16.6398  16.6578  16.6955  16.9020  16.9021  16.9108  16.9356
    17.0466  17.0706  17.4184  17.4185  17.5401  17.6493  17.7159  17.7165
    17.7716  17.8074  17.8074  17.9897  17.9897  18.0545  18.1017  18.1019
    18.2498  18.2498  18.3115  18.3116  18.3598  18.3618  18.3753  18.3933
    18.4674  18.4684  18.4686  18.5204  18.5976  18.5978  19.0168  19.6102
    20.0397  20.2197  20.2556  20.2557  20.3629  20.3630  20.4041  20.4041
    20.5094  20.5688  20.5731  20.5769  20.5769  20.6030  20.7110  20.7239
    20.8546  20.8655  20.9286  20.9291  20.9311  20.9311  20.9659  20.9661
    20.9875  21.0227  21.2033  21.3265  21.3410  21.3411  21.4840  21.4841
    21.5516  21.5920  21.5921  21.5978  21.9804  21.9805  22.8907  24.0566
    25.1285  25.1286

          k = 0.2788 0.2788-0.5019 ( 11222 PWs)   bands (ev):

   -66.4742 -66.4740 -66.4357 -66.4354 -66.4352 -66.4350 -66.4142 -66.4140
   -66.3874 -66.3871 -66.3779 -66.3775 -66.3773 -66.3771 -66.3500 -66.3498
   -32.7402 -32.7402 -32.7401 -32.7401 -32.7155 -32.7153 -32.7125 -32.7124
   -32.6977 -32.6976 -32.6503 -32.6502 -32.6500 -32.6498 -32.6170 -32.6168
   -32.5714 -32.5712 -32.5448 -32.5447 -32.5447 -32.5446 -32.4853 -32.4853
   -32.4572 -32.4571 -32.4011 -32.4009 -32.3699 -32.3698 -32.3697 -32.3696
   -32.3419 -32.3418 -32.3415 -32.3414 -32.3105 -32.3103 -32.3001 -32.3000
   -32.2930 -32.2928 -32.2602 -32.2600 -32.2600 -32.2600 -32.2511 -32.2510
    13.7190  13.7194  15.3603  15.3604  15.3606  15.3607  16.5061  16.5064
    16.7894  16.7895  16.7896  16.7897  16.8172  16.8174  16.8275  16.8279
    16.9332  16.9334  17.5897  17.5900  17.6767  17.6769  17.7138  17.7139
    17.7141  17.7142  17.9442  17.9442  17.9445  17.9447  18.0154  18.0155
    18.2299  18.2301  18.3196  18.3199  18.3200  18.3200  18.3654  18.3656
    18.3657  18.3658  18.3944  18.3946  18.4463  18.4465  19.2744  19.2745
    20.3010  20.3012  20.3698  20.3700  20.3793  20.3795  20.3796  20.3796
    20.4316  20.4317  20.4318  20.4318  20.7455  20.7456  20.7801  20.7803
    20.8431  20.8433  20.8794  20.8795  20.9306  20.9308  20.9672  20.9673
    20.9675  20.9675  21.1427  21.1428  21.5495  21.5495  21.5495  21.5497
    21.6080  21.6081  21.6390  21.6394  21.6394  21.6395  23.4676  23.4679
    25.4020  25.4022

          k = 0.2788 0.3904 0.3904 ( 11214 PWs)   bands (ev):

   -66.4772 -66.4549 -66.4546 -66.4380 -66.4368 -66.4249 -66.4246 -66.4153
   -66.3857 -66.3824 -66.3822 -66.3762 -66.3744 -66.3638 -66.3635 -66.3471
   -32.7488 -32.7360 -32.7359 -32.7190 -32.7164 -32.7163 -32.7030 -32.6918
   -32.6918 -32.6902 -32.6808 -32.6506 -32.6402 -32.6361 -32.6127 -32.5873
   -32.5872 -32.5695 -32.5692 -32.5689 -32.5603 -32.5602 -32.5556 -32.4807
   -32.4567 -32.3958 -32.3955 -32.3825 -32.3824 -32.3818 -32.3643 -32.3588
   -32.3449 -32.3417 -32.3325 -32.3287 -32.3285 -32.3100 -32.3099 -32.3034
   -32.2783 -32.2779 -32.2779 -32.2700 -32.2569 -32.2568 -32.2539 -32.2508
    13.6074  14.5610  14.5611  15.2754  15.3645  15.9261  15.9261  16.6930
    16.7547  16.7746  16.8432  16.8667  16.8668  16.9452  16.9453  17.0904
    17.1530  17.2404  17.2405  17.3704  17.6140  17.6838  17.6845  17.7389
    17.7390  17.7953  17.7954  17.8732  17.8883  17.9836  17.9858  18.1535
    18.1574  18.1575  18.1633  18.1634  18.1727  18.1729  18.2069  18.3031
    18.3033  18.3342  18.3478  18.3784  18.4286  18.6942  18.6944  19.2360
    20.3127  20.3635  20.3636  20.3820  20.4278  20.4984  20.5451  20.5723
    20.5725  20.5809  20.5820  20.5821  20.6417  20.6418  20.7085  20.8045
    20.8452  20.8490  20.8492  20.8636  20.9134  20.9255  20.9258  20.9780
    20.9859  20.9860  21.0401  21.0876  21.3454  21.3456  21.3798  21.5608
    21.5609  21.5631  21.6086  21.6275  21.6789  22.4681  22.4683  23.5091
    25.5540  26.1267

          k = 0.2788 0.3904-0.5019 ( 11234 PWs)   bands (ev):

   -66.4669 -66.4667 -66.4471 -66.4469 -66.4313 -66.4311 -66.4204 -66.4202
   -66.3839 -66.3837 -66.3790 -66.3788 -66.3685 -66.3683 -66.3546 -66.3544
   -32.7328 -32.7327 -32.7248 -32.7247 -32.7077 -32.7075 -32.7053 -32.7052
   -32.6971 -32.6970 -32.6638 -32.6637 -32.6177 -32.6175 -32.6104 -32.6103
   -32.5913 -32.5912 -32.5763 -32.5762 -32.5719 -32.5718 -32.5250 -32.5249
   -32.4255 -32.4254 -32.3818 -32.3817 -32.3707 -32.3706 -32.3674 -32.3673
   -32.3410 -32.3408 -32.3257 -32.3256 -32.3046 -32.3046 -32.3045 -32.3043
   -32.3003 -32.3001 -32.2744 -32.2743 -32.2546 -32.2545 -32.2522 -32.2521
    14.0538  14.0542  14.9136  14.9139  15.6630  15.6633  16.3110  16.3113
    16.8708  16.8711  16.8836  16.8838  17.0327  17.0329  17.0487  17.0489
    17.0935  17.0937  17.5470  17.5473  17.5739  17.5741  17.6539  17.6540
    17.6706  17.6709  17.8576  17.8578  17.8777  17.8778  18.0105  18.0106
    18.0641  18.0643  18.0854  18.0856  18.2042  18.2044  18.2440  18.2442
    18.2808  18.2810  18.3548  18.3550  18.4173  18.4174  18.9154  18.9155
    20.4722  20.4725  20.4967  20.4968  20.5001  20.5002  20.5203  20.5204
    20.5605  20.5607  20.6042  20.6044  20.7228  20.7230  20.7387  20.7388
    20.7977  20.7979  20.8291  20.8293  20.8653  20.8655  20.9191  20.9193
    20.9531  20.9533  21.1548  21.1549  21.2630  21.2633  21.3453  21.3454
    21.5851  21.5852  21.6066  21.6067  22.0657  22.0659  22.9817  22.9821
    25.9394  25.9397

          k = 0.2788-0.5019-0.5019 ( 11240 PWs)   bands (ev):

   -66.4579 -66.4578 -66.4576 -66.4574 -66.4263 -66.4263 -66.4260 -66.4258
   -66.3812 -66.3811 -66.3810 -66.3807 -66.3609 -66.3609 -66.3607 -66.3604
   -32.7195 -32.7195 -32.7195 -32.7193 -32.7112 -32.7112 -32.7110 -32.7110
   -32.6803 -32.6802 -32.6801 -32.6801 -32.6019 -32.6018 -32.6016 -32.6016
   -32.5909 -32.5909 -32.5909 -32.5908 -32.5678 -32.5677 -32.5674 -32.5674
   -32.3956 -32.3955 -32.3953 -32.3953 -32.3730 -32.3730 -32.3730 -32.3728
   -32.3173 -32.3172 -32.3170 -32.3169 -32.3131 -32.3131 -32.3129 -32.3129
   -32.2910 -32.2909 -32.2909 -32.2908 -32.2526 -32.2526 -32.2526 -32.2525
    14.4637  14.4638  14.4640  14.4642  16.0042  16.0044  16.0045  16.0046
    16.9015  16.9016  16.9017  16.9019  17.2031  17.2033  17.2034  17.2034
    17.3061  17.3062  17.3064  17.3065  17.5052  17.5053  17.5054  17.5055
    17.7692  17.7694  17.7694  17.7695  17.9093  17.9094  17.9094  17.9097
    18.0858  18.0860  18.0860  18.0862  18.1078  18.1081  18.1081  18.1082
    18.2979  18.2980  18.2980  18.2984  18.6140  18.6142  18.6144  18.6144
    20.5323  20.5323  20.5324  20.5327  20.6249  20.6250  20.6252  20.6252
    20.6643  20.6644  20.6644  20.6647  20.6871  20.6872  20.6872  20.6873
    20.7899  20.7900  20.7902  20.7903  20.9247  20.9252  20.9252  20.9253
    20.9343  20.9344  20.9346  20.9348  21.2087  21.2087  21.2088  21.2090
    21.6100  21.6102  21.6102  21.6102  22.5170  22.5175  22.5175  22.5176
    26.4729  26.4733

          k = 0.3904 0.3904 0.3904 ( 11251 PWs)   bands (ev):

   -66.4697 -66.4492 -66.4492 -66.4487 -66.4338 -66.4338 -66.4334 -66.4220
   -66.3818 -66.3763 -66.3763 -66.3758 -66.3669 -66.3669 -66.3664 -66.3520
   -32.7241 -32.7240 -32.7240 -32.7096 -32.7096 -32.7096 -32.6906 -32.6681
   -32.6681 -32.6626 -32.6625 -32.6625 -32.6548 -32.6548 -32.6064 -32.6063
   -32.6063 -32.5984 -32.5980 -32.5980 -32.5898 -32.5897 -32.5897 -32.5176
   -32.4258 -32.3697 -32.3694 -32.3694 -32.3555 -32.3553 -32.3553 -32.3419
   -32.3419 -32.3287 -32.3287 -32.3287 -32.3264 -32.3261 -32.3261 -32.3069
   -32.2770 -32.2769 -32.2769 -32.2711 -32.2711 -32.2663 -32.2663 -32.2663
    13.9562  14.8716  14.8716  14.8717  15.6055  15.6055  15.6055  16.3974
    16.9476  16.9476  17.0251  17.0252  17.0252  17.1992  17.1993  17.1993
    17.2205  17.2206  17.2206  17.3167  17.6698  17.6698  17.7439  17.7439
    17.8172  17.8173  17.8173  17.8425  17.8426  17.8426  17.9307  17.9308
    17.9308  18.0565  18.0565  18.0567  18.0832  18.0834  18.0834  18.1175
    18.1175  18.1177  18.2703  18.2703  18.3765  18.3768  18.3768  18.8586
    20.4724  20.4725  20.4725  20.6140  20.6432  20.6432  20.6433  20.6446
    20.6446  20.6501  20.6502  20.6502  20.7110  20.7112  20.7112  20.8268
    20.8268  20.8568  20.8571  20.8571  20.8754  20.8755  20.8755  20.9592
    20.9592  21.2717  21.2717  21.2852  21.2856  21.2856  21.3617  21.3620
    21.3620  21.4099  21.4099  21.4101  22.0484  22.0487  22.0487  22.9993
    26.8057  26.8058

          k = 0.3904 0.3904-0.5019 ( 11242 PWs)   bands (ev):

   -66.4602 -66.4600 -66.4423 -66.4420 -66.4418 -66.4416 -66.4283 -66.4281
   -66.3786 -66.3784 -66.3713 -66.3709 -66.3707 -66.3706 -66.3587 -66.3584
   -32.7123 -32.7123 -32.7122 -32.7122 -32.6922 -32.6921 -32.6920 -32.6919
   -32.6764 -32.6763 -32.6398 -32.6396 -32.6306 -32.6305 -32.6302 -32.6300
   -32.6238 -32.6237 -32.6076 -32.6076 -32.6075 -32.6075 -32.5578 -32.5578
   -32.3963 -32.3962 -32.3495 -32.3494 -32.3463 -32.3462 -32.3460 -32.3457
   -32.3366 -32.3366 -32.3365 -32.3365 -32.3142 -32.3142 -32.3066 -32.3064
   -32.2974 -32.2972 -32.2741 -32.2740 -32.2740 -32.2740 -32.2671 -32.2670
    14.3881  14.3885  15.2360  15.2360  15.2363  15.2364  15.9993  15.9996
    17.0762  17.0765  17.1279  17.1280  17.1435  17.1435  17.1436  17.1438
    17.2888  17.2890  17.5216  17.5217  17.5219  17.5220  17.6991  17.6993
    17.7406  17.7409  17.7986  17.7989  17.8186  17.8187  17.9335  17.9335
    17.9337  17.9339  18.0496  18.0499  18.0501  18.0501  18.1118  18.1121
    18.1122  18.1122  18.1596  18.1598  18.1800  18.1802  18.5477  18.5478
    20.5635  20.5637  20.5831  20.5832  20.5833  20.5833  20.7140  20.7141
    20.7142  20.7142  20.7357  20.7359  20.7597  20.7599  20.8256  20.8257
    20.8449  20.8451  20.8500  20.8501  20.8503  20.8503  20.9370  20.9373
    20.9767  20.9769  21.1327  21.1328  21.3584  21.3584  21.3584  21.3586
    21.3782  21.3783  21.6578  21.6583  21.6584  21.6584  22.5157  22.5160
    27.1180  27.1182

          k = 0.3904-0.5019-0.5019 ( 11248 PWs)   bands (ev):

   -66.4519 -66.4518 -66.4516 -66.4514 -66.4358 -66.4357 -66.4355 -66.4353
   -66.3744 -66.3744 -66.3742 -66.3739 -66.3642 -66.3642 -66.3640 -66.3637
   -32.6959 -32.6959 -32.6959 -32.6957 -32.6923 -32.6922 -32.6921 -32.6921
   -32.6536 -32.6536 -32.6535 -32.6534 -32.6352 -32.6351 -32.6350 -32.6349
   -32.6306 -32.6306 -32.6306 -32.6304 -32.5942 -32.5942 -32.5939 -32.5939
   -32.3698 -32.3697 -32.3695 -32.3695 -32.3352 -32.3352 -32.3352 -32.3351
   -32.3282 -32.3281 -32.3279 -32.3279 -32.3096 -32.3095 -32.3094 -32.3093
   -32.2957 -32.2956 -32.2955 -32.2955 -32.2742 -32.2742 -32.2742 -32.2740
    14.7949  14.7950  14.7952  14.7954  15.6164  15.6165  15.6167  15.6169
    17.1445  17.1446  17.1447  17.1449  17.3522  17.3522  17.3524  17.3525
    17.4391  17.4392  17.4393  17.4393  17.4565  17.4565  17.4566  17.4567
    17.8507  17.8509  17.8509  17.8510  17.8679  17.8681  17.8681  17.8682
    17.8697  17.8698  17.8698  17.8701  18.0285  18.0288  18.0288  18.0288
    18.0940  18.0940  18.0941  18.0944  18.2458  18.2459  18.2461  18.2461
    20.6197  20.6197  20.6199  20.6201  20.6760  20.6761  20.6763  20.6763
    20.7620  20.7621  20.7622  20.7624  20.8322  20.8322  20.8324  20.8326
    20.8488  20.8489  20.8489  20.8490  20.8980  20.8981  20.8981  20.8984
    21.1713  21.1713  21.1714  21.1716  21.2873  21.2878  21.2878  21.2878
    21.3329  21.3331  21.3331  21.3331  22.0781  22.0786  22.0786  22.0787
    27.6744  27.6747

          k =-0.5019-0.5019-0.5019 ( 11152 PWs)   bands (ev):

   -66.4445 -66.4445 -66.4445 -66.4440 -66.4440 -66.4440 -66.4437 -66.4437
   -66.3690 -66.3689 -66.3689 -66.3684 -66.3684 -66.3684 -66.3681 -66.3680
   -32.6663 -32.6663 -32.6663 -32.6661 -32.6661 -32.6661 -32.6659 -32.6659
   -32.6658 -32.6658 -32.6658 -32.6657 -32.6657 -32.6657 -32.6656 -32.6656
   -32.6238 -32.6235 -32.6235 -32.6235 -32.6234 -32.6230 -32.6230 -32.6230
   -32.3474 -32.3471 -32.3470 -32.3470 -32.3470 -32.3466 -32.3466 -32.3466
   -32.3020 -32.3020 -32.3019 -32.3017 -32.3017 -32.3017 -32.3016 -32.3016
   -32.3015 -32.3015 -32.3015 -32.3013 -32.3013 -32.3013 -32.3012 -32.3012
    15.1940  15.1942  15.1942  15.1943  15.1944  15.1944  15.1945  15.1948
    17.4040  17.4040  17.4040  17.4041  17.4041  17.4042  17.4042  17.4042
    17.4043  17.4043  17.4043  17.4044  17.4044  17.4045  17.4047  17.4048
    17.9235  17.9241  17.9241  17.9241  17.9242  17.9244  17.9244  17.9244
    17.9397  17.9397  17.9399  17.9399  17.9399  17.9402  17.9402  17.9402
    17.9402  17.9402  17.9402  17.9403  17.9403  17.9403  17.9406  17.9406
    20.7234  20.7234  20.7234  20.7234  20.7235  20.7235  20.7238  20.7238
    20.7238  20.7239  20.7240  20.7240  20.7240  20.7241  20.7241  20.7241
    21.0691  21.0691  21.0691  21.0691  21.0692  21.0694  21.0694  21.0694
    21.0694  21.0694  21.0694  21.0696  21.0696  21.0696  21.0699  21.0699
    21.6733  21.6744  21.6744  21.6744  21.6744  21.6744  21.6744  21.6745
    28.8511  28.8513

     the Fermi energy is    20.7912 ev

!    total energy              =   -5267.70128168 Ry
     Harris-Foulkes estimate   =   -5267.70131352 Ry
     estimated scf accuracy    <       0.00004246 Ry

     total all-electron energy =    -40728.445811 Ry

     The total energy is the sum of the following terms:

     one-electron contribution =   -1603.30514654 Ry
     hartree contribution      =     983.41717035 Ry
     xc contribution           =    -443.17415790 Ry
     ewald contribution        =   -2879.74931586 Ry
     one-center paw contrib.   =   -1324.76231091 Ry
     smearing contrib. (-TS)   =      -0.12752081 Ry

     convergence has been achieved in  10 iterations

     Forces acting on atoms (cartesian axes, Ry/au):

     atom    1 type  1   force =     0.00000000    0.00000000   -0.00000000
     atom    2 type  1   force =     0.00008758    0.00008758    0.00008758
     atom    3 type  1   force =     0.00000000    0.00000000    0.00000000
     atom    4 type  1   force =     0.00008758    0.00008758   -0.00008758
     atom    5 type  1   force =     0.00000000    0.00000000    0.00000000
     atom    6 type  1   force =     0.00008758   -0.00008758    0.00008758
     atom    7 type  1   force =     0.00000000    0.00000000    0.00000000
     atom    8 type  1   force =     0.00008758   -0.00008758   -0.00008758
     atom    9 type  1   force =     0.00000000    0.00000000    0.00000000
     atom   10 type  1   force =    -0.00008758    0.00008758    0.00008758
     atom   11 type  1   force =     0.00000000    0.00000000    0.00000000
     atom   12 type  1   force =    -0.00008758    0.00008758   -0.00008758
     atom   13 type  1   force =     0.00000000    0.00000000    0.00000000
     atom   14 type  1   force =    -0.00008758   -0.00008758    0.00008758
     atom   15 type  1   force =     0.00000000    0.00000000   -0.00000000
     atom   16 type  1   force =    -0.00008758   -0.00008758   -0.00008758

     Total force =     0.000429     Total SCF correction =     0.000973
     SCF correction compared to forces is large: reduce conv_thr to get better values


     Computing stress (Cartesian axis) and pressure

          total   stress  (Ry/bohr**3)                   (kbar)     P=   75.67
   0.00051442   0.00000000   0.00000000         75.67      0.00      0.00
   0.00000000   0.00051442   0.00000000          0.00     75.67      0.00
   0.00000000   0.00000000   0.00051442          0.00      0.00     75.67


     Writing output data file YBTcOEjlHbbuDWpc.save/
 
     init_run     :      3.00s CPU      3.25s WALL (       1 calls)
     electrons    :    114.26s CPU    118.35s WALL (       1 calls)
     forces       :      1.06s CPU      1.17s WALL (       1 calls)
     stress       :      2.83s CPU      2.85s WALL (       1 calls)

     Called by init_run:
     wfcinit      :      2.77s CPU      2.90s WALL (       1 calls)
     potinit      :      0.09s CPU      0.11s WALL (       1 calls)
     hinit0       :      0.06s CPU      0.07s WALL (       1 calls)

     Called by electrons:
     c_bands      :    102.90s CPU    106.24s WALL (      11 calls)
     sum_band     :     10.41s CPU     10.97s WALL (      11 calls)
     v_of_rho     :      0.08s CPU      0.14s WALL (      11 calls)
     newd         :      0.14s CPU      0.19s WALL (      11 calls)
     PAW_pot      :      0.77s CPU      0.82s WALL (      11 calls)
     mix_rho      :      0.02s CPU      0.04s WALL (      11 calls)

     Called by c_bands:
     init_us_2    :      0.56s CPU      0.57s WALL (     875 calls)
     cegterg      :    100.22s CPU    103.53s WALL (     385 calls)

     Called by sum_band:
     sum_band:bec :      0.16s CPU      0.16s WALL (     385 calls)
     addusdens    :      0.14s CPU      0.19s WALL (      11 calls)

     Called by *egterg:
     h_psi        :     42.68s CPU     44.90s WALL (    1334 calls)
     s_psi        :      2.29s CPU      2.30s WALL (    1334 calls)
     g_psi        :      0.09s CPU      0.09s WALL (     914 calls)
     cdiaghg      :     46.29s CPU     46.43s WALL (    1264 calls)

     Called by h_psi:
     h_psi:pot    :     42.44s CPU     44.65s WALL (    1334 calls)
     h_psi:calbec :      3.55s CPU      4.08s WALL (    1334 calls)
     vloc_psi     :     36.59s CPU     38.25s WALL (    1334 calls)
     add_vuspsi   :      2.29s CPU      2.31s WALL (    1334 calls)

     General routines
     calbec       :      5.71s CPU      6.59s WALL (    1894 calls)
     fft          :      0.09s CPU      0.20s WALL (     168 calls)
     ffts         :      0.01s CPU      0.03s WALL (      22 calls)
     fftw         :     42.25s CPU     44.06s WALL (  327516 calls)
     interpolate  :      0.01s CPU      0.03s WALL (      11 calls)
 
     Parallel routines
     fft_scatt_xy :      2.88s CPU      2.97s WALL (  327706 calls)
     fft_scatt_yz :     28.26s CPU     29.74s WALL (  327706 calls)
 
     PWSCF        :  2m 4.01s CPU     2m11.65s WALL

 
   This run was terminated on:   6:11:27   5Sep2020            

=------------------------------------------------------------------------------=
   JOB DONE.
=------------------------------------------------------------------------------=
