
     Program PWSCF v.6.3 starts on  5Sep2020 at  6: 7: 4 

     This program is part of the open-source Quantum ESPRESSO suite
     for quantum simulation of materials; please cite
         "P. Giannozzi et al., J. Phys.:Condens. Matter 21 395502 (2009);
         "P. Giannozzi et al., J. Phys.:Condens. Matter 29 465901 (2017);
          URL http://www.quantum-espresso.org", 
     in publications or presentations arising from this work. More details at
     http://www.quantum-espresso.org/quote

     Parallel version (MPI & OpenMP), running on      40 processor cores
     Number of MPI processes:                40
     Threads/MPI process:                     1

     MPI processes distributed on     1 nodes
     R & G space division:  proc/nbgrp/npool/nimage =      40
     Reading input from wd/eos/eos_001.in
Warning: card &IONS ignored
Warning: card ION_DYNAMICS = 'BFGS', ignored
Warning: card / ignored
Warning: card &CELL ignored
Warning: card CELL_DYNAMICS = 'BFGS', ignored
Warning: card CELL_FACTOR = 2.0, ignored
Warning: card PRESS = 0.0, ignored
Warning: card / ignored

     Current dimensions of program PWSCF are:
     Max number of different atomic species (ntypx) = 10
     Max number of k-points (npk) =  40000
     Max angular momentum in pseudopotentials (lmaxx) =  3
               file Fe.pbe-spn-kjpaw_psl.1.0.0.UPF: wavefunction(s)  3P 3D renormalized

     Subspace diagonalization in iterative solution of the eigenvalue problem:
     a serial algorithm will be used

 
     Parallelization info
     --------------------
     sticks:   dense  smooth     PW     G-vecs:    dense   smooth      PW
     Min          91      60     16                 4157     2228     330
     Max          92      61     17                 4162     2233     337
     Sum        3657    2417    673               166365    89199   13397
 


     bravais-lattice index     =            0
     lattice parameter (alat)  =      10.3915  a.u.
     unit-cell volume          =    1105.3499 (a.u.)^3
     number of atoms/cell      =           16
     number of atomic types    =            1
     number of electrons       =       256.00
     number of Kohn-Sham states=          154
     kinetic-energy cutoff     =      71.0000  Ry
     charge density cutoff     =     430.0000  Ry
     convergence threshold     =      5.0E-05
     mixing beta               =       0.1000
     number of iterations used =           10  plain     mixing
     Exchange-correlation      = SLA PW PBX PBC ( 1  4  3  4 0 0)

     celldm(1)=  10.391466  celldm(2)=   0.000000  celldm(3)=   0.000000
     celldm(4)=   0.000000  celldm(5)=   0.000000  celldm(6)=   0.000000

     crystal axes: (cart. coord. in units of alat)
               a(1) = (   0.995000   0.000000   0.000000 )  
               a(2) = (   0.000000   0.995000   0.000000 )  
               a(3) = (   0.000000   0.000000   0.995000 )  

     reciprocal axes: (cart. coord. in units 2 pi/alat)
               b(1) = (  1.005025  0.000000  0.000000 )  
               b(2) = (  0.000000  1.005025  0.000000 )  
               b(3) = (  0.000000  0.000000  1.005025 )  


     PseudoPot. # 1 for Fe read from file:
     /rds/homes/b/bxp912/pp/Fe.pbe-spn-kjpaw_psl.1.0.0.UPF
     MD5 check sum: 42f43b795421b414b0dc916aa790dbcb
     Pseudo is Projector augmented-wave + core cor, Zval = 16.0
     Generated using "atomic" code by A. Dal Corso v.6.3
     Shape of augmentation charge: PSQ
     Using radial grid of 1191 points,  6 beta functions with: 
                l(1) =   0
                l(2) =   0
                l(3) =   1
                l(4) =   1
                l(5) =   2
                l(6) =   2
     Q(r) pseudized with 0 coefficients 


     atomic species   valence    mass     pseudopotential
        Fe            16.00    55.84500     Fe( 1.00)

     48 Sym. Ops., with inversion, found



   Cartesian axes

     site n.     atom                  positions (alat units)
         1           Fe  tau(   1) = (   0.0000000   0.0000000   0.0000000  )
         2           Fe  tau(   2) = (   0.2487589   0.2487589   0.2487589  )
         3           Fe  tau(   3) = (   0.0000000   0.0000000   0.4974995  )
         4           Fe  tau(   4) = (   0.2487589   0.2487589   0.7462411  )
         5           Fe  tau(   5) = (   0.0000000   0.4975001   0.0000000  )
         6           Fe  tau(   6) = (   0.2487589   0.7462412   0.2487589  )
         7           Fe  tau(   7) = (   0.0000000   0.4975001   0.4974995  )
         8           Fe  tau(   8) = (   0.2487589   0.7462412   0.7462411  )
         9           Fe  tau(   9) = (   0.4975001   0.0000000   0.0000000  )
        10           Fe  tau(  10) = (   0.7462412   0.2487589   0.2487589  )
        11           Fe  tau(  11) = (   0.4975001   0.0000000   0.4974995  )
        12           Fe  tau(  12) = (   0.7462412   0.2487589   0.7462411  )
        13           Fe  tau(  13) = (   0.4975001   0.4975001   0.0000000  )
        14           Fe  tau(  14) = (   0.7462412   0.7462412   0.2487589  )
        15           Fe  tau(  15) = (   0.4975001   0.4975001   0.4974995  )
        16           Fe  tau(  16) = (   0.7462412   0.7462412   0.7462411  )

     number of k points=    35  Marzari-Vanderbilt smearing, width (Ry)=  0.0400
                       cart. coord. in units 2pi/alat
        k(    1) = (   0.0558347   0.0558347   0.0558347), wk =   0.0219479
        k(    2) = (   0.0558347   0.0558347   0.1675042), wk =   0.0658436
        k(    3) = (   0.0558347   0.0558347   0.2791736), wk =   0.0658436
        k(    4) = (   0.0558347   0.0558347   0.3908431), wk =   0.0658436
        k(    5) = (   0.0558347   0.0558347  -0.5025126), wk =   0.0329218
        k(    6) = (   0.0558347   0.1675042   0.1675042), wk =   0.0658436
        k(    7) = (   0.0558347   0.1675042   0.2791736), wk =   0.1316872
        k(    8) = (   0.0558347   0.1675042   0.3908431), wk =   0.1316872
        k(    9) = (   0.0558347   0.1675042  -0.5025126), wk =   0.0658436
        k(   10) = (   0.0558347   0.2791736   0.2791736), wk =   0.0658436
        k(   11) = (   0.0558347   0.2791736   0.3908431), wk =   0.1316872
        k(   12) = (   0.0558347   0.2791736  -0.5025126), wk =   0.0658436
        k(   13) = (   0.0558347   0.3908431   0.3908431), wk =   0.0658436
        k(   14) = (   0.0558347   0.3908431  -0.5025126), wk =   0.0658436
        k(   15) = (   0.0558347  -0.5025126  -0.5025126), wk =   0.0164609
        k(   16) = (   0.1675042   0.1675042   0.1675042), wk =   0.0219479
        k(   17) = (   0.1675042   0.1675042   0.2791736), wk =   0.0658436
        k(   18) = (   0.1675042   0.1675042   0.3908431), wk =   0.0658436
        k(   19) = (   0.1675042   0.1675042  -0.5025126), wk =   0.0329218
        k(   20) = (   0.1675042   0.2791736   0.2791736), wk =   0.0658436
        k(   21) = (   0.1675042   0.2791736   0.3908431), wk =   0.1316872
        k(   22) = (   0.1675042   0.2791736  -0.5025126), wk =   0.0658436
        k(   23) = (   0.1675042   0.3908431   0.3908431), wk =   0.0658436
        k(   24) = (   0.1675042   0.3908431  -0.5025126), wk =   0.0658436
        k(   25) = (   0.1675042  -0.5025126  -0.5025126), wk =   0.0164609
        k(   26) = (   0.2791736   0.2791736   0.2791736), wk =   0.0219479
        k(   27) = (   0.2791736   0.2791736   0.3908431), wk =   0.0658436
        k(   28) = (   0.2791736   0.2791736  -0.5025126), wk =   0.0329218
        k(   29) = (   0.2791736   0.3908431   0.3908431), wk =   0.0658436
        k(   30) = (   0.2791736   0.3908431  -0.5025126), wk =   0.0658436
        k(   31) = (   0.2791736  -0.5025126  -0.5025126), wk =   0.0164609
        k(   32) = (   0.3908431   0.3908431   0.3908431), wk =   0.0219479
        k(   33) = (   0.3908431   0.3908431  -0.5025126), wk =   0.0329218
        k(   34) = (   0.3908431  -0.5025126  -0.5025126), wk =   0.0164609
        k(   35) = (  -0.5025126  -0.5025126  -0.5025126), wk =   0.0027435

     Dense  grid:   166365 G-vectors     FFT dimensions: (  72,  72,  72)

     Smooth grid:    89199 G-vectors     FFT dimensions: (  60,  60,  60)

     Estimated max dynamical RAM per process >      56.17 MB

     Estimated total dynamical RAM >       2.19 GB

     Check: negative/imaginary core charge=   -0.000006    0.000000

     Initial potential from superposition of free atoms

     starting charge  255.99300, renormalised to  256.00000
     Starting wfcs are  160 randomized atomic wfcs
     Checking if some PAW data can be deallocated... 

     total cpu time spent up to now is        4.3 secs

     Self-consistent Calculation

     iteration #  1     ecut=    71.00 Ry     beta= 0.10
     Davidson diagonalization with overlap
     ethr =  1.00E-02,  avg # of iterations =  3.3

     Threshold (ethr) on eigenvalues was too large:
     Diagonalizing with lowered threshold

     Davidson diagonalization with overlap
     ethr =  2.63E-04,  avg # of iterations =  2.9

     total cpu time spent up to now is       28.9 secs

     total energy              =   -5267.74593825 Ry
     Harris-Foulkes estimate   =   -5267.86458064 Ry
     estimated scf accuracy    <       0.75258241 Ry

     iteration #  2     ecut=    71.00 Ry     beta= 0.10
     Davidson diagonalization with overlap
     ethr =  2.94E-04,  avg # of iterations =  1.0

     total cpu time spent up to now is       36.7 secs

     total energy              =   -5267.60482692 Ry
     Harris-Foulkes estimate   =   -5267.76159251 Ry
     estimated scf accuracy    <       0.37414881 Ry

     iteration #  3     ecut=    71.00 Ry     beta= 0.10
     Davidson diagonalization with overlap
     ethr =  1.46E-04,  avg # of iterations =  3.2

     total cpu time spent up to now is       50.8 secs

     total energy              =   -5267.69296401 Ry
     Harris-Foulkes estimate   =   -5267.71127151 Ry
     estimated scf accuracy    <       0.40556454 Ry

     iteration #  4     ecut=    71.00 Ry     beta= 0.10
     Davidson diagonalization with overlap
     ethr =  1.46E-04,  avg # of iterations =  1.0

     total cpu time spent up to now is       58.4 secs

     total energy              =   -5267.69594501 Ry
     Harris-Foulkes estimate   =   -5267.70249628 Ry
     estimated scf accuracy    <       0.02872711 Ry

     iteration #  5     ecut=    71.00 Ry     beta= 0.10
     Davidson diagonalization with overlap
     ethr =  1.12E-05,  avg # of iterations =  2.2

     total cpu time spent up to now is       68.6 secs

     total energy              =   -5267.69699313 Ry
     Harris-Foulkes estimate   =   -5267.69851697 Ry
     estimated scf accuracy    <       0.02029817 Ry

     iteration #  6     ecut=    71.00 Ry     beta= 0.10
     Davidson diagonalization with overlap
     ethr =  7.93E-06,  avg # of iterations =  2.5

     total cpu time spent up to now is       79.0 secs

     total energy              =   -5267.69929681 Ry
     Harris-Foulkes estimate   =   -5267.69864942 Ry
     estimated scf accuracy    <       0.01110874 Ry

     iteration #  7     ecut=    71.00 Ry     beta= 0.10
     Davidson diagonalization with overlap
     ethr =  4.34E-06,  avg # of iterations =  2.3

     total cpu time spent up to now is       88.8 secs

     total energy              =   -5267.69808543 Ry
     Harris-Foulkes estimate   =   -5267.69981843 Ry
     estimated scf accuracy    <       0.01298520 Ry

     iteration #  8     ecut=    71.00 Ry     beta= 0.10
     Davidson diagonalization with overlap
     ethr =  4.34E-06,  avg # of iterations =  2.2

     total cpu time spent up to now is       98.6 secs

     total energy              =   -5267.69861326 Ry
     Harris-Foulkes estimate   =   -5267.69891889 Ry
     estimated scf accuracy    <       0.00547932 Ry

     iteration #  9     ecut=    71.00 Ry     beta= 0.10
     Davidson diagonalization with overlap
     ethr =  2.14E-06,  avg # of iterations =  2.2

     total cpu time spent up to now is      108.1 secs

     total energy              =   -5267.69883269 Ry
     Harris-Foulkes estimate   =   -5267.69885518 Ry
     estimated scf accuracy    <       0.00031087 Ry

     iteration # 10     ecut=    71.00 Ry     beta= 0.10
     Davidson diagonalization with overlap
     ethr =  1.21E-07,  avg # of iterations =  3.0

     total cpu time spent up to now is      119.7 secs

     End of self-consistent calculation

          k = 0.0558 0.0558 0.0558 ( 11125 PWs)   bands (ev):

   -66.4371 -66.3310 -66.3310 -66.3307 -66.3132 -66.3132 -66.3129 -66.3123
   -66.3123 -66.3119 -66.3114 -66.3114 -66.3110 -66.3036 -66.3030 -66.2224
   -32.7461 -32.7460 -32.7460 -32.7430 -32.7430 -32.7429 -32.5683 -32.5683
   -32.5615 -32.4885 -32.4865 -32.4862 -32.4862 -32.4625 -32.4625 -32.4494
   -32.4488 -32.4488 -32.4095 -32.4095 -32.3833 -32.3661 -32.3660 -32.3660
   -32.3540 -32.3539 -32.3539 -32.3394 -32.3389 -32.3389 -32.3358 -32.3354
   -32.3354 -32.3282 -32.3281 -32.3281 -32.3170 -32.3170 -32.3168 -32.1445
   -32.1425 -32.1425 -32.1424 -32.1389 -32.1389 -32.1389 -32.1374 -32.1374
    11.7510  15.6683  15.6683  15.6684  15.7536  15.7537  15.7537  15.7794
    15.7795  15.7795  16.0095  16.0095  16.1777  16.1777  16.1777  17.5463
    17.6384  17.6384  17.6411  17.6411  17.6411  17.6551  17.6551  17.6551
    17.7847  17.7847  17.8336  18.0777  18.0779  18.0779  18.4813  18.4817
    18.4817  18.9847  18.9847  19.0331  19.3186  19.3186  19.3188  19.4250
    19.4250  19.4250  19.5149  19.5150  19.5150  19.6122  19.6123  19.6123
    20.3763  20.3767  20.3767  20.6065  20.6067  20.6067  20.6327  20.6327
    20.6327  20.7786  20.7788  20.7788  20.7801  20.7802  20.7802  20.8104
    20.8104  21.0701  21.0701  21.0702  21.0814  21.0818  21.0818  21.1292
    21.1292  21.1296  21.1296  21.6264  21.6267  21.6267  21.8594  21.9153
    21.9153  21.9153  21.9399  21.9399  22.3778  22.3779  22.3779  22.4087
    22.4087  22.4087

          k = 0.0558 0.0558 0.1675 ( 11168 PWs)   bands (ev):

   -66.4333 -66.3498 -66.3302 -66.3299 -66.3154 -66.3152 -66.3126 -66.3120
   -66.3117 -66.3109 -66.3105 -66.3101 -66.3043 -66.3037 -66.2941 -66.2253
   -32.7378 -32.7377 -32.7365 -32.7338 -32.7285 -32.7285 -32.5721 -32.5615
   -32.5513 -32.5283 -32.5189 -32.5188 -32.5162 -32.5155 -32.4834 -32.4832
   -32.4462 -32.4168 -32.4057 -32.4036 -32.3910 -32.3657 -32.3655 -32.3578
   -32.3456 -32.3437 -32.3432 -32.3430 -32.3418 -32.3332 -32.3329 -32.3288
   -32.3285 -32.3241 -32.3240 -32.2914 -32.2884 -32.2882 -32.2806 -32.1605
   -32.1525 -32.1525 -32.1508 -32.1482 -32.1436 -32.1425 -32.1424 -32.1402
    11.8907  15.0367  15.7243  15.7243  15.7665  15.7665  15.8457  15.8457
    15.8563  15.8808  16.0742  16.0757  16.2208  16.2208  16.5066  17.4346
    17.5465  17.5585  17.6222  17.6353  17.6747  17.6772  17.6924  17.6924
    17.7348  17.7348  17.9794  17.9907  18.0327  18.0329  18.3817  18.3819
    18.8444  18.9584  18.9797  19.0973  19.0991  19.0993  19.1663  19.2835
    19.2835  19.3271  19.6051  19.6052  19.7249  19.7250  19.7559  19.8589
    20.0610  20.0611  20.1265  20.3621  20.3626  20.3628  20.5275  20.6122
    20.6124  20.7160  20.7162  20.7349  20.8004  20.8022  20.8024  20.8271
    20.8411  20.8617  20.8617  20.8875  21.0844  21.1065  21.1069  21.1264
    21.1269  21.3064  21.4188  21.4189  21.5939  21.6805  21.7970  21.9238
    21.9238  21.9322  21.9696  21.9697  22.2788  22.2788  22.4548  22.4548
    22.5434  22.5434

          k = 0.0558 0.0558 0.2792 ( 11173 PWs)   bands (ev):

   -66.4259 -66.3685 -66.3286 -66.3283 -66.3180 -66.3177 -66.3116 -66.3115
   -66.3112 -66.3101 -66.3100 -66.3096 -66.3054 -66.3045 -66.2774 -66.2308
   -32.7182 -32.7182 -32.7177 -32.7157 -32.7029 -32.7029 -32.5734 -32.5724
   -32.5664 -32.5629 -32.5629 -32.5481 -32.5392 -32.5360 -32.5299 -32.5298
   -32.4398 -32.4299 -32.4264 -32.4112 -32.3635 -32.3633 -32.3593 -32.3579
   -32.3529 -32.3475 -32.3472 -32.3312 -32.3310 -32.3286 -32.3284 -32.3086
   -32.3002 -32.2871 -32.2871 -32.2569 -32.2534 -32.2532 -32.2470 -32.1869
   -32.1686 -32.1686 -32.1673 -32.1656 -32.1557 -32.1525 -32.1525 -32.1502
    12.1660  14.3558  15.8085  15.8085  15.8092  15.8092  15.9474  15.9475
    16.0535  16.0750  16.1943  16.2067  16.2688  16.2688  16.6432  17.2705
    17.2978  17.3193  17.5020  17.5534  17.5895  17.6002  17.8074  17.8074
    17.8776  17.8777  18.0267  18.0268  18.2389  18.2604  18.3144  18.3146
    18.8024  18.8025  18.9414  18.9680  18.9680  18.9730  19.0071  19.0562
    19.1926  19.4597  19.4862  19.4864  19.7100  19.7102  19.8701  19.8702
    19.8895  19.9092  19.9093  19.9224  19.9712  20.0421  20.1553  20.5864
    20.6135  20.6137  20.7141  20.7143  20.8386  20.8530  20.8999  20.9233
    20.9234  21.0656  21.0665  21.0898  21.1213  21.1233  21.1329  21.1620
    21.1620  21.1745  21.3773  21.4105  21.5403  21.6191  21.6192  21.8579
    21.9390  21.9390  22.0259  22.0260  22.1487  22.1487  22.5377  22.5377
    22.6802  22.6803

          k = 0.0558 0.0558 0.3908 ( 11156 PWs)   bands (ev):

   -66.4153 -66.3860 -66.3263 -66.3260 -66.3207 -66.3205 -66.3109 -66.3107
   -66.3102 -66.3099 -66.3097 -66.3087 -66.3068 -66.3058 -66.2624 -66.2389
   -32.6903 -32.6894 -32.6889 -32.6889 -32.6678 -32.6678 -32.6158 -32.6134
   -32.6085 -32.6085 -32.5788 -32.5787 -32.5715 -32.5556 -32.5283 -32.5152
   -32.4735 -32.4598 -32.4120 -32.3990 -32.3741 -32.3676 -32.3602 -32.3599
   -32.3521 -32.3518 -32.3298 -32.3295 -32.3288 -32.3285 -32.3114 -32.2635
   -32.2589 -32.2510 -32.2509 -32.2247 -32.2225 -32.2201 -32.2200 -32.2159
   -32.1913 -32.1913 -32.1907 -32.1906 -32.1736 -32.1688 -32.1687 -32.1666
    12.5681  13.6893  15.8605  15.8606  15.8772  15.8772  16.0708  16.0708
    16.2655  16.2655  16.3287  16.3451  16.3493  16.3998  16.6240  16.9522
    16.9923  17.0012  17.4953  17.5132  17.5502  17.5592  17.9810  17.9810
    18.0772  18.0772  18.1535  18.1537  18.3554  18.3556  18.5363  18.5363
    18.5736  18.5945  18.6524  18.6525  18.9362  18.9440  18.9442  18.9699
    18.9858  18.9970  19.1260  19.1262  19.3208  19.4410  19.4457  19.6729
    19.7773  20.1130  20.1131  20.1415  20.1416  20.3685  20.3702  20.4758
    20.4760  20.4909  20.5767  20.5768  20.8907  20.8999  20.9842  21.0110
    21.0137  21.0794  21.0971  21.1142  21.1204  21.1330  21.2113  21.2178
    21.2321  21.2322  21.3607  21.4569  21.4569  21.6519  21.6520  21.7317
    21.9138  21.9138  21.9572  21.9572  22.0297  22.0298  22.6377  22.6378
    22.7491  22.7492

          k = 0.0558 0.0558-0.5025 ( 11194 PWs)   bands (ev):

   -66.4020 -66.4018 -66.3239 -66.3235 -66.3233 -66.3232 -66.3106 -66.3103
   -66.3100 -66.3099 -66.3088 -66.3085 -66.3074 -66.3072 -66.2497 -66.2494
   -32.6559 -32.6556 -32.6553 -32.6551 -32.6516 -32.6515 -32.6514 -32.6514
   -32.6257 -32.6257 -32.6255 -32.6254 -32.5664 -32.5662 -32.5034 -32.5032
   -32.4898 -32.4896 -32.3932 -32.3929 -32.3840 -32.3838 -32.3564 -32.3562
   -32.3562 -32.3559 -32.3292 -32.3289 -32.3289 -32.3287 -32.2652 -32.2650
   -32.2244 -32.2242 -32.2224 -32.2221 -32.2187 -32.2186 -32.2184 -32.2183
   -32.1971 -32.1969 -32.1918 -32.1916 -32.1915 -32.1915 -32.1892 -32.1890
    13.0827  13.0831  15.8931  15.8932  15.8933  15.8934  16.1896  16.1897
    16.1898  16.1899  16.5070  16.5072  16.6500  16.6504  16.6560  16.6563
    16.6638  16.6641  17.5148  17.5151  17.5246  17.5249  18.2016  18.2016
    18.2018  18.2020  18.3014  18.3015  18.3016  18.3017  18.5181  18.5183
    18.5184  18.5186  18.6838  18.6839  18.6839  18.6842  18.9480  18.9482
    18.9764  18.9767  18.9772  18.9772  18.9906  18.9906  19.4815  19.4818
    20.0951  20.0954  20.3064  20.3064  20.3065  20.3068  20.3831  20.3832
    20.3832  20.3835  20.7217  20.7219  20.8505  20.8507  20.9500  20.9502
    20.9554  20.9556  21.0898  21.0900  21.1055  21.1057  21.1210  21.1212
    21.4968  21.4970  21.4970  21.4970  21.5629  21.5631  21.7143  21.7144
    21.7145  21.7146  21.9783  21.9783  21.9785  21.9786  22.7224  22.7225
    22.7227  22.7227

          k = 0.0558 0.1675 0.1675 ( 11152 PWs)   bands (ev):

   -66.4296 -66.3486 -66.3483 -66.3292 -66.3206 -66.3148 -66.3145 -66.3115
   -66.3101 -66.3098 -66.3061 -66.3052 -66.3037 -66.2945 -66.2943 -66.2279
   -32.7357 -32.7286 -32.7285 -32.7202 -32.7201 -32.7078 -32.5792 -32.5575
   -32.5534 -32.5473 -32.5472 -32.5392 -32.5350 -32.5315 -32.5056 -32.4568
   -32.4411 -32.4407 -32.4049 -32.4027 -32.4024 -32.3718 -32.3606 -32.3602
   -32.3534 -32.3506 -32.3504 -32.3389 -32.3386 -32.3371 -32.3332 -32.3238
   -32.3136 -32.3002 -32.2927 -32.2923 -32.2675 -32.2539 -32.2538 -32.1822
   -32.1686 -32.1589 -32.1589 -32.1506 -32.1506 -32.1487 -32.1391 -32.1375
    12.0288  15.1118  15.1119  15.7132  15.7870  15.8708  15.8709  15.9461
    15.9462  15.9565  16.1372  16.1422  16.2733  16.5483  16.5483  17.3333
    17.4482  17.6296  17.6678  17.6678  17.6711  17.6712  17.7090  17.7091
    17.7152  17.7510  17.8421  17.9646  17.9722  18.0038  18.2742  18.6661
    18.6663  18.8954  18.9599  18.9600  18.9641  19.0102  19.1577  19.2033
    19.5100  19.5104  19.5776  19.5777  19.6297  19.6885  19.7931  19.9003
    19.9003  19.9063  19.9065  20.1070  20.1070  20.2650  20.3634  20.3638
    20.6064  20.7221  20.7384  20.7385  20.7935  20.7979  20.7979  20.8192
    20.8261  21.0064  21.0561  21.0911  21.0915  21.1058  21.1059  21.1169
    21.1188  21.2240  21.2243  21.4459  21.5589  21.5592  21.5793  21.5793
    21.6918  21.9553  21.9595  22.0942  22.1686  22.5312  22.8569  22.8570
    23.0458  23.2177

          k = 0.0558 0.1675 0.2792 ( 11157 PWs)   bands (ev):

   -66.4225 -66.3665 -66.3457 -66.3276 -66.3262 -66.3172 -66.3135 -66.3111
   -66.3095 -66.3090 -66.3066 -66.3045 -66.3026 -66.2949 -66.2782 -66.2332
   -32.7224 -32.7105 -32.7102 -32.7039 -32.6964 -32.6767 -32.5878 -32.5863
   -32.5849 -32.5724 -32.5705 -32.5677 -32.5445 -32.5418 -32.5142 -32.4892
   -32.4451 -32.4380 -32.4009 -32.3982 -32.3957 -32.3946 -32.3737 -32.3645
   -32.3640 -32.3560 -32.3497 -32.3371 -32.3355 -32.3220 -32.3156 -32.2976
   -32.2946 -32.2799 -32.2705 -32.2587 -32.2405 -32.2222 -32.2216 -32.2142
   -32.1903 -32.1725 -32.1721 -32.1669 -32.1604 -32.1589 -32.1423 -32.1414
    12.3007  14.4499  15.2434  15.6710  15.8845  15.9143  16.0475  16.0712
    16.0975  16.1380  16.2553  16.2717  16.3388  16.5820  16.6921  17.2137
    17.2985  17.3135  17.5654  17.6332  17.6567  17.6642  17.7119  17.7775
    17.8010  17.8381  17.9338  18.0112  18.1326  18.1786  18.1970  18.5335
    18.6947  18.8009  18.8159  18.8375  18.8764  18.9240  18.9469  19.1472
    19.1814  19.3389  19.3780  19.5384  19.5983  19.6817  19.6927  19.7050
    19.7792  19.8795  19.9007  19.9533  19.9856  20.1216  20.1481  20.4794
    20.6082  20.6387  20.6778  20.7154  20.7492  20.7829  20.8216  20.8635
    21.0321  21.0485  21.0499  21.1126  21.1183  21.1389  21.1425  21.1576
    21.2077  21.3207  21.3380  21.3525  21.3620  21.3900  21.4445  21.5498
    21.6694  21.8866  21.9423  22.0259  22.1638  22.6733  22.6933  23.2623
    23.3727  23.4869

          k = 0.0558 0.1675 0.3908 ( 11165 PWs)   bands (ev):

   -66.4121 -66.3836 -66.3419 -66.3318 -66.3254 -66.3199 -66.3120 -66.3104
   -66.3095 -66.3083 -66.3079 -66.3055 -66.2998 -66.2960 -66.2637 -66.2410
   -32.6992 -32.6844 -32.6829 -32.6807 -32.6639 -32.6370 -32.6294 -32.6189
   -32.6123 -32.6106 -32.5895 -32.5835 -32.5812 -32.5408 -32.5253 -32.4895
   -32.4711 -32.4296 -32.4259 -32.3919 -32.3916 -32.3830 -32.3742 -32.3715
   -32.3637 -32.3617 -32.3464 -32.3363 -32.3361 -32.3085 -32.2981 -32.2841
   -32.2574 -32.2537 -32.2468 -32.2407 -32.2277 -32.2173 -32.2140 -32.1940
   -32.1929 -32.1915 -32.1908 -32.1907 -32.1779 -32.1722 -32.1526 -32.1525
    12.6972  13.7988  15.3957  15.6171  15.9662  15.9677  16.1703  16.2584
    16.3504  16.3532  16.4024  16.4104  16.4580  16.5404  16.6805  16.9863
    17.0021  17.0198  17.5320  17.5769  17.5883  17.6131  17.8905  17.9309
    17.9458  18.0043  18.0066  18.1589  18.2334  18.3736  18.4289  18.4902
    18.5940  18.6053  18.6691  18.6766  18.7984  18.7988  18.8437  18.8887
    18.8957  18.9287  19.0157  19.1598  19.2224  19.2249  19.4994  19.8923
    19.9240  20.0894  20.0902  20.1483  20.1511  20.1705  20.3451  20.4200
    20.4449  20.5040  20.5772  20.6207  20.7911  20.8452  20.8694  20.9488
    20.9869  20.9928  20.9973  21.1100  21.1163  21.1252  21.1265  21.1888
    21.2033  21.2379  21.2757  21.4020  21.4086  21.5066  21.5483  21.6508
    21.6573  21.6627  21.8618  22.0644  22.1467  22.5089  22.8569  23.1932
    23.5496  23.6929

          k = 0.0558 0.1675-0.5025 ( 11150 PWs)   bands (ev):

   -66.3991 -66.3988 -66.3373 -66.3370 -66.3229 -66.3226 -66.3104 -66.3102
   -66.3099 -66.3097 -66.3068 -66.3066 -66.2977 -66.2974 -66.2514 -66.2512
   -32.6673 -32.6672 -32.6519 -32.6517 -32.6512 -32.6510 -32.6488 -32.6488
   -32.6254 -32.6253 -32.5909 -32.5909 -32.5884 -32.5883 -32.5006 -32.5004
   -32.4612 -32.4611 -32.4043 -32.4041 -32.3835 -32.3833 -32.3788 -32.3785
   -32.3673 -32.3671 -32.3363 -32.3361 -32.3028 -32.3026 -32.2985 -32.2984
   -32.2485 -32.2484 -32.2213 -32.2211 -32.2169 -32.2167 -32.2138 -32.2138
   -32.2007 -32.2005 -32.1908 -32.1907 -32.1703 -32.1702 -32.1694 -32.1693
    13.2037  13.2042  15.5277  15.5279  15.9946  15.9948  16.2865  16.2867
    16.4183  16.4185  16.5676  16.5678  16.6805  16.6808  16.6979  16.6983
    16.7076  16.7078  17.5488  17.5491  17.5743  17.5746  18.0951  18.0952
    18.1160  18.1162  18.1421  18.1423  18.2118  18.2120  18.5354  18.5355
    18.5823  18.5824  18.6526  18.6528  18.7750  18.7752  18.7838  18.7841
    18.7992  18.7992  18.8398  18.8399  18.9132  18.9134  19.6848  19.6850
    20.1827  20.1830  20.2127  20.2129  20.3377  20.3379  20.3851  20.3853
    20.4243  20.4245  20.4328  20.4328  20.7797  20.7799  20.9163  20.9165
    20.9296  20.9298  21.0579  21.0581  21.1095  21.1097  21.1495  21.1497
    21.2628  21.2629  21.3665  21.3666  21.4804  21.4806  21.5589  21.5591
    21.7267  21.7269  21.8932  21.8933  22.3164  22.3166  23.0447  23.0450
    23.6846  23.6849

          k = 0.0558 0.2792 0.2792 ( 11170 PWs)   bands (ev):

   -66.4157 -66.3629 -66.3626 -66.3347 -66.3261 -66.3161 -66.3159 -66.3105
   -66.3089 -66.3086 -66.3082 -66.3048 -66.2961 -66.2800 -66.2797 -66.2381
   -32.7156 -32.6946 -32.6946 -32.6839 -32.6839 -32.6411 -32.6047 -32.6046
   -32.6022 -32.5995 -32.5907 -32.5882 -32.5641 -32.5326 -32.4878 -32.4461
   -32.4436 -32.4431 -32.4318 -32.4315 -32.3956 -32.3827 -32.3803 -32.3721
   -32.3719 -32.3578 -32.3573 -32.3485 -32.3483 -32.3427 -32.3015 -32.2721
   -32.2632 -32.2628 -32.2558 -32.2519 -32.2483 -32.2232 -32.2168 -32.1940
   -32.1939 -32.1803 -32.1802 -32.1717 -32.1716 -32.1715 -32.1388 -32.1378
    12.5653  14.6251  14.6252  15.5173  16.0083  16.1168  16.1168  16.2373
    16.2374  16.2594  16.3589  16.4077  16.4417  16.7323  16.7324  17.1505
    17.2146  17.3966  17.3966  17.6264  17.7028  17.7253  17.7254  17.7709
    17.7709  17.8360  17.8565  18.0398  18.0782  18.1772  18.2052  18.5857
    18.5859  18.7013  18.7184  18.7187  18.7311  18.7490  18.7996  18.9120
    19.1694  19.1694  19.2367  19.2368  19.4056  19.4390  19.4394  19.5210
    19.9675  19.9675  20.0272  20.0701  20.1199  20.1202  20.3419  20.4279
    20.4284  20.6011  20.6902  20.6902  20.7199  20.7389  20.7390  20.8012
    20.8378  21.0040  21.0055  21.0128  21.1108  21.1209  21.1570  21.2116
    21.2232  21.2236  21.2765  21.3036  21.3037  21.4142  21.4145  21.5979
    21.5980  21.6390  21.9963  22.1932  22.2066  22.9122  23.3352  23.3353
    23.9473  23.9474

          k = 0.0558 0.2792 0.3908 ( 11166 PWs)   bands (ev):

   -66.4059 -66.3788 -66.3574 -66.3429 -66.3239 -66.3186 -66.3143 -66.3103
   -66.3099 -66.3088 -66.3077 -66.3057 -66.2906 -66.2825 -66.2664 -66.2453
   -32.6990 -32.6723 -32.6717 -32.6662 -32.6567 -32.6410 -32.6230 -32.6160
   -32.6156 -32.6134 -32.6098 -32.5973 -32.5931 -32.5143 -32.4960 -32.4629
   -32.4584 -32.4341 -32.4220 -32.3960 -32.3943 -32.3924 -32.3922 -32.3883
   -32.3864 -32.3791 -32.3622 -32.3480 -32.3465 -32.3188 -32.2961 -32.2887
   -32.2695 -32.2474 -32.2426 -32.2341 -32.2319 -32.2268 -32.2057 -32.1928
   -32.1921 -32.1904 -32.1879 -32.1793 -32.1704 -32.1701 -32.1422 -32.1418
    12.9501  14.0087  14.8550  15.3294  16.1265  16.1666  16.3570  16.3963
    16.4254  16.4948  16.4958  16.5017  16.5981  16.6936  16.7357  17.0184
    17.0197  17.0992  17.6039  17.6086  17.6498  17.6647  17.6959  17.8322
    17.8462  17.8864  17.9705  17.9728  18.2415  18.3268  18.3379  18.3466
    18.4604  18.5655  18.5716  18.6366  18.6465  18.6783  18.7678  18.7869
    18.8121  18.8722  18.8812  18.8941  19.0357  19.0877  19.7242  19.7394
    20.1125  20.1262  20.1845  20.2217  20.2253  20.2322  20.2354  20.3308
    20.4377  20.4928  20.5639  20.6048  20.6290  20.7478  20.7647  20.7920
    20.8930  20.9143  20.9342  20.9388  21.0458  21.1167  21.1336  21.1391
    21.1599  21.2334  21.2409  21.2629  21.2711  21.3484  21.3699  21.4373
    21.7743  21.8364  21.9840  22.1439  22.4659  23.0598  23.2058  23.7673
    24.0225  24.6541

          k = 0.0558 0.2792-0.5025 ( 11148 PWs)   bands (ev):

   -66.3935 -66.3933 -66.3507 -66.3505 -66.3214 -66.3212 -66.3124 -66.3122
   -66.3094 -66.3092 -66.3067 -66.3065 -66.2862 -66.2859 -66.2549 -66.2547
   -32.6733 -32.6733 -32.6452 -32.6451 -32.6450 -32.6449 -32.6444 -32.6443
   -32.6254 -32.6253 -32.6149 -32.6148 -32.5482 -32.5482 -32.4909 -32.4907
   -32.4263 -32.4262 -32.4143 -32.4141 -32.4101 -32.4099 -32.3848 -32.3846
   -32.3765 -32.3763 -32.3479 -32.3478 -32.3443 -32.3443 -32.2817 -32.2816
   -32.2781 -32.2779 -32.2145 -32.2144 -32.2104 -32.2103 -32.2089 -32.2087
   -32.2079 -32.2078 -32.1907 -32.1906 -32.1527 -32.1526 -32.1526 -32.1524
    13.4389  13.4393  15.1020  15.1023  16.1820  16.1822  16.4633  16.4635
    16.5791  16.5793  16.6375  16.6377  16.7178  16.7180  16.7785  16.7787
    16.8307  16.8310  17.6151  17.6154  17.6425  17.6428  17.9121  17.9123
    17.9358  17.9360  17.9426  17.9427  18.1367  18.1368  18.5343  18.5344
    18.5570  18.5572  18.5639  18.5641  18.5914  18.5916  18.6005  18.6006
    18.7546  18.7546  18.7786  18.7788  18.8321  18.8323  19.9449  19.9452
    20.0766  20.0767  20.1461  20.1463  20.3198  20.3201  20.4082  20.4084
    20.4260  20.4262  20.4603  20.4604  20.6063  20.6065  20.8503  20.8505
    20.8633  20.8635  20.9997  20.9999  21.0459  21.0461  21.1306  21.1308
    21.1613  21.1615  21.1807  21.1809  21.2770  21.2772  21.4080  21.4081
    21.9069  21.9070  22.0228  22.0229  22.7625  22.7628  23.5056  23.5059
    24.7285  24.7289

          k = 0.0558 0.3908 0.3908 ( 11174 PWs)   bands (ev):

   -66.3969 -66.3722 -66.3719 -66.3537 -66.3218 -66.3170 -66.3167 -66.3124
   -66.3092 -66.3081 -66.3078 -66.3062 -66.2826 -66.2705 -66.2703 -66.2518
   -32.6888 -32.6566 -32.6566 -32.6474 -32.6474 -32.6440 -32.6439 -32.6291
   -32.6273 -32.6259 -32.6251 -32.6079 -32.5509 -32.4976 -32.4506 -32.4503
   -32.4470 -32.4465 -32.4316 -32.4248 -32.4163 -32.3997 -32.3996 -32.3979
   -32.3833 -32.3619 -32.3617 -32.3550 -32.3543 -32.3538 -32.3442 -32.2808
   -32.2711 -32.2438 -32.2434 -32.2242 -32.2170 -32.2137 -32.2023 -32.1979
   -32.1966 -32.1965 -32.1908 -32.1907 -32.1529 -32.1528 -32.1385 -32.1382
    13.3153  14.2996  14.2997  14.9973  16.3016  16.4358  16.4359  16.5664
    16.5934  16.6017  16.6018  16.6413  16.7317  16.7318  16.8040  16.9378
    16.9916  17.3252  17.3254  17.6494  17.6677  17.7274  17.7516  17.7516
    17.7624  17.7624  17.8490  17.9794  18.0516  18.1806  18.2913  18.3606
    18.3607  18.4638  18.5162  18.5396  18.5607  18.5607  18.5931  18.5932
    18.7211  18.7255  18.7258  18.8135  18.8605  19.3778  19.3782  19.9677
    20.0674  20.1526  20.2164  20.2168  20.3370  20.3370  20.3567  20.3672
    20.4872  20.4877  20.5260  20.6147  20.6524  20.6524  20.6553  20.6708
    20.6709  20.8537  20.8569  20.8678  20.9609  21.0590  21.0592  21.0864
    21.1331  21.1645  21.1982  21.1985  21.2370  21.2941  21.2945  21.3192
    21.9651  21.9652  22.0457  22.1550  22.8494  23.6088  23.6484  23.6486
    24.3899  24.3900

          k = 0.0558 0.3908-0.5025 ( 11158 PWs)   bands (ev):

   -66.3856 -66.3853 -66.3636 -66.3634 -66.3195 -66.3193 -66.3148 -66.3145
   -66.3086 -66.3084 -66.3071 -66.3068 -66.2760 -66.2757 -66.2602 -66.2600
   -32.6699 -32.6698 -32.6401 -32.6400 -32.6399 -32.6398 -32.6391 -32.6390
   -32.6375 -32.6373 -32.6270 -32.6269 -32.4998 -32.4997 -32.4762 -32.4760
   -32.4349 -32.4347 -32.4188 -32.4187 -32.4021 -32.4021 -32.3955 -32.3955
   -32.3897 -32.3896 -32.3743 -32.3742 -32.3598 -32.3597 -32.3168 -32.3167
   -32.2561 -32.2559 -32.2210 -32.2208 -32.2059 -32.2057 -32.2049 -32.2048
   -32.2036 -32.2035 -32.1930 -32.1930 -32.1421 -32.1420 -32.1419 -32.1418
    13.7739  13.7743  14.6417  14.6420  16.4170  16.4172  16.6715  16.6718
    16.6754  16.6756  16.6842  16.6844  16.7224  16.7227  16.8446  16.8448
    17.0524  17.0527  17.6321  17.6323  17.6783  17.6785  17.6793  17.6795
    17.7441  17.7443  17.8023  17.8024  18.1839  18.1841  18.3225  18.3226
    18.4087  18.4088  18.4148  18.4150  18.4185  18.4187  18.4763  18.4765
    18.7460  18.7462  18.7644  18.7646  19.0327  19.0328  19.7082  19.7083
    20.1491  20.1493  20.2222  20.2225  20.4069  20.4071  20.4587  20.4589
    20.5141  20.5142  20.5148  20.5150  20.5182  20.5184  20.7547  20.7549
    20.7617  20.7618  20.7904  20.7906  20.9332  20.9334  20.9854  20.9856
    21.1583  21.1584  21.2108  21.2110  21.2236  21.2238  21.3067  21.3069
    22.0380  22.0380  22.0949  22.0950  23.2524  23.2527  24.0168  24.0171
    24.2506  24.2510

          k = 0.0558-0.5025-0.5025 ( 11140 PWs)   bands (ev):

   -66.3755 -66.3755 -66.3753 -66.3751 -66.3173 -66.3172 -66.3170 -66.3168
   -66.3078 -66.3078 -66.3076 -66.3073 -66.2673 -66.2673 -66.2671 -66.2668
   -32.6579 -32.6579 -32.6579 -32.6577 -32.6379 -32.6379 -32.6378 -32.6378
   -32.6309 -32.6309 -32.6308 -32.6308 -32.4573 -32.4572 -32.4569 -32.4568
   -32.4484 -32.4483 -32.4479 -32.4479 -32.4147 -32.4147 -32.4147 -32.4145
   -32.3691 -32.3691 -32.3691 -32.3689 -32.3529 -32.3527 -32.3523 -32.3523
   -32.2371 -32.2370 -32.2367 -32.2365 -32.2025 -32.2025 -32.2023 -32.2023
   -32.1983 -32.1982 -32.1981 -32.1981 -32.1385 -32.1385 -32.1384 -32.1383
    14.1856  14.1858  14.1859  14.1862  16.6249  16.6251  16.6252  16.6252
    16.7013  16.7014  16.7015  16.7017  16.8292  16.8294  16.8295  16.8295
    17.3293  17.3293  17.3295  17.3296  17.6711  17.6712  17.6713  17.6713
    17.7194  17.7196  17.7196  17.7197  18.2797  18.2800  18.2800  18.2801
    18.2978  18.2979  18.2979  18.2982  18.3866  18.3867  18.3867  18.3870
    18.7336  18.7336  18.7337  18.7341  19.3544  19.3544  19.3548  19.3548
    20.2410  20.2410  20.2412  20.2416  20.5005  20.5008  20.5011  20.5011
    20.5428  20.5428  20.5429  20.5430  20.6375  20.6377  20.6378  20.6379
    20.6393  20.6393  20.6395  20.6395  20.9098  20.9099  20.9100  20.9102
    21.1877  21.1878  21.1881  21.1881  21.2473  21.2473  21.2476  21.2477
    22.1015  22.1015  22.1016  22.1016  23.7545  23.7549  23.7549  23.7551
    24.5349  24.5352

          k = 0.1675 0.1675 0.1675 ( 11206 PWs)   bands (ev):

   -66.4261 -66.3472 -66.3472 -66.3468 -66.3201 -66.3201 -66.3197 -66.3070
   -66.3060 -66.3060 -66.3056 -66.3032 -66.2948 -66.2948 -66.2944 -66.2305
   -32.7263 -32.7263 -32.7263 -32.7012 -32.7012 -32.7012 -32.5752 -32.5723
   -32.5723 -32.5654 -32.5653 -32.5653 -32.5144 -32.5093 -32.5093 -32.4654
   -32.4649 -32.4649 -32.4106 -32.4105 -32.4105 -32.3631 -32.3627 -32.3627
   -32.3538 -32.3538 -32.3343 -32.3340 -32.3340 -32.3289 -32.3285 -32.3285
   -32.2957 -32.2956 -32.2956 -32.2872 -32.2365 -32.2365 -32.2364 -32.2050
   -32.1725 -32.1725 -32.1725 -32.1482 -32.1481 -32.1481 -32.1438 -32.1438
    12.1655  15.1913  15.1913  15.1914  15.8219  15.8219  15.8219  16.0541
    16.0542  16.0542  16.2038  16.2038  16.6024  16.6024  16.6024  17.2490
    17.5574  17.5574  17.6424  17.6426  17.6426  17.6936  17.6937  17.6937
    17.8064  17.8064  17.8065  17.8508  17.9241  17.9241  18.5115  18.5119
    18.5119  18.8800  18.8800  18.8802  18.8824  18.8824  19.3206  19.3211
    19.3214  19.3214  19.5210  19.5211  19.5211  19.6951  19.6951  19.6951
    19.9360  19.9360  19.9362  19.9846  19.9848  19.9848  20.5678  20.5683
    20.5683  20.6434  20.6435  20.6435  20.7575  20.7575  20.7990  20.7991
    20.7991  21.0590  21.0593  21.0593  21.0914  21.0914  21.0939  21.0939
    21.1630  21.2149  21.2149  21.2150  21.5763  21.5764  21.5764  21.7921
    21.7924  21.7924  21.8179  21.8179  22.5534  22.5536  22.5536  23.3343
    23.3343  23.3344

          k = 0.1675 0.1675 0.2792 ( 11158 PWs)   bands (ev):

   -66.4191 -66.3646 -66.3446 -66.3443 -66.3254 -66.3252 -66.3184 -66.3091
   -66.3053 -66.3030 -66.3026 -66.3023 -66.2953 -66.2951 -66.2789 -66.2356
   -32.7136 -32.7136 -32.7076 -32.6879 -32.6721 -32.6721 -32.5984 -32.5947
   -32.5947 -32.5845 -32.5827 -32.5590 -32.5585 -32.5038 -32.5036 -32.4900
   -32.4842 -32.4471 -32.4196 -32.4116 -32.4116 -32.3803 -32.3756 -32.3753
   -32.3678 -32.3622 -32.3371 -32.3196 -32.3193 -32.3054 -32.3020 -32.3019
   -32.2986 -32.2984 -32.2597 -32.2597 -32.2382 -32.2133 -32.2132 -32.2085
   -32.1907 -32.1907 -32.1805 -32.1648 -32.1563 -32.1503 -32.1502 -32.1443
    12.4343  14.5466  15.3314  15.3314  15.7835  15.7836  16.0316  16.1937
    16.1938  16.2396  16.3254  16.3269  16.6581  16.6581  16.7555  17.1672
    17.3147  17.3969  17.5287  17.6562  17.6566  17.6567  17.7456  17.7734
    17.7756  17.7756  17.9560  17.9560  17.9575  18.1488  18.3658  18.3660
    18.6610  18.6950  18.6951  18.7818  18.8013  18.8585  19.0566  19.0567
    19.0762  19.0763  19.3120  19.4634  19.4636  19.4787  19.4797  19.5238
    19.8203  19.9261  19.9261  20.0771  20.0771  20.2442  20.3301  20.5295
    20.5296  20.6371  20.7105  20.7394  20.7395  20.8184  20.8231  20.8242
    20.8458  20.8461  21.0446  21.0461  21.0654  21.0896  21.1050  21.1078
    21.1079  21.3332  21.3876  21.3876  21.4164  21.4906  21.5645  21.5796
    21.5796  21.8654  21.8757  21.8758  22.2853  22.2854  23.1929  23.5366
    23.5366  23.9675

          k = 0.1675 0.1675 0.3908 ( 11159 PWs)   bands (ev):

   -66.4090 -66.3812 -66.3408 -66.3405 -66.3309 -66.3307 -66.3164 -66.3116
   -66.3046 -66.3033 -66.2998 -66.2995 -66.2963 -66.2961 -66.2650 -66.2431
   -32.6916 -32.6915 -32.6808 -32.6695 -32.6354 -32.6354 -32.6290 -32.6290
   -32.6230 -32.6052 -32.5930 -32.5929 -32.5481 -32.5480 -32.5384 -32.4818
   -32.4628 -32.4577 -32.4071 -32.4069 -32.4034 -32.4012 -32.3874 -32.3872
   -32.3720 -32.3625 -32.3470 -32.3124 -32.3121 -32.3020 -32.3017 -32.2786
   -32.2699 -32.2699 -32.2611 -32.2343 -32.2271 -32.2132 -32.2132 -32.1936
   -32.1907 -32.1906 -32.1899 -32.1843 -32.1746 -32.1586 -32.1585 -32.1516
    12.8259  13.9095  15.4947  15.4948  15.7306  15.7306  16.3260  16.3547
    16.3548  16.4846  16.4917  16.5036  16.6332  16.6333  16.7521  17.0068
    17.0189  17.0546  17.5348  17.6100  17.6534  17.6783  17.8021  17.8023
    17.9091  17.9092  18.1258  18.1258  18.2422  18.2447  18.2449  18.4186
    18.5681  18.5682  18.6528  18.6529  18.7264  18.7413  18.7421  18.7762
    18.7762  18.8272  18.9916  18.9918  19.0214  19.0310  19.6619  19.7859
    20.0252  20.0924  20.1780  20.1780  20.1839  20.1839  20.4086  20.4087
    20.4602  20.4649  20.5535  20.6121  20.6121  20.7963  20.8650  20.9165
    20.9735  20.9876  21.0726  21.0858  21.0901  21.0903  21.1319  21.1635
    21.1801  21.1801  21.2430  21.2982  21.5735  21.5735  21.5971  21.6247
    21.6247  21.8361  21.8462  21.8463  22.0235  22.0236  23.7726  23.7727
    23.8973  24.0695

          k = 0.1675 0.1675-0.5025 ( 11136 PWs)   bands (ev):

   -66.3962 -66.3960 -66.3364 -66.3361 -66.3359 -66.3357 -66.3142 -66.3140
   -66.3040 -66.3038 -66.2980 -66.2976 -66.2974 -66.2973 -66.2531 -66.2529
   -32.6625 -32.6624 -32.6623 -32.6623 -32.6473 -32.6472 -32.6464 -32.6462
   -32.5963 -32.5961 -32.5932 -32.5932 -32.5930 -32.5929 -32.5126 -32.5124
   -32.4331 -32.4329 -32.4302 -32.4300 -32.3984 -32.3982 -32.3982 -32.3980
   -32.3567 -32.3565 -32.3239 -32.3238 -32.3066 -32.3064 -32.3064 -32.3062
   -32.2399 -32.2398 -32.2395 -32.2394 -32.2224 -32.2221 -32.2118 -32.2116
   -32.1985 -32.1983 -32.1722 -32.1720 -32.1720 -32.1720 -32.1648 -32.1648
    13.3249  13.3254  15.6366  15.6366  15.6368  15.6369  16.5150  16.5151
    16.5152  16.5153  16.6423  16.6425  16.6792  16.6794  16.7330  16.7334
    16.7725  16.7728  17.5654  17.5657  17.6327  17.6330  18.0688  18.0689
    18.0691  18.0692  18.0797  18.0797  18.0799  18.0801  18.5430  18.5431
    18.5432  18.5434  18.6029  18.6030  18.6675  18.6677  18.6678  18.6679
    18.7146  18.7148  18.7207  18.7208  18.7898  18.7901  19.8674  19.8676
    20.1052  20.1053  20.2534  20.2537  20.2894  20.2894  20.2895  20.2897
    20.4213  20.4213  20.4215  20.4215  20.8876  20.8878  20.8945  20.8947
    20.9242  20.9245  21.0296  21.0298  21.0796  21.0798  21.1891  21.1892
    21.1985  21.1986  21.1987  21.1988  21.7363  21.7363  21.7363  21.7365
    21.7419  21.7421  21.7805  21.7807  21.7807  21.7808  23.9770  23.9771
    23.9773  23.9774

          k = 0.1675 0.2792 0.2792 ( 11170 PWs)   bands (ev):

   -66.4125 -66.3611 -66.3608 -66.3419 -66.3335 -66.3238 -66.3235 -66.3121
   -66.3023 -66.3022 -66.3020 -66.2963 -66.2956 -66.2807 -66.2804 -66.2403
   -32.7066 -32.6962 -32.6961 -32.6637 -32.6637 -32.6389 -32.6113 -32.6090
   -32.6084 -32.6084 -32.5924 -32.5692 -32.5550 -32.5293 -32.4966 -32.4619
   -32.4598 -32.4594 -32.4482 -32.4480 -32.4229 -32.3963 -32.3961 -32.3946
   -32.3462 -32.3345 -32.3342 -32.3267 -32.3265 -32.3034 -32.3033 -32.2873
   -32.2762 -32.2738 -32.2636 -32.2633 -32.2400 -32.2131 -32.2007 -32.1929
   -32.1928 -32.1895 -32.1894 -32.1661 -32.1660 -32.1640 -32.1471 -32.1444
    12.6966  14.7269  14.7269  15.4888  15.6354  16.0006  16.0006  16.3544
    16.3753  16.3754  16.4305  16.4599  16.7647  16.8206  16.8206  17.1373
    17.3342  17.3720  17.3721  17.5894  17.6036  17.7302  17.7303  17.8176
    17.8312  17.8333  17.8632  17.8632  18.1249  18.1255  18.2062  18.4810
    18.4811  18.5867  18.6334  18.6336  18.7024  18.7076  18.7994  18.8669
    18.9360  18.9360  19.0955  19.0956  19.1692  19.2189  19.2192  19.6709
    20.0308  20.0308  20.0661  20.1968  20.2725  20.2727  20.4186  20.4596
    20.6185  20.6186  20.6240  20.6244  20.6413  20.7212  20.7595  20.7596
    20.7965  21.0120  21.0149  21.0154  21.0436  21.0753  21.0843  21.0846
    21.1017  21.2973  21.2974  21.4108  21.4395  21.5612  21.5613  21.5807
    21.5810  21.6768  21.8560  21.9581  21.9632  22.8450  22.8452  23.8128
    24.6039  24.6041

          k = 0.1675 0.2792 0.3908 ( 11181 PWs)   bands (ev):

   -66.4029 -66.3766 -66.3557 -66.3416 -66.3383 -66.3288 -66.3213 -66.3153
   -66.3019 -66.3017 -66.2997 -66.2966 -66.2909 -66.2831 -66.2675 -66.2473
   -32.6905 -32.6773 -32.6707 -32.6520 -32.6382 -32.6326 -32.6298 -32.6249
   -32.6140 -32.6042 -32.6030 -32.5986 -32.5623 -32.5373 -32.5057 -32.4822
   -32.4785 -32.4413 -32.4316 -32.4265 -32.4225 -32.4129 -32.4124 -32.4106
   -32.3670 -32.3445 -32.3342 -32.3184 -32.3167 -32.3076 -32.3008 -32.2900
   -32.2698 -32.2526 -32.2507 -32.2392 -32.2318 -32.2224 -32.2087 -32.1980
   -32.1891 -32.1880 -32.1809 -32.1715 -32.1703 -32.1700 -32.1498 -32.1473
    13.0775  14.1218  14.9637  15.4488  15.6763  15.9481  16.3056  16.5214
    16.5351  16.5739  16.6181  16.6404  16.7932  16.7936  16.8296  17.0474
    17.0623  17.1002  17.5693  17.5908  17.6691  17.6747  17.7220  17.7629
    17.8454  17.9401  17.9640  18.0204  18.0884  18.2401  18.2842  18.2856
    18.4027  18.4672  18.5229  18.5648  18.5906  18.6157  18.6462  18.6611
    18.7019  18.7174  18.7387  18.7491  18.8448  18.9124  19.4438  19.8881
    20.0879  20.1899  20.2604  20.2621  20.2679  20.3104  20.3303  20.3761
    20.5182  20.5330  20.5334  20.6335  20.6367  20.7290  20.8102  20.8651
    20.9232  20.9417  20.9489  21.0327  21.0741  21.0770  21.1151  21.1326
    21.1382  21.1504  21.1568  21.2644  21.3614  21.4697  21.5898  21.6536
    21.7093  21.7275  21.8624  21.8909  21.9542  22.5140  23.4665  24.1345
    24.6337  24.7617

          k = 0.1675 0.2792-0.5025 ( 11158 PWs)   bands (ev):

   -66.3909 -66.3906 -66.3493 -66.3490 -66.3339 -66.3337 -66.3185 -66.3183
   -66.3017 -66.3015 -66.2980 -66.2977 -66.2866 -66.2864 -66.2565 -66.2563
   -32.6667 -32.6667 -32.6539 -32.6538 -32.6391 -32.6389 -32.6387 -32.6385
   -32.6124 -32.6123 -32.5979 -32.5978 -32.5535 -32.5534 -32.5124 -32.5122
   -32.4513 -32.4512 -32.4288 -32.4287 -32.4214 -32.4213 -32.3997 -32.3996
   -32.3638 -32.3637 -32.3410 -32.3408 -32.3124 -32.3123 -32.2788 -32.2786
   -32.2686 -32.2685 -32.2279 -32.2278 -32.2185 -32.2183 -32.2080 -32.2078
   -32.2038 -32.2036 -32.1776 -32.1776 -32.1580 -32.1579 -32.1556 -32.1555
    13.5604  13.5609  15.2176  15.2179  15.8417  15.8419  16.6702  16.6705
    16.6776  16.6778  16.6933  16.6935  16.7258  16.7260  16.8546  16.8549
    16.8741  16.8744  17.6222  17.6225  17.6964  17.6967  17.8724  17.8726
    17.8899  17.8901  17.9768  17.9770  18.0954  18.0955  18.3335  18.3336
    18.4848  18.4850  18.5047  18.5049  18.5103  18.5104  18.5537  18.5539
    18.6250  18.6250  18.6304  18.6306  18.6961  18.6963  19.7396  19.7396
    20.1237  20.1240  20.2797  20.2799  20.3709  20.3711  20.4158  20.4160
    20.4634  20.4635  20.4706  20.4707  20.8381  20.8383  20.8418  20.8420
    20.8773  20.8775  20.9777  20.9779  21.0677  21.0679  21.0749  21.0751
    21.1650  21.1652  21.2195  21.2196  21.3723  21.3725  21.5417  21.5419
    21.8138  21.8139  21.8689  21.8690  22.1891  22.1893  24.1103  24.1107
    24.4340  24.4343

          k = 0.1675 0.3908 0.3908 ( 11164 PWs)   bands (ev):

   -66.3941 -66.3701 -66.3699 -66.3521 -66.3349 -66.3262 -66.3259 -66.3190
   -66.3006 -66.2999 -66.2996 -66.2972 -66.2832 -66.2716 -66.2713 -66.2534
   -32.6802 -32.6572 -32.6571 -32.6388 -32.6387 -32.6340 -32.6297 -32.6297
   -32.6257 -32.6192 -32.6132 -32.5821 -32.5553 -32.5229 -32.4795 -32.4729
   -32.4727 -32.4593 -32.4589 -32.4401 -32.4373 -32.4371 -32.4365 -32.3987
   -32.3618 -32.3360 -32.3330 -32.3327 -32.3252 -32.3251 -32.3132 -32.2703
   -32.2682 -32.2410 -32.2407 -32.2327 -32.2324 -32.2129 -32.2062 -32.2061
   -32.1954 -32.1875 -32.1875 -32.1864 -32.1572 -32.1572 -32.1465 -32.1452
    13.4405  14.4160  14.4161  15.1188  15.9027  16.2486  16.2487  16.6634
    16.6752  16.7695  16.7696  16.8302  16.8303  16.8422  16.8952  16.9340
    17.0871  17.3242  17.3243  17.5925  17.6575  17.7081  17.7697  17.7697
    17.8016  17.8016  17.9582  17.9590  17.9711  18.0217  18.2461  18.3209
    18.3210  18.3383  18.4114  18.4115  18.4786  18.4786  18.4857  18.5262
    18.5476  18.5863  18.5865  18.6836  18.6843  19.1101  19.1104  19.7183
    20.1403  20.3033  20.3724  20.3725  20.3980  20.4357  20.4360  20.4436
    20.5644  20.6293  20.6491  20.6492  20.6855  20.6858  20.7003  20.7004
    20.8458  20.8751  20.8767  20.9300  20.9602  21.0517  21.0518  21.0802
    21.1082  21.1085  21.1592  21.1691  21.3277  21.3836  21.3839  21.4059
    21.8421  21.8422  21.9047  21.9847  22.2529  23.0552  23.0554  24.1848
    24.5522  25.2787

          k = 0.1675 0.3908-0.5025 ( 11184 PWs)   bands (ev):

   -66.3831 -66.3829 -66.3618 -66.3616 -66.3309 -66.3307 -66.3229 -66.3226
   -66.3002 -66.2999 -66.2983 -66.2981 -66.2768 -66.2766 -66.2616 -66.2614
   -32.6621 -32.6620 -32.6437 -32.6437 -32.6343 -32.6341 -32.6320 -32.6319
   -32.6272 -32.6271 -32.6057 -32.6056 -32.5079 -32.5078 -32.5009 -32.5007
   -32.4628 -32.4627 -32.4571 -32.4569 -32.4440 -32.4439 -32.4103 -32.4102
   -32.3657 -32.3656 -32.3313 -32.3311 -32.3189 -32.3189 -32.2996 -32.2996
   -32.2540 -32.2538 -32.2175 -32.2174 -32.2159 -32.2156 -32.2093 -32.2092
   -32.2074 -32.2073 -32.1865 -32.1864 -32.1491 -32.1490 -32.1483 -32.1482
    13.8957  13.8961  14.7615  14.7618  16.1128  16.1130  16.5912  16.5915
    16.7696  16.7698  16.7741  16.7744  16.9091  16.9093  16.9907  16.9909
    17.0770  17.0772  17.6312  17.6315  17.6920  17.6922  17.6965  17.6967
    17.7024  17.7027  17.8657  17.8658  18.1337  18.1338  18.1504  18.1505
    18.2824  18.2826  18.3436  18.3438  18.3853  18.3855  18.4230  18.4231
    18.5917  18.5919  18.6277  18.6279  18.8071  18.8072  19.3832  19.3832
    20.3429  20.3431  20.4032  20.4034  20.4998  20.5000  20.5352  20.5353
    20.5546  20.5547  20.5563  20.5565  20.6687  20.6689  20.7751  20.7753
    20.7858  20.7860  20.9189  20.9191  20.9543  20.9544  21.0349  21.0350
    21.0926  21.0928  21.1404  21.1405  21.2455  21.2456  21.3865  21.3866
    21.9028  21.9028  21.9432  21.9433  22.6496  22.6499  23.6165  23.6168
    24.9583  24.9586

          k = 0.1675-0.5025-0.5025 ( 11184 PWs)   bands (ev):

   -66.3733 -66.3732 -66.3730 -66.3728 -66.3272 -66.3271 -66.3269 -66.3267
   -66.2991 -66.2990 -66.2988 -66.2986 -66.2685 -66.2685 -66.2683 -66.2680
   -32.6499 -32.6499 -32.6499 -32.6497 -32.6358 -32.6358 -32.6357 -32.6356
   -32.6159 -32.6159 -32.6158 -32.6158 -32.4818 -32.4817 -32.4815 -32.4814
   -32.4599 -32.4599 -32.4598 -32.4597 -32.4595 -32.4594 -32.4589 -32.4589
   -32.3324 -32.3323 -32.3320 -32.3320 -32.3248 -32.3248 -32.3248 -32.3247
   -32.2328 -32.2327 -32.2324 -32.2323 -32.2103 -32.2103 -32.2102 -32.2102
   -32.1977 -32.1976 -32.1975 -32.1975 -32.1458 -32.1458 -32.1458 -32.1457
    14.3071  14.3072  14.3074  14.3077  16.3912  16.3913  16.3915  16.3916
    16.7953  16.7954  16.7955  16.7958  17.0422  17.0424  17.0425  17.0425
    17.3475  17.3476  17.3478  17.3479  17.6272  17.6273  17.6274  17.6274
    17.7768  17.7769  17.7770  17.7770  18.1305  18.1306  18.1306  18.1309
    18.2476  18.2479  18.2479  18.2480  18.3388  18.3390  18.3390  18.3392
    18.5888  18.5889  18.5889  18.5893  19.0648  19.0649  19.0651  19.0651
    20.4828  20.4828  20.4829  20.4832  20.5603  20.5604  20.5604  20.5606
    20.6706  20.6706  20.6708  20.6708  20.6808  20.6809  20.6809  20.6810
    20.7101  20.7106  20.7108  20.7108  20.9016  20.9016  20.9018  20.9020
    21.1163  21.1163  21.1166  21.1167  21.2918  21.2918  21.2920  21.2922
    21.9534  21.9535  21.9536  21.9536  23.1299  23.1304  23.1304  23.1305
    25.4860  25.4863

          k = 0.2792 0.2792 0.2792 ( 11179 PWs)   bands (ev):

   -66.4061 -66.3576 -66.3576 -66.3572 -66.3316 -66.3316 -66.3312 -66.3163
   -66.3001 -66.2965 -66.2965 -66.2961 -66.2821 -66.2821 -66.2817 -66.2446
   -32.6887 -32.6886 -32.6886 -32.6357 -32.6357 -32.6357 -32.6180 -32.6179
   -32.6179 -32.6175 -32.5779 -32.5779 -32.5449 -32.5449 -32.4886 -32.4882
   -32.4882 -32.4614 -32.4614 -32.4614 -32.4312 -32.4196 -32.4193 -32.4193
   -32.3085 -32.3076 -32.3074 -32.3074 -32.3057 -32.3054 -32.3054 -32.2996
   -32.2996 -32.2660 -32.2659 -32.2659 -32.2267 -32.2089 -32.2088 -32.2088
   -32.1823 -32.1823 -32.1822 -32.1639 -32.1638 -32.1638 -32.1573 -32.1573
    12.9539  14.9174  14.9174  14.9175  15.8641  15.8641  15.8641  16.5330
    16.5332  16.5332  16.5624  16.5624  16.9523  16.9524  16.9524  17.1549
    17.3593  17.3595  17.3595  17.4012  17.5885  17.5885  17.7847  17.7848
    17.7848  17.9654  17.9654  17.9923  17.9924  17.9924  18.3364  18.3366
    18.3366  18.4959  18.4959  18.4961  18.6098  18.6099  18.6099  18.6636
    18.6636  18.8178  18.8178  18.8179  18.9452  18.9455  18.9455  19.8858
    20.0764  20.1691  20.1692  20.1692  20.4002  20.4004  20.4004  20.5471
    20.5471  20.5471  20.7162  20.7162  20.7500  20.7501  20.7501  20.8922
    20.8927  20.8927  21.0190  21.0191  21.0192  21.0194  21.0194  21.0483
    21.0483  21.3056  21.3057  21.3057  21.5437  21.5437  21.5438  21.6082
    21.6082  21.6745  21.6748  21.6748  22.4420  22.4423  22.4423  24.7742
    24.9033  24.9033

          k = 0.2792 0.2792 0.3908 ( 11179 PWs)   bands (ev):

   -66.3971 -66.3723 -66.3526 -66.3523 -66.3392 -66.3390 -66.3284 -66.3206
   -66.2985 -66.2968 -66.2916 -66.2913 -66.2844 -66.2842 -66.2699 -66.2510
   -32.6740 -32.6739 -32.6626 -32.6342 -32.6342 -32.6310 -32.6221 -32.6187
   -32.6013 -32.6012 -32.5972 -32.5895 -32.5568 -32.5242 -32.5240 -32.5158
   -32.4974 -32.4644 -32.4644 -32.4506 -32.4434 -32.4406 -32.4405 -32.3997
   -32.3506 -32.3361 -32.3104 -32.3076 -32.2916 -32.2914 -32.2771 -32.2769
   -32.2709 -32.2708 -32.2570 -32.2318 -32.2282 -32.2281 -32.2156 -32.2068
   -32.1880 -32.1768 -32.1744 -32.1743 -32.1681 -32.1647 -32.1646 -32.1557
    13.3264  14.3387  15.1690  15.1690  15.6797  15.6797  16.1887  16.7025
    16.7026  16.7111  16.7298  16.7697  16.9778  16.9779  16.9859  17.0157
    17.1199  17.1459  17.4945  17.4947  17.6171  17.7265  17.7946  17.7959
    17.8497  17.8853  17.8854  18.0691  18.0691  18.1355  18.1811  18.1812
    18.3310  18.3311  18.3926  18.3927  18.4404  18.4453  18.4563  18.4759
    18.5487  18.5520  18.5521  18.6020  18.6799  18.6801  19.1015  19.6979
    20.1298  20.3100  20.3463  20.3463  20.4546  20.4546  20.4959  20.4959
    20.6014  20.6617  20.6659  20.6696  20.6696  20.6959  20.8047  20.8172
    20.9490  20.9600  21.0235  21.0241  21.0259  21.0259  21.0611  21.0612
    21.0826  21.1181  21.2995  21.4240  21.4384  21.4386  21.5821  21.5822
    21.6499  21.6906  21.6907  21.6963  22.0809  22.0811  22.9956  24.1664
    25.2418  25.2418

          k = 0.2792 0.2792-0.5025 ( 11162 PWs)   bands (ev):

   -66.3857 -66.3855 -66.3466 -66.3463 -66.3461 -66.3459 -66.3248 -66.3245
   -66.2975 -66.2972 -66.2879 -66.2875 -66.2873 -66.2871 -66.2596 -66.2594
   -32.6545 -32.6544 -32.6544 -32.6544 -32.6292 -32.6290 -32.6263 -32.6262
   -32.6113 -32.6112 -32.5632 -32.5631 -32.5629 -32.5627 -32.5297 -32.5295
   -32.4834 -32.4832 -32.4566 -32.4565 -32.4565 -32.4564 -32.3965 -32.3964
   -32.3678 -32.3677 -32.3112 -32.3110 -32.2796 -32.2794 -32.2794 -32.2792
   -32.2512 -32.2511 -32.2508 -32.2506 -32.2194 -32.2191 -32.2089 -32.2087
   -32.2018 -32.2016 -32.1684 -32.1683 -32.1683 -32.1682 -32.1592 -32.1592
    13.7964  13.7968  15.4388  15.4388  15.4391  15.4391  16.5846  16.5849
    16.8640  16.8641  16.8642  16.8644  16.8908  16.8910  16.8998  16.9002
    17.0085  17.0087  17.6668  17.6670  17.7546  17.7548  17.7921  17.7922
    17.7924  17.7926  18.0229  18.0229  18.0232  18.0234  18.0969  18.0970
    18.3120  18.3121  18.4015  18.4018  18.4019  18.4020  18.4465  18.4467
    18.4468  18.4469  18.4756  18.4758  18.5274  18.5276  19.3603  19.3604
    20.3925  20.3928  20.4610  20.4613  20.4710  20.4712  20.4713  20.4713
    20.5234  20.5234  20.5235  20.5236  20.8394  20.8396  20.8741  20.8743
    20.9373  20.9375  20.9740  20.9742  21.0254  21.0256  21.0625  21.0626
    21.0627  21.0628  21.2389  21.2390  21.6479  21.6479  21.6479  21.6481
    21.7066  21.7066  21.7379  21.7383  21.7384  21.7384  23.5751  23.5754
    25.5155  25.5156

          k = 0.2792 0.3908 0.3908 ( 11176 PWs)   bands (ev):

   -66.3888 -66.3661 -66.3658 -66.3490 -66.3478 -66.3356 -66.3354 -66.3259
   -66.2959 -66.2925 -66.2923 -66.2862 -66.2843 -66.2736 -66.2733 -66.2567
   -32.6630 -32.6502 -32.6502 -32.6331 -32.6302 -32.6302 -32.6168 -32.6055
   -32.6054 -32.6037 -32.5944 -32.5638 -32.5532 -32.5492 -32.5255 -32.4996
   -32.4995 -32.4818 -32.4815 -32.4809 -32.4724 -32.4723 -32.4674 -32.3918
   -32.3674 -32.3055 -32.3053 -32.2923 -32.2922 -32.2916 -32.2736 -32.2683
   -32.2543 -32.2510 -32.2418 -32.2378 -32.2376 -32.2190 -32.2188 -32.2123
   -32.1867 -32.1863 -32.1863 -32.1784 -32.1652 -32.1652 -32.1622 -32.1591
    13.6846  14.6397  14.6398  15.3537  15.4438  16.0045  16.0045  16.7738
    16.8269  16.8485  16.9161  16.9415  16.9416  17.0196  17.0197  17.1674
    17.2287  17.3159  17.3160  17.4460  17.6913  17.7621  17.7630  17.8167
    17.8167  17.8737  17.8737  17.9526  17.9667  18.0625  18.0662  18.2339
    18.2389  18.2390  18.2443  18.2443  18.2525  18.2526  18.2871  18.3839
    18.3841  18.4162  18.4286  18.4596  18.5099  18.7770  18.7773  19.3218
    20.4044  20.4548  20.4549  20.4736  20.5199  20.5908  20.6374  20.6652
    20.6654  20.6737  20.6748  20.6749  20.7350  20.7351  20.8018  20.8987
    20.9395  20.9433  20.9436  20.9578  21.0082  21.0205  21.0207  21.0732
    21.0811  21.0813  21.1356  21.1833  21.4426  21.4428  21.4772  21.6592
    21.6593  21.6616  21.7072  21.7266  21.7782  22.5711  22.5713  23.6168
    25.6685  26.2414

          k = 0.2792 0.3908-0.5025 ( 11206 PWs)   bands (ev):

   -66.3784 -66.3781 -66.3582 -66.3580 -66.3422 -66.3420 -66.3311 -66.3309
   -66.2940 -66.2938 -66.2891 -66.2888 -66.2784 -66.2782 -66.2643 -66.2641
   -32.6470 -32.6469 -32.6390 -32.6389 -32.6216 -32.6214 -32.6191 -32.6190
   -32.6109 -32.6108 -32.5773 -32.5772 -32.5303 -32.5301 -32.5231 -32.5230
   -32.5037 -32.5036 -32.4883 -32.4882 -32.4841 -32.4840 -32.4367 -32.4366
   -32.3358 -32.3357 -32.2915 -32.2914 -32.2804 -32.2803 -32.2770 -32.2769
   -32.2503 -32.2502 -32.2348 -32.2347 -32.2135 -32.2134 -32.2133 -32.2133
   -32.2091 -32.2089 -32.1830 -32.1829 -32.1629 -32.1628 -32.1605 -32.1604
    14.1319  14.1323  14.9924  14.9928  15.7423  15.7426  16.3907  16.3910
    16.9439  16.9442  16.9577  16.9580  17.1086  17.1088  17.1231  17.1233
    17.1694  17.1696  17.6245  17.6247  17.6513  17.6516  17.7318  17.7320
    17.7481  17.7483  17.9359  17.9361  17.9574  17.9575  18.0894  18.0896
    18.1447  18.1449  18.1657  18.1659  18.2847  18.2849  18.3242  18.3244
    18.3618  18.3620  18.4356  18.4358  18.4988  18.4989  18.9995  18.9996
    20.5641  20.5643  20.5891  20.5893  20.5922  20.5924  20.6125  20.6127
    20.6532  20.6534  20.6974  20.6976  20.8164  20.8166  20.8324  20.8326
    20.8916  20.8918  20.9233  20.9235  20.9596  20.9598  21.0138  21.0140
    21.0481  21.0483  21.2510  21.2511  21.3599  21.3602  21.4426  21.4427
    21.6836  21.6836  21.7051  21.7052  22.1667  22.1670  23.0872  23.0875
    26.0546  26.0549

          k = 0.2792-0.5025-0.5025 ( 11224 PWs)   bands (ev):

   -66.3692 -66.3691 -66.3689 -66.3687 -66.3371 -66.3370 -66.3368 -66.3366
   -66.2913 -66.2912 -66.2910 -66.2908 -66.2707 -66.2707 -66.2705 -66.2702
   -32.6336 -32.6336 -32.6336 -32.6334 -32.6250 -32.6250 -32.6249 -32.6248
   -32.5937 -32.5937 -32.5936 -32.5936 -32.5144 -32.5144 -32.5142 -32.5142
   -32.5034 -32.5034 -32.5034 -32.5032 -32.4801 -32.4800 -32.4797 -32.4797
   -32.3056 -32.3055 -32.3053 -32.3053 -32.2828 -32.2828 -32.2827 -32.2826
   -32.2264 -32.2263 -32.2261 -32.2259 -32.2221 -32.2220 -32.2219 -32.2218
   -32.1998 -32.1997 -32.1997 -32.1996 -32.1610 -32.1610 -32.1609 -32.1608
    14.5422  14.5424  14.5426  14.5428  16.0842  16.0843  16.0845  16.0846
    16.9750  16.9751  16.9752  16.9754  17.2800  17.2802  17.2803  17.2803
    17.3820  17.3821  17.3823  17.3823  17.5822  17.5822  17.5823  17.5824
    17.8472  17.8473  17.8474  17.8474  17.9886  17.9887  17.9887  17.9890
    18.1661  18.1662  18.1662  18.1664  18.1873  18.1876  18.1876  18.1876
    18.3786  18.3787  18.3787  18.3791  18.6965  18.6967  18.6968  18.6968
    20.6246  20.6246  20.6247  20.6249  20.7179  20.7179  20.7181  20.7181
    20.7576  20.7576  20.7577  20.7580  20.7804  20.7805  20.7806  20.7807
    20.8837  20.8838  20.8839  20.8841  21.0196  21.0201  21.0202  21.0202
    21.0292  21.0292  21.0295  21.0296  21.3051  21.3051  21.3053  21.3055
    21.7086  21.7087  21.7087  21.7087  22.6204  22.6209  22.6209  22.6210
    26.5897  26.5899

          k = 0.3908 0.3908 0.3908 ( 11200 PWs)   bands (ev):

   -66.3811 -66.3603 -66.3603 -66.3599 -66.3447 -66.3447 -66.3443 -66.3327
   -66.2919 -66.2862 -66.2862 -66.2858 -66.2767 -66.2767 -66.2763 -66.2617
   -32.6379 -32.6379 -32.6379 -32.6235 -32.6234 -32.6234 -32.6040 -32.5815
   -32.5815 -32.5758 -32.5756 -32.5756 -32.5681 -32.5681 -32.5190 -32.5189
   -32.5189 -32.5110 -32.5106 -32.5106 -32.5022 -32.5021 -32.5021 -32.4293
   -32.3361 -32.2791 -32.2787 -32.2787 -32.2648 -32.2646 -32.2646 -32.2512
   -32.2512 -32.2380 -32.2379 -32.2379 -32.2354 -32.2352 -32.2352 -32.2158
   -32.1855 -32.1854 -32.1854 -32.1797 -32.1797 -32.1748 -32.1748 -32.1748
    14.0342  14.9510  14.9510  14.9511  15.6850  15.6850  15.6850  16.4792
    17.0211  17.0211  17.1004  17.1005  17.1005  17.2756  17.2757  17.2757
    17.2953  17.2954  17.2954  17.3930  17.7473  17.7473  17.8227  17.8227
    17.8952  17.8953  17.8953  17.9218  17.9219  17.9219  18.0096  18.0097
    18.0097  18.1368  18.1368  18.1370  18.1625  18.1627  18.1627  18.1973
    18.1973  18.1975  18.3506  18.3506  18.4579  18.4582  18.4582  18.9425
    20.5643  20.5644  20.5644  20.7073  20.7363  20.7363  20.7364  20.7374
    20.7374  20.7435  20.7436  20.7436  20.8046  20.8048  20.8048  20.9213
    20.9213  20.9513  20.9516  20.9516  20.9698  20.9699  20.9699  21.0542
    21.0542  21.3683  21.3683  21.3823  21.3826  21.3826  21.4592  21.4594
    21.4594  21.5075  21.5075  21.5077  22.1496  22.1499  22.1499  23.1048
    26.9235  26.9236

          k = 0.3908 0.3908-0.5025 ( 11202 PWs)   bands (ev):

   -66.3715 -66.3713 -66.3533 -66.3530 -66.3528 -66.3526 -66.3391 -66.3389
   -66.2887 -66.2884 -66.2812 -66.2808 -66.2806 -66.2805 -66.2684 -66.2682
   -32.6263 -32.6262 -32.6262 -32.6261 -32.6059 -32.6056 -32.6055 -32.6054
   -32.5899 -32.5898 -32.5528 -32.5526 -32.5436 -32.5434 -32.5432 -32.5430
   -32.5367 -32.5365 -32.5202 -32.5202 -32.5201 -32.5201 -32.4699 -32.4699
   -32.3063 -32.3062 -32.2589 -32.2588 -32.2556 -32.2555 -32.2552 -32.2550
   -32.2458 -32.2458 -32.2457 -32.2457 -32.2232 -32.2231 -32.2154 -32.2152
   -32.2063 -32.2060 -32.1825 -32.1825 -32.1825 -32.1824 -32.1753 -32.1752
    14.4669  14.4672  15.3157  15.3157  15.3160  15.3161  16.0800  16.0804
    17.1503  17.1506  17.2029  17.2031  17.2189  17.2189  17.2190  17.2192
    17.3653  17.3655  17.5989  17.5990  17.5992  17.5994  17.7770  17.7772
    17.8184  17.8187  17.8778  17.8780  17.8972  17.8974  18.0121  18.0121
    18.0124  18.0126  18.1293  18.1296  18.1297  18.1298  18.1917  18.1920
    18.1921  18.1921  18.2397  18.2399  18.2597  18.2600  18.6300  18.6301
    20.6559  20.6561  20.6759  20.6759  20.6761  20.6761  20.8077  20.8078
    20.8078  20.8079  20.8293  20.8295  20.8533  20.8535  20.9197  20.9199
    20.9393  20.9395  20.9444  20.9444  20.9446  20.9446  21.0321  21.0323
    21.0717  21.0719  21.2287  21.2288  21.4556  21.4557  21.4557  21.4559
    21.4755  21.4756  21.7568  21.7573  21.7573  21.7574  22.6190  22.6193
    27.2360  27.2363

          k = 0.3908-0.5025-0.5025 ( 11228 PWs)   bands (ev):

   -66.3631 -66.3630 -66.3628 -66.3626 -66.3467 -66.3467 -66.3465 -66.3463
   -66.2844 -66.2844 -66.2842 -66.2839 -66.2740 -66.2739 -66.2737 -66.2735
   -32.6095 -32.6095 -32.6095 -32.6094 -32.6060 -32.6060 -32.6059 -32.6058
   -32.5670 -32.5669 -32.5668 -32.5668 -32.5481 -32.5481 -32.5479 -32.5479
   -32.5436 -32.5436 -32.5436 -32.5434 -32.5068 -32.5068 -32.5065 -32.5065
   -32.2791 -32.2790 -32.2788 -32.2788 -32.2446 -32.2446 -32.2446 -32.2444
   -32.2373 -32.2373 -32.2371 -32.2371 -32.2186 -32.2185 -32.2184 -32.2183
   -32.2045 -32.2045 -32.2044 -32.2043 -32.1828 -32.1828 -32.1828 -32.1826
    14.8743  14.8745  14.8746  14.8749  15.6969  15.6971  15.6972  15.6974
    17.2194  17.2195  17.2196  17.2198  17.4283  17.4284  17.4286  17.4286
    17.5164  17.5165  17.5166  17.5167  17.5331  17.5332  17.5333  17.5334
    17.9289  17.9291  17.9291  17.9292  17.9467  17.9469  17.9469  17.9470
    17.9481  17.9482  17.9482  17.9485  18.1075  18.1078  18.1078  18.1078
    18.1734  18.1735  18.1735  18.1738  18.3267  18.3269  18.3270  18.3270
    20.7125  20.7125  20.7126  20.7129  20.7692  20.7692  20.7694  20.7695
    20.8556  20.8557  20.8559  20.8560  20.9263  20.9263  20.9265  20.9267
    20.9431  20.9432  20.9432  20.9433  20.9927  20.9928  20.9928  20.9931
    21.2674  21.2674  21.2676  21.2678  21.3842  21.3848  21.3848  21.3848
    21.4303  21.4305  21.4305  21.4305  22.1792  22.1797  22.1797  22.1798
    27.7940  27.7942

          k =-0.5025-0.5025-0.5025 ( 11152 PWs)   bands (ev):

   -66.3556 -66.3556 -66.3556 -66.3551 -66.3550 -66.3550 -66.3548 -66.3547
   -66.2789 -66.2788 -66.2788 -66.2783 -66.2783 -66.2783 -66.2780 -66.2780
   -32.5797 -32.5797 -32.5797 -32.5796 -32.5796 -32.5795 -32.5794 -32.5794
   -32.5792 -32.5792 -32.5792 -32.5791 -32.5791 -32.5791 -32.5790 -32.5790
   -32.5368 -32.5365 -32.5365 -32.5364 -32.5364 -32.5360 -32.5360 -32.5360
   -32.2568 -32.2565 -32.2564 -32.2564 -32.2564 -32.2560 -32.2560 -32.2560
   -32.2109 -32.2109 -32.2109 -32.2106 -32.2106 -32.2106 -32.2106 -32.2106
   -32.2104 -32.2104 -32.2104 -32.2102 -32.2102 -32.2102 -32.2101 -32.2101
    15.2742  15.2744  15.2744  15.2745  15.2746  15.2747  15.2747  15.2750
    17.4804  17.4804  17.4804  17.4805  17.4805  17.4806  17.4806  17.4806
    17.4807  17.4807  17.4807  17.4808  17.4808  17.4809  17.4812  17.4812
    18.0027  18.0034  18.0034  18.0034  18.0035  18.0036  18.0036  18.0036
    18.0183  18.0183  18.0185  18.0185  18.0185  18.0187  18.0188  18.0188
    18.0188  18.0188  18.0188  18.0189  18.0189  18.0189  18.0192  18.0192
    20.8168  20.8168  20.8168  20.8169  20.8169  20.8169  20.8173  20.8173
    20.8173  20.8173  20.8174  20.8174  20.8175  20.8175  20.8176  20.8176
    21.1646  21.1646  21.1646  21.1647  21.1647  21.1649  21.1649  21.1649
    21.1650  21.1650  21.1650  21.1652  21.1652  21.1652  21.1654  21.1654
    21.7723  21.7734  21.7734  21.7734  21.7734  21.7734  21.7734  21.7735
    28.9735  28.9736

     the Fermi energy is    20.8850 ev

!    total energy              =   -5267.69883445 Ry
     Harris-Foulkes estimate   =   -5267.69886886 Ry
     estimated scf accuracy    <       0.00004528 Ry

     total all-electron energy =    -40728.443363 Ry

     The total energy is the sum of the following terms:

     one-electron contribution =   -1597.65512355 Ry
     hartree contribution      =     981.44315988 Ry
     xc contribution           =    -443.23091160 Ry
     ewald contribution        =   -2883.36709138 Ry
     one-center paw contrib.   =   -1324.76245126 Ry
     smearing contrib. (-TS)   =      -0.12641654 Ry

     convergence has been achieved in  10 iterations

     Forces acting on atoms (cartesian axes, Ry/au):

     atom    1 type  1   force =     0.00000000    0.00000000    0.00000000
     atom    2 type  1   force =     0.00008395    0.00008395    0.00008395
     atom    3 type  1   force =     0.00000000    0.00000000    0.00000000
     atom    4 type  1   force =     0.00008395    0.00008395   -0.00008395
     atom    5 type  1   force =     0.00000000    0.00000000   -0.00000000
     atom    6 type  1   force =     0.00008395   -0.00008395    0.00008395
     atom    7 type  1   force =     0.00000000    0.00000000    0.00000000
     atom    8 type  1   force =     0.00008395   -0.00008395   -0.00008395
     atom    9 type  1   force =     0.00000000    0.00000000   -0.00000000
     atom   10 type  1   force =    -0.00008395    0.00008395    0.00008395
     atom   11 type  1   force =     0.00000000   -0.00000000    0.00000000
     atom   12 type  1   force =    -0.00008395    0.00008395   -0.00008395
     atom   13 type  1   force =     0.00000000    0.00000000    0.00000000
     atom   14 type  1   force =    -0.00008395   -0.00008395    0.00008395
     atom   15 type  1   force =     0.00000000    0.00000000    0.00000000
     atom   16 type  1   force =    -0.00008395   -0.00008395   -0.00008395

     Total force =     0.000411     Total SCF correction =     0.000788
     SCF correction compared to forces is large: reduce conv_thr to get better values


     Computing stress (Cartesian axis) and pressure

          total   stress  (Ry/bohr**3)                   (kbar)     P=   89.36
   0.00060747   0.00000000   0.00000000         89.36      0.00      0.00
   0.00000000   0.00060747   0.00000000          0.00     89.36      0.00
   0.00000000   0.00000000   0.00060747          0.00      0.00     89.36


     Writing output data file dpxIljmGVWbfCRgG.save/
 
     init_run     :      3.01s CPU      3.23s WALL (       1 calls)
     electrons    :    111.84s CPU    115.48s WALL (       1 calls)
     forces       :      1.07s CPU      1.17s WALL (       1 calls)
     stress       :      2.87s CPU      2.92s WALL (       1 calls)

     Called by init_run:
     wfcinit      :      2.78s CPU      2.90s WALL (       1 calls)
     potinit      :      0.08s CPU      0.11s WALL (       1 calls)
     hinit0       :      0.06s CPU      0.08s WALL (       1 calls)

     Called by electrons:
     c_bands      :    100.51s CPU    103.45s WALL (      11 calls)
     sum_band     :     10.37s CPU     10.91s WALL (      11 calls)
     v_of_rho     :      0.08s CPU      0.13s WALL (      11 calls)
     newd         :      0.16s CPU      0.19s WALL (      11 calls)
     PAW_pot      :      0.76s CPU      0.82s WALL (      11 calls)
     mix_rho      :      0.03s CPU      0.04s WALL (      11 calls)

     Called by c_bands:
     init_us_2    :      0.56s CPU      0.57s WALL (     875 calls)
     cegterg      :     97.91s CPU    100.82s WALL (     385 calls)

     Called by sum_band:
     sum_band:bec :      0.16s CPU      0.16s WALL (     385 calls)
     addusdens    :      0.15s CPU      0.19s WALL (      11 calls)

     Called by *egterg:
     h_psi        :     41.47s CPU     43.30s WALL (    1329 calls)
     s_psi        :      2.26s CPU      2.28s WALL (    1329 calls)
     g_psi        :      0.09s CPU      0.09s WALL (     909 calls)
     cdiaghg      :     45.65s CPU     45.79s WALL (    1259 calls)

     Called by h_psi:
     h_psi:pot    :     41.24s CPU     43.07s WALL (    1329 calls)
     h_psi:calbec :      3.38s CPU      3.99s WALL (    1329 calls)
     vloc_psi     :     35.56s CPU     36.76s WALL (    1329 calls)
     add_vuspsi   :      2.29s CPU      2.31s WALL (    1329 calls)

     General routines
     calbec       :      5.59s CPU      6.52s WALL (    1889 calls)
     fft          :      0.09s CPU      0.18s WALL (     168 calls)
     ffts         :      0.01s CPU      0.03s WALL (      22 calls)
     fftw         :     41.15s CPU     42.52s WALL (  327684 calls)
     interpolate  :      0.01s CPU      0.02s WALL (      11 calls)
 
     Parallel routines
     fft_scatt_xy :      2.88s CPU      2.97s WALL (  327874 calls)
     fft_scatt_yz :     27.14s CPU     28.14s WALL (  327874 calls)
 
     PWSCF        :  2m 1.71s CPU     2m 9.18s WALL

 
   This run was terminated on:   6: 9:14   5Sep2020            

=------------------------------------------------------------------------------=
   JOB DONE.
=------------------------------------------------------------------------------=
