--------------------------------------------------------------------------
WARNING: There was an error initializing an OpenFabrics device.

  Local host:   bear-pg0211u07b
  Local device: mlx5_0
--------------------------------------------------------------------------

     Program PWSCF v.6.3 starts on  5Sep2020 at  6:20:17 

     This program is part of the open-source Quantum ESPRESSO suite
     for quantum simulation of materials; please cite
         "P. Giannozzi et al., J. Phys.:Condens. Matter 21 395502 (2009);
         "P. Giannozzi et al., J. Phys.:Condens. Matter 29 465901 (2017);
          URL http://www.quantum-espresso.org", 
     in publications or presentations arising from this work. More details at
     http://www.quantum-espresso.org/quote

     Parallel version (MPI & OpenMP), running on      40 processor cores
     Number of MPI processes:                40
     Threads/MPI process:                     1

     MPI processes distributed on     1 nodes
     R & G space division:  proc/nbgrp/npool/nimage =      40
     Reading input from wd/eos/eos_007.in
Warning: card &IONS ignored
Warning: card ION_DYNAMICS = 'BFGS', ignored
Warning: card / ignored
Warning: card &CELL ignored
Warning: card CELL_DYNAMICS = 'BFGS', ignored
Warning: card CELL_FACTOR = 2.0, ignored
Warning: card PRESS = 0.0, ignored
Warning: card / ignored

     Current dimensions of program PWSCF are:
     Max number of different atomic species (ntypx) = 10
     Max number of k-points (npk) =  40000
     Max angular momentum in pseudopotentials (lmaxx) =  3
               file Fe.pbe-spn-kjpaw_psl.1.0.0.UPF: wavefunction(s)  3P 3D renormalized

     Subspace diagonalization in iterative solution of the eigenvalue problem:
     a serial algorithm will be used

 
     Parallelization info
     --------------------
     sticks:   dense  smooth     PW     G-vecs:    dense   smooth      PW
     Min          92      61     17                 4260     2283     339
     Max          93      62     18                 4267     2288     343
     Sum        3713    2449    681               170589    91383   13613
 


     bravais-lattice index     =            0
     lattice parameter (alat)  =      10.3915  a.u.
     unit-cell volume          =    1130.5341 (a.u.)^3
     number of atoms/cell      =           16
     number of atomic types    =            1
     number of electrons       =       256.00
     number of Kohn-Sham states=          154
     kinetic-energy cutoff     =      71.0000  Ry
     charge density cutoff     =     430.0000  Ry
     convergence threshold     =      5.0E-05
     mixing beta               =       0.1000
     number of iterations used =           10  plain     mixing
     Exchange-correlation      = SLA PW PBX PBC ( 1  4  3  4 0 0)

     celldm(1)=  10.391466  celldm(2)=   0.000000  celldm(3)=   0.000000
     celldm(4)=   0.000000  celldm(5)=   0.000000  celldm(6)=   0.000000

     crystal axes: (cart. coord. in units of alat)
               a(1) = (   1.002500   0.000000   0.000000 )  
               a(2) = (   0.000000   1.002500   0.000000 )  
               a(3) = (   0.000000   0.000000   1.002500 )  

     reciprocal axes: (cart. coord. in units 2 pi/alat)
               b(1) = (  0.997506  0.000000  0.000000 )  
               b(2) = (  0.000000  0.997506  0.000000 )  
               b(3) = (  0.000000  0.000000  0.997506 )  


     PseudoPot. # 1 for Fe read from file:
     /rds/homes/b/bxp912/pp/Fe.pbe-spn-kjpaw_psl.1.0.0.UPF
     MD5 check sum: 42f43b795421b414b0dc916aa790dbcb
     Pseudo is Projector augmented-wave + core cor, Zval = 16.0
     Generated using "atomic" code by A. Dal Corso v.6.3
     Shape of augmentation charge: PSQ
     Using radial grid of 1191 points,  6 beta functions with: 
                l(1) =   0
                l(2) =   0
                l(3) =   1
                l(4) =   1
                l(5) =   2
                l(6) =   2
     Q(r) pseudized with 0 coefficients 


     atomic species   valence    mass     pseudopotential
        Fe            16.00    55.84500     Fe( 1.00)

     48 Sym. Ops., with inversion, found



   Cartesian axes

     site n.     atom                  positions (alat units)
         1           Fe  tau(   1) = (   0.0000000   0.0000000   0.0000000  )
         2           Fe  tau(   2) = (   0.2506339   0.2506339   0.2506339  )
         3           Fe  tau(   3) = (   0.0000000   0.0000000   0.5012495  )
         4           Fe  tau(   4) = (   0.2506339   0.2506339   0.7518661  )
         5           Fe  tau(   5) = (   0.0000000   0.5012501   0.0000000  )
         6           Fe  tau(   6) = (   0.2506339   0.7518662   0.2506339  )
         7           Fe  tau(   7) = (   0.0000000   0.5012501   0.5012495  )
         8           Fe  tau(   8) = (   0.2506339   0.7518662   0.7518661  )
         9           Fe  tau(   9) = (   0.5012501   0.0000000   0.0000000  )
        10           Fe  tau(  10) = (   0.7518662   0.2506339   0.2506339  )
        11           Fe  tau(  11) = (   0.5012501   0.0000000   0.5012495  )
        12           Fe  tau(  12) = (   0.7518662   0.2506339   0.7518661  )
        13           Fe  tau(  13) = (   0.5012501   0.5012501   0.0000000  )
        14           Fe  tau(  14) = (   0.7518662   0.7518662   0.2506339  )
        15           Fe  tau(  15) = (   0.5012501   0.5012501   0.5012495  )
        16           Fe  tau(  16) = (   0.7518662   0.7518662   0.7518661  )

     number of k points=    35  Marzari-Vanderbilt smearing, width (Ry)=  0.0400
                       cart. coord. in units 2pi/alat
        k(    1) = (   0.0554170   0.0554170   0.0554170), wk =   0.0219479
        k(    2) = (   0.0554170   0.0554170   0.1662510), wk =   0.0658436
        k(    3) = (   0.0554170   0.0554170   0.2770851), wk =   0.0658436
        k(    4) = (   0.0554170   0.0554170   0.3879191), wk =   0.0658436
        k(    5) = (   0.0554170   0.0554170  -0.4987531), wk =   0.0329218
        k(    6) = (   0.0554170   0.1662510   0.1662510), wk =   0.0658436
        k(    7) = (   0.0554170   0.1662510   0.2770851), wk =   0.1316872
        k(    8) = (   0.0554170   0.1662510   0.3879191), wk =   0.1316872
        k(    9) = (   0.0554170   0.1662510  -0.4987531), wk =   0.0658436
        k(   10) = (   0.0554170   0.2770851   0.2770851), wk =   0.0658436
        k(   11) = (   0.0554170   0.2770851   0.3879191), wk =   0.1316872
        k(   12) = (   0.0554170   0.2770851  -0.4987531), wk =   0.0658436
        k(   13) = (   0.0554170   0.3879191   0.3879191), wk =   0.0658436
        k(   14) = (   0.0554170   0.3879191  -0.4987531), wk =   0.0658436
        k(   15) = (   0.0554170  -0.4987531  -0.4987531), wk =   0.0164609
        k(   16) = (   0.1662510   0.1662510   0.1662510), wk =   0.0219479
        k(   17) = (   0.1662510   0.1662510   0.2770851), wk =   0.0658436
        k(   18) = (   0.1662510   0.1662510   0.3879191), wk =   0.0658436
        k(   19) = (   0.1662510   0.1662510  -0.4987531), wk =   0.0329218
        k(   20) = (   0.1662510   0.2770851   0.2770851), wk =   0.0658436
        k(   21) = (   0.1662510   0.2770851   0.3879191), wk =   0.1316872
        k(   22) = (   0.1662510   0.2770851  -0.4987531), wk =   0.0658436
        k(   23) = (   0.1662510   0.3879191   0.3879191), wk =   0.0658436
        k(   24) = (   0.1662510   0.3879191  -0.4987531), wk =   0.0658436
        k(   25) = (   0.1662510  -0.4987531  -0.4987531), wk =   0.0164609
        k(   26) = (   0.2770851   0.2770851   0.2770851), wk =   0.0219479
        k(   27) = (   0.2770851   0.2770851   0.3879191), wk =   0.0658436
        k(   28) = (   0.2770851   0.2770851  -0.4987531), wk =   0.0329218
        k(   29) = (   0.2770851   0.3879191   0.3879191), wk =   0.0658436
        k(   30) = (   0.2770851   0.3879191  -0.4987531), wk =   0.0658436
        k(   31) = (   0.2770851  -0.4987531  -0.4987531), wk =   0.0164609
        k(   32) = (   0.3879191   0.3879191   0.3879191), wk =   0.0219479
        k(   33) = (   0.3879191   0.3879191  -0.4987531), wk =   0.0329218
        k(   34) = (   0.3879191  -0.4987531  -0.4987531), wk =   0.0164609
        k(   35) = (  -0.4987531  -0.4987531  -0.4987531), wk =   0.0027435

     Dense  grid:   170589 G-vectors     FFT dimensions: (  72,  72,  72)

     Smooth grid:    91383 G-vectors     FFT dimensions: (  60,  60,  60)

     Estimated max dynamical RAM per process >      56.92 MB

     Estimated total dynamical RAM >       2.22 GB

     Check: negative/imaginary core charge=   -0.000006    0.000000

     Initial potential from superposition of free atoms

     starting charge  255.99300, renormalised to  256.00000
     Starting wfcs are  160 randomized atomic wfcs
     Checking if some PAW data can be deallocated... 

     total cpu time spent up to now is        4.1 secs

     Self-consistent Calculation

     iteration #  1     ecut=    71.00 Ry     beta= 0.10
     Davidson diagonalization with overlap
     ethr =  1.00E-02,  avg # of iterations =  3.4

     Threshold (ethr) on eigenvalues was too large:
     Diagonalizing with lowered threshold

     Davidson diagonalization with overlap
     ethr =  2.52E-04,  avg # of iterations =  3.0

     total cpu time spent up to now is       29.2 secs

     total energy              =   -5267.75295075 Ry
     Harris-Foulkes estimate   =   -5267.86725514 Ry
     estimated scf accuracy    <       0.72460092 Ry

     iteration #  2     ecut=    71.00 Ry     beta= 0.10
     Davidson diagonalization with overlap
     ethr =  2.83E-04,  avg # of iterations =  1.0

     total cpu time spent up to now is       37.0 secs

     total energy              =   -5267.62013700 Ry
     Harris-Foulkes estimate   =   -5267.76807223 Ry
     estimated scf accuracy    <       0.35806795 Ry

     iteration #  3     ecut=    71.00 Ry     beta= 0.10
     Davidson diagonalization with overlap
     ethr =  1.40E-04,  avg # of iterations =  3.2

     total cpu time spent up to now is       51.2 secs

     total energy              =   -5267.70268870 Ry
     Harris-Foulkes estimate   =   -5267.72273867 Ry
     estimated scf accuracy    <       0.46265546 Ry

     iteration #  4     ecut=    71.00 Ry     beta= 0.10
     Davidson diagonalization with overlap
     ethr =  1.40E-04,  avg # of iterations =  1.0

     total cpu time spent up to now is       59.0 secs

     total energy              =   -5267.70709711 Ry
     Harris-Foulkes estimate   =   -5267.71321976 Ry
     estimated scf accuracy    <       0.02940137 Ry

     iteration #  5     ecut=    71.00 Ry     beta= 0.10
     Davidson diagonalization with overlap
     ethr =  1.15E-05,  avg # of iterations =  2.1

     total cpu time spent up to now is       68.9 secs

     total energy              =   -5267.70739998 Ry
     Harris-Foulkes estimate   =   -5267.70935387 Ry
     estimated scf accuracy    <       0.02094176 Ry

     iteration #  6     ecut=    71.00 Ry     beta= 0.10
     Davidson diagonalization with overlap
     ethr =  8.18E-06,  avg # of iterations =  2.7

     total cpu time spent up to now is       79.9 secs

     total energy              =   -5267.70994717 Ry
     Harris-Foulkes estimate   =   -5267.70924737 Ry
     estimated scf accuracy    <       0.01080830 Ry

     iteration #  7     ecut=    71.00 Ry     beta= 0.10
     Davidson diagonalization with overlap
     ethr =  4.22E-06,  avg # of iterations =  2.4

     total cpu time spent up to now is       90.1 secs

     total energy              =   -5267.70887607 Ry
     Harris-Foulkes estimate   =   -5267.71046328 Ry
     estimated scf accuracy    <       0.01305628 Ry

     iteration #  8     ecut=    71.00 Ry     beta= 0.10
     Davidson diagonalization with overlap
     ethr =  4.22E-06,  avg # of iterations =  2.1

     total cpu time spent up to now is       99.7 secs

     total energy              =   -5267.70931459 Ry
     Harris-Foulkes estimate   =   -5267.70970454 Ry
     estimated scf accuracy    <       0.00700158 Ry

     iteration #  9     ecut=    71.00 Ry     beta= 0.10
     Davidson diagonalization with overlap
     ethr =  2.73E-06,  avg # of iterations =  2.1

     total cpu time spent up to now is      109.2 secs

     total energy              =   -5267.70960453 Ry
     Harris-Foulkes estimate   =   -5267.70962390 Ry
     estimated scf accuracy    <       0.00036346 Ry

     iteration # 10     ecut=    71.00 Ry     beta= 0.10
     Davidson diagonalization with overlap
     ethr =  1.42E-07,  avg # of iterations =  3.1

     total cpu time spent up to now is      120.9 secs

     End of self-consistent calculation

          k = 0.0554 0.0554 0.0554 ( 11390 PWs)   bands (ev):

   -66.9582 -66.8617 -66.8617 -66.8613 -66.8457 -66.8457 -66.8454 -66.8446
   -66.8446 -66.8441 -66.8439 -66.8439 -66.8436 -66.8370 -66.8366 -66.7625
   -33.2491 -33.2491 -33.2491 -33.2461 -33.2461 -33.2460 -33.0853 -33.0853
   -33.0793 -33.0103 -33.0075 -33.0072 -33.0072 -32.9864 -32.9864 -32.9731
   -32.9726 -32.9726 -32.9366 -32.9366 -32.9122 -32.8967 -32.8966 -32.8966
   -32.8855 -32.8854 -32.8854 -32.8727 -32.8722 -32.8722 -32.8697 -32.8693
   -32.8693 -32.8617 -32.8616 -32.8616 -32.8512 -32.8512 -32.8510 -32.6903
   -32.6887 -32.6887 -32.6886 -32.6859 -32.6859 -32.6859 -32.6837 -32.6837
    11.3250  15.1982  15.1982  15.1982  15.3348  15.3349  15.3349  15.3608
    15.3609  15.3609  15.6088  15.6088  15.7117  15.7117  15.7117  17.0852
    17.1741  17.1741  17.1849  17.1850  17.1850  17.1989  17.1989  17.1990
    17.3139  17.3139  17.3598  17.6179  17.6182  17.6182  18.0084  18.0088
    18.0088  18.4862  18.4862  18.5330  18.8101  18.8101  18.8102  18.9132
    18.9132  18.9133  19.0003  19.0005  19.0005  19.0947  19.0948  19.0948
    19.8354  19.8358  19.8358  20.0562  20.0563  20.0563  20.0836  20.0837
    20.0837  20.2219  20.2220  20.2220  20.2238  20.2239  20.2239  20.2569
    20.2569  20.5079  20.5079  20.5080  20.5157  20.5160  20.5160  20.5615
    20.5615  20.5617  20.5617  21.0477  21.0479  21.0479  21.2692  21.3172
    21.3172  21.3172  21.3468  21.3468  21.7721  21.7722  21.7722  21.7948
    21.7948  21.7948

          k = 0.0554 0.0554 0.1663 ( 11399 PWs)   bands (ev):

   -66.9548 -66.8788 -66.8609 -66.8607 -66.8476 -66.8474 -66.8450 -66.8444
   -66.8441 -66.8435 -66.8431 -66.8428 -66.8375 -66.8370 -66.8280 -66.7650
   -33.2413 -33.2413 -33.2401 -33.2374 -33.2324 -33.2324 -33.0885 -33.0790
   -33.0693 -33.0465 -33.0380 -33.0379 -33.0358 -33.0353 -33.0048 -33.0046
   -32.9704 -32.9431 -32.9329 -32.9319 -32.9199 -32.8966 -32.8964 -32.8881
   -32.8783 -32.8763 -32.8760 -32.8752 -32.8746 -32.8669 -32.8666 -32.8622
   -32.8619 -32.8579 -32.8578 -32.8273 -32.8246 -32.8244 -32.8175 -32.7054
   -32.6982 -32.6982 -32.6966 -32.6938 -32.6894 -32.6889 -32.6888 -32.6863
    11.4622  14.5672  15.2551  15.2551  15.3446  15.3447  15.4250  15.4251
    15.4350  15.4596  15.6709  15.6733  15.7555  15.7555  16.0487  16.9773
    17.0871  17.0954  17.1671  17.1795  17.2085  17.2296  17.2352  17.2352
    17.2762  17.2763  17.5006  17.5125  17.5728  17.5729  17.9100  17.9102
    18.3581  18.4607  18.4814  18.5951  18.5977  18.5978  18.6623  18.7763
    18.7764  18.8201  19.0887  19.0888  19.2040  19.2041  19.2338  19.3333
    19.5255  19.5256  19.5933  19.8164  19.8166  19.8170  19.9762  20.0632
    20.0634  20.1619  20.1621  20.1842  20.2434  20.2452  20.2454  20.2693
    20.2861  20.3046  20.3046  20.3301  20.5188  20.5402  20.5405  20.5591
    20.5594  20.7336  20.8435  20.8436  21.0073  21.0966  21.2092  21.3256
    21.3256  21.3397  21.3780  21.3781  21.6760  21.6760  21.8398  21.8398
    21.9381  21.9381

          k = 0.0554 0.0554 0.2771 ( 11408 PWs)   bands (ev):

   -66.9482 -66.8958 -66.8595 -66.8592 -66.8499 -66.8497 -66.8441 -66.8440
   -66.8437 -66.8428 -66.8426 -66.8423 -66.8385 -66.8378 -66.8128 -66.7701
   -33.2231 -33.2231 -33.2227 -33.2203 -33.2088 -33.2088 -33.0895 -33.0877
   -33.0821 -33.0792 -33.0792 -33.0666 -33.0575 -33.0548 -33.0482 -33.0481
   -32.9656 -32.9554 -32.9533 -32.9381 -32.8947 -32.8944 -32.8897 -32.8892
   -32.8846 -32.8801 -32.8798 -32.8648 -32.8645 -32.8622 -32.8619 -32.8426
   -32.8350 -32.8234 -32.8233 -32.7951 -32.7919 -32.7918 -32.7860 -32.7305
   -32.7132 -32.7131 -32.7118 -32.7100 -32.7009 -32.6981 -32.6981 -32.6959
    11.7325  13.8915  15.3432  15.3432  15.3806  15.3806  15.5221  15.5221
    15.6273  15.6490  15.7855  15.8008  15.8071  15.8071  16.1954  16.8158
    16.8614  16.8616  17.0456  17.0938  17.1350  17.1454  17.3466  17.3467
    17.4147  17.4147  17.5632  17.5634  17.7513  17.7731  17.8414  17.8416
    18.3104  18.3104  18.4443  18.4707  18.4708  18.4746  18.5102  18.5557
    18.6871  18.9534  18.9664  18.9666  19.1806  19.1808  19.3456  19.3457
    19.3636  19.3831  19.3832  19.3872  19.4334  19.5107  19.6202  20.0412
    20.0635  20.0636  20.1606  20.1608  20.2805  20.2946  20.3426  20.3638
    20.3639  20.5004  20.5015  20.5243  20.5541  20.5562  20.5674  20.5947
    20.5947  20.6053  20.8001  20.8358  20.9612  21.0360  21.0360  21.2680
    21.3406  21.3406  21.4300  21.4301  21.5501  21.5501  21.9213  21.9214
    22.0716  22.0716

          k = 0.0554 0.0554 0.3879 ( 11413 PWs)   bands (ev):

   -66.9385 -66.9118 -66.8575 -66.8572 -66.8524 -66.8522 -66.8435 -66.8432
   -66.8428 -66.8425 -66.8423 -66.8415 -66.8399 -66.8389 -66.7991 -66.7776
   -33.1972 -33.1959 -33.1959 -33.1958 -33.1764 -33.1764 -33.1280 -33.1256
   -33.1215 -33.1215 -33.0937 -33.0937 -33.0880 -33.0729 -33.0482 -33.0359
   -32.9969 -32.9843 -32.9391 -32.9273 -32.9044 -32.8982 -32.8917 -32.8914
   -32.8840 -32.8837 -32.8635 -32.8632 -32.8624 -32.8621 -32.8452 -32.8011
   -32.7967 -32.7896 -32.7895 -32.7656 -32.7634 -32.7612 -32.7611 -32.7573
   -32.7339 -32.7336 -32.7335 -32.7335 -32.7179 -32.7133 -32.7132 -32.7114
    12.1278  13.2325  15.4187  15.4187  15.4237  15.4237  15.6380  15.6381
    15.8121  15.8122  15.8956  15.9123  15.9325  15.9886  16.1871  16.5257
    16.5436  16.5511  17.0401  17.0572  17.0963  17.1050  17.5148  17.5149
    17.6082  17.6082  17.6808  17.6810  17.8767  17.8769  18.0516  18.0516
    18.0754  18.0964  18.1650  18.1650  18.4391  18.4401  18.4403  18.4715
    18.4873  18.4987  18.6139  18.6141  18.8116  18.9182  18.9219  19.1533
    19.2612  19.5805  19.5807  19.6079  19.6080  19.8269  19.8330  19.9309
    19.9310  19.9453  20.0282  20.0283  20.3309  20.3400  20.4233  20.4478
    20.4503  20.5153  20.5314  20.5472  20.5533  20.5654  20.6429  20.6476
    20.6624  20.6625  20.7877  20.8797  20.8798  21.0670  21.0671  21.1459
    21.3215  21.3215  21.3593  21.3593  21.4339  21.4339  22.0206  22.0206
    22.1356  22.1356

          k = 0.0554 0.0554-0.4988 ( 11408 PWs)   bands (ev):

   -66.9263 -66.9261 -66.8553 -66.8550 -66.8547 -66.8546 -66.8432 -66.8429
   -66.8425 -66.8424 -66.8415 -66.8412 -66.8404 -66.8401 -66.7874 -66.7872
   -33.1647 -33.1646 -33.1645 -33.1644 -33.1614 -33.1613 -33.1612 -33.1612
   -33.1375 -33.1374 -33.1372 -33.1372 -33.0828 -33.0826 -33.0249 -33.0247
   -33.0122 -33.0120 -32.9219 -32.9216 -32.9132 -32.9129 -32.8882 -32.8880
   -32.8879 -32.8877 -32.8627 -32.8625 -32.8624 -32.8622 -32.8020 -32.8018
   -32.7642 -32.7640 -32.7628 -32.7626 -32.7596 -32.7595 -32.7592 -32.7592
   -32.7398 -32.7396 -32.7347 -32.7345 -32.7343 -32.7343 -32.7320 -32.7319
    12.6344  12.6348  15.4453  15.4453  15.4455  15.4455  15.7471  15.7472
    15.7473  15.7474  16.0809  16.0811  16.2148  16.2151  16.2230  16.2233
    16.2320  16.2324  17.0609  17.0612  17.0700  17.0703  17.7287  17.7288
    17.7290  17.7291  17.8246  17.8246  17.8248  17.8249  18.0297  18.0299
    18.0300  18.0303  18.1882  18.1883  18.1884  18.1886  18.4510  18.4513
    18.4668  18.4668  18.4785  18.4789  18.4805  18.4806  18.9677  18.9680
    19.5680  19.5683  19.7676  19.7677  19.7677  19.7680  19.8414  19.8415
    19.8416  19.8418  20.1690  20.1691  20.2935  20.2937  20.3886  20.3889
    20.3941  20.3943  20.5252  20.5254  20.5394  20.5396  20.5539  20.5541
    20.9177  20.9180  20.9180  20.9181  20.9830  20.9833  21.1285  21.1286
    21.1286  21.1288  21.3816  21.3817  21.3818  21.3819  22.1057  22.1058
    22.1060  22.1060

          k = 0.0554 0.1663 0.1663 ( 11411 PWs)   bands (ev):

   -66.9515 -66.8777 -66.8775 -66.8601 -66.8523 -66.8470 -66.8468 -66.8440
   -66.8428 -66.8425 -66.8391 -66.8383 -66.8372 -66.8284 -66.8282 -66.7675
   -33.2391 -33.2327 -33.2326 -33.2247 -33.2246 -33.2133 -33.0955 -33.0752
   -33.0696 -33.0648 -33.0647 -33.0570 -33.0539 -33.0500 -33.0257 -32.9807
   -32.9660 -32.9655 -32.9321 -32.9311 -32.9309 -32.9023 -32.8917 -32.8913
   -32.8855 -32.8829 -32.8826 -32.8720 -32.8718 -32.8691 -32.8662 -32.8581
   -32.8478 -32.8358 -32.8287 -32.8284 -32.8051 -32.7927 -32.7926 -32.7262
   -32.7129 -32.7043 -32.7043 -32.6965 -32.6965 -32.6943 -32.6856 -32.6840
    11.5978  14.6428  14.6428  15.2870  15.3180  15.4464  15.4465  15.5229
    15.5230  15.5349  15.7326  15.7367  15.8080  16.0904  16.0905  16.8794
    16.9909  17.1666  17.2143  17.2143  17.2191  17.2192  17.2510  17.2510
    17.2571  17.2824  17.3803  17.4839  17.5131  17.5246  17.8050  18.1834
    18.1837  18.3999  18.4625  18.4626  18.4661  18.5111  18.6542  18.6973
    18.9958  18.9961  19.0636  19.0636  19.1074  19.1701  19.2704  19.3681
    19.3682  19.3794  19.3796  19.5659  19.5659  19.7163  19.8221  19.8225
    20.0565  20.1717  20.1837  20.1838  20.2381  20.2411  20.2412  20.2649
    20.2684  20.4445  20.4920  20.5253  20.5255  20.5408  20.5408  20.5502
    20.5514  20.6537  20.6539  20.8700  20.9779  20.9781  20.9932  20.9933
    21.1075  21.3564  21.3659  21.4965  21.5683  21.9146  22.2422  22.2423
    22.4344  22.5835

          k = 0.0554 0.1663 0.2771 ( 11408 PWs)   bands (ev):

   -66.9451 -66.8940 -66.8752 -66.8587 -66.8573 -66.8492 -66.8459 -66.8435
   -66.8422 -66.8418 -66.8396 -66.8377 -66.8358 -66.8289 -66.8135 -66.7723
   -33.2270 -33.2158 -33.2156 -33.2097 -33.2028 -33.1846 -33.1027 -33.1015
   -33.0990 -33.0881 -33.0859 -33.0841 -33.0631 -33.0593 -33.0346 -33.0107
   -32.9696 -32.9641 -32.9284 -32.9269 -32.9246 -32.9224 -32.9040 -32.8954
   -32.8951 -32.8880 -32.8817 -32.8705 -32.8685 -32.8561 -32.8502 -32.8326
   -32.8307 -32.8165 -32.8078 -32.7969 -32.7801 -32.7628 -32.7627 -32.7557
   -32.7331 -32.7166 -32.7163 -32.7113 -32.7055 -32.7039 -32.6886 -32.6876
    11.8649  13.9853  14.7763  15.2377  15.4179  15.4839  15.6196  15.6420
    15.6723  15.7101  15.8461  15.8620  15.8758  16.1271  16.2438  16.7622
    16.8428  16.8753  17.1057  17.1774  17.1925  17.2073  17.2580  17.3175
    17.3405  17.3763  17.4733  17.5443  17.6467  17.7100  17.7113  18.0523
    18.2058  18.3076  18.3252  18.3439  18.3825  18.4277  18.4494  18.6389
    18.6775  18.8287  18.8603  19.0126  19.0729  19.1510  19.1706  19.1771
    19.2563  19.3552  19.3757  19.4260  19.4565  19.5880  19.6130  19.9342
    20.0621  20.0877  20.1260  20.1619  20.1945  20.2272  20.2645  20.3074
    20.4689  20.4839  20.4855  20.5460  20.5512  20.5731  20.5747  20.5893
    20.6386  20.7467  20.7654  20.7763  20.7866  20.8152  20.8685  20.9651
    21.0844  21.2955  21.3494  21.4256  21.5632  22.0541  22.0809  22.6391
    22.7362  22.8642

          k = 0.0554 0.1663 0.3879 ( 11415 PWs)   bands (ev):

   -66.9356 -66.9096 -66.8717 -66.8625 -66.8566 -66.8517 -66.8445 -66.8430
   -66.8422 -66.8412 -66.8408 -66.8386 -66.8333 -66.8298 -66.8003 -66.7795
   -33.2056 -33.1916 -33.1904 -33.1881 -33.1730 -33.1478 -33.1408 -33.1307
   -33.1248 -33.1236 -33.1046 -33.0983 -33.0967 -33.0584 -33.0452 -33.0118
   -32.9948 -32.9562 -32.9519 -32.9210 -32.9203 -32.9125 -32.9047 -32.9021
   -32.8946 -32.8932 -32.8777 -32.8697 -32.8692 -32.8436 -32.8339 -32.8205
   -32.7953 -32.7920 -32.7857 -32.7802 -32.7682 -32.7581 -32.7555 -32.7366
   -32.7357 -32.7343 -32.7337 -32.7333 -32.7219 -32.7166 -32.6981 -32.6979
    12.2550  13.3410  14.9336  15.1743  15.5074  15.5270  15.7352  15.8276
    15.8976  15.9145  15.9679  15.9931  16.0434  16.0934  16.2428  16.5539
    16.5575  16.5686  17.0756  17.1181  17.1332  17.1569  17.4259  17.4662
    17.4808  17.5373  17.5393  17.6877  17.7595  17.8953  17.9339  17.9953
    18.1061  18.1165  18.1753  18.1871  18.3060  18.3066  18.3504  18.3857
    18.4013  18.4322  18.5059  18.6436  18.7063  18.7066  18.9847  19.3660
    19.4016  19.5566  19.5584  19.6148  19.6176  19.6364  19.8048  19.8806
    19.9006  19.9579  20.0286  20.0708  20.2365  20.2874  20.3107  20.3895
    20.4247  20.4304  20.4351  20.5434  20.5496  20.5590  20.5595  20.6198
    20.6332  20.6671  20.7030  20.8259  20.8309  20.9242  20.9689  21.0672
    21.0722  21.0789  21.2718  21.4670  21.5443  21.8997  22.2349  22.5683
    22.9116  23.0610

          k = 0.0554 0.1663-0.4988 ( 11420 PWs)   bands (ev):

   -66.9237 -66.9235 -66.8675 -66.8672 -66.8544 -66.8541 -66.8431 -66.8429
   -66.8426 -66.8423 -66.8398 -66.8396 -66.8314 -66.8312 -66.7890 -66.7887
   -33.1763 -33.1762 -33.1614 -33.1612 -33.1609 -33.1607 -33.1589 -33.1588
   -33.1370 -33.1369 -33.1051 -33.1050 -33.1033 -33.1031 -33.0222 -33.0220
   -32.9856 -32.9854 -32.9323 -32.9321 -32.9135 -32.9133 -32.9086 -32.9083
   -32.8983 -32.8982 -32.8694 -32.8692 -32.8382 -32.8380 -32.8334 -32.8333
   -32.7876 -32.7875 -32.7619 -32.7616 -32.7577 -32.7575 -32.7551 -32.7550
   -32.7429 -32.7427 -32.7339 -32.7339 -32.7149 -32.7148 -32.7139 -32.7138
    12.7538  12.7542  15.0743  15.0745  15.5446  15.5448  15.8416  15.8418
    15.9799  15.9801  16.1406  16.1408  16.2368  16.2370  16.2658  16.2660
    16.2771  16.2775  17.0936  17.0939  17.1178  17.1181  17.6253  17.6254
    17.6443  17.6444  17.6710  17.6711  17.7334  17.7336  18.0515  18.0516
    18.0920  18.0921  18.1576  18.1577  18.2755  18.2757  18.2920  18.2923
    18.2929  18.2930  18.3344  18.3345  18.4172  18.4175  19.1645  19.1648
    19.6517  19.6520  19.6768  19.6770  19.7979  19.7981  19.8434  19.8436
    19.8814  19.8816  19.8892  19.8893  20.2249  20.2251  20.3561  20.3563
    20.3690  20.3692  20.4941  20.4943  20.5429  20.5431  20.5813  20.5814
    20.6913  20.6914  20.7907  20.7908  20.9002  20.9004  20.9771  20.9772
    21.1413  21.1414  21.3014  21.3015  21.7110  21.7112  22.4203  22.4206
    23.0473  23.0476

          k = 0.0554 0.2771 0.2771 ( 11403 PWs)   bands (ev):

   -66.9389 -66.8907 -66.8905 -66.8651 -66.8573 -66.8482 -66.8479 -66.8431
   -66.8416 -66.8414 -66.8410 -66.8380 -66.8299 -66.8152 -66.8150 -66.7768
   -33.2208 -33.2011 -33.2011 -33.1909 -33.1909 -33.1514 -33.1184 -33.1183
   -33.1150 -33.1141 -33.1053 -33.1023 -33.0802 -33.0518 -33.0102 -32.9706
   -32.9680 -32.9675 -32.9583 -32.9580 -32.9237 -32.9126 -32.9104 -32.9024
   -32.9022 -32.8894 -32.8889 -32.8804 -32.8802 -32.8751 -32.8368 -32.8092
   -32.8011 -32.8007 -32.7939 -32.7906 -32.7874 -32.7639 -32.7576 -32.7367
   -32.7365 -32.7241 -32.7241 -32.7158 -32.7155 -32.7155 -32.6856 -32.6845
    12.1252  14.1606  14.1607  15.0763  15.5419  15.6818  15.6819  15.8048
    15.8049  15.8325  15.9470  15.9783  15.9920  16.2864  16.2864  16.7009
    16.7605  16.9517  16.9517  17.1649  17.2375  17.2667  17.2667  17.3104
    17.3104  17.3776  17.3943  17.5749  17.5928  17.6916  17.7322  18.1010
    18.1012  18.2098  18.2297  18.2300  18.2410  18.2533  18.3060  18.4160
    18.6564  18.6565  18.7186  18.7186  18.8781  18.9271  18.9274  19.0054
    19.4419  19.4419  19.4985  19.5391  19.5861  19.5864  19.8017  19.8842
    19.8846  20.0548  20.1380  20.1380  20.1664  20.1852  20.1853  20.2463
    20.2824  20.4412  20.4425  20.4501  20.5441  20.5539  20.5890  20.6429
    20.6528  20.6531  20.7042  20.7292  20.7293  20.8370  20.8373  21.0164
    21.0165  21.0561  21.4016  21.5914  21.6023  22.2879  22.7076  22.7077
    23.3087  23.3088

          k = 0.0554 0.2771 0.3879 ( 11421 PWs)   bands (ev):

   -66.9299 -66.9053 -66.8857 -66.8727 -66.8553 -66.8506 -66.8466 -66.8429
   -66.8425 -66.8416 -66.8406 -66.8387 -66.8249 -66.8175 -66.8027 -66.7835
   -33.2053 -33.1806 -33.1799 -33.1746 -33.1661 -33.1518 -33.1344 -33.1285
   -33.1276 -33.1263 -33.1235 -33.1113 -33.1075 -33.0350 -33.0168 -32.9872
   -32.9830 -32.9592 -32.9495 -32.9249 -32.9223 -32.9216 -32.9213 -32.9169
   -32.9158 -32.9090 -32.8932 -32.8802 -32.8787 -32.8529 -32.8311 -32.8252
   -32.8071 -32.7862 -32.7817 -32.7741 -32.7717 -32.7672 -32.7478 -32.7360
   -32.7352 -32.7330 -32.7309 -32.7233 -32.7150 -32.7144 -32.6885 -32.6881
    12.5041  13.5493  14.3922  14.8793  15.6638  15.7230  15.9175  15.9551
    15.9953  16.0431  16.0561  16.0783  16.1756  16.2535  16.3000  16.5670
    16.5701  16.6625  17.1446  17.1521  17.1883  17.2071  17.2367  17.3712
    17.3835  17.4223  17.5047  17.5079  17.7517  17.8446  17.8476  17.8692
    17.9792  18.0764  18.0868  18.1469  18.1591  18.1879  18.2674  18.2955
    18.3076  18.3727  18.3778  18.3878  18.5229  18.5866  19.2024  19.2181
    19.5794  19.5957  19.6484  19.6864  19.6888  19.6969  19.6992  19.7899
    19.8943  19.9504  20.0162  20.0559  20.0791  20.1937  20.2099  20.2366
    20.3358  20.3551  20.3741  20.3784  20.4816  20.5498  20.5664  20.5715
    20.5913  20.6618  20.6689  20.6905  20.6983  20.7734  20.7952  20.8593
    21.1872  21.2467  21.3896  21.5440  21.8554  22.4364  22.5758  23.1287
    23.3788  23.9954

          k = 0.0554 0.2771-0.4988 ( 11418 PWs)   bands (ev):

   -66.9187 -66.9184 -66.8798 -66.8795 -66.8531 -66.8529 -66.8449 -66.8447
   -66.8421 -66.8418 -66.8397 -66.8395 -66.8208 -66.8206 -66.7922 -66.7920
   -33.1819 -33.1818 -33.1553 -33.1552 -33.1551 -33.1550 -33.1547 -33.1546
   -33.1373 -33.1372 -33.1278 -33.1277 -33.0655 -33.0655 -33.0132 -33.0130
   -32.9532 -32.9531 -32.9415 -32.9413 -32.9380 -32.9378 -32.9141 -32.9140
   -32.9065 -32.9063 -32.8799 -32.8797 -32.8759 -32.8758 -32.8183 -32.8182
   -32.8154 -32.8152 -32.7556 -32.7555 -32.7518 -32.7517 -32.7506 -32.7503
   -32.7496 -32.7496 -32.7341 -32.7340 -32.6986 -32.6986 -32.6982 -32.6981
    12.9862  12.9865  14.6440  14.6443  15.7282  15.7283  16.0144  16.0145
    16.1445  16.1447  16.2119  16.2121  16.2700  16.2702  16.3339  16.3341
    16.4013  16.4016  17.1576  17.1579  17.1835  17.1837  17.4466  17.4468
    17.4662  17.4664  17.4772  17.4773  17.6657  17.6659  18.0356  18.0356
    18.0640  18.0642  18.0734  18.0735  18.1024  18.1025  18.1058  18.1060
    18.2642  18.2642  18.2798  18.2800  18.3389  18.3391  19.4163  19.4165
    19.5446  19.5446  19.6121  19.6123  19.7831  19.7834  19.8663  19.8665
    19.8836  19.8838  19.9167  19.9168  20.0566  20.0568  20.2929  20.2931
    20.3053  20.3055  20.4380  20.4382  20.4817  20.4819  20.5629  20.5631
    20.5927  20.5928  20.6114  20.6116  20.7036  20.7037  20.8305  20.8306
    21.3152  21.3153  21.4270  21.4271  22.1455  22.1457  22.8705  22.8707
    24.0693  24.0697

          k = 0.0554 0.3879 0.3879 ( 11424 PWs)   bands (ev):

   -66.9217 -66.8992 -66.8990 -66.8824 -66.8535 -66.8490 -66.8487 -66.8449
   -66.8419 -66.8410 -66.8407 -66.8392 -66.8175 -66.8066 -66.8063 -66.7893
   -33.1959 -33.1660 -33.1659 -33.1572 -33.1572 -33.1549 -33.1547 -33.1403
   -33.1392 -33.1373 -33.1364 -33.1213 -33.0679 -33.0193 -32.9761 -32.9757
   -32.9710 -32.9706 -32.9570 -32.9518 -32.9439 -32.9282 -32.9280 -32.9262
   -32.9124 -32.8926 -32.8925 -32.8866 -32.8862 -32.8857 -32.8758 -32.8174
   -32.8087 -32.7831 -32.7828 -32.7646 -32.7583 -32.7551 -32.7444 -32.7408
   -32.7397 -32.7396 -32.7338 -32.7337 -32.6984 -32.6983 -32.6852 -32.6846
    12.8643  13.8392  13.8393  14.5410  15.8388  15.9868  15.9869  16.1360
    16.1567  16.1568  16.1726  16.1822  16.2989  16.2990  16.3737  16.4832
    16.5418  16.8773  16.8774  17.1889  17.2060  17.2696  17.2913  17.2913
    17.3010  17.3010  17.3871  17.5084  17.5833  17.6936  17.8030  17.8826
    17.8827  17.9761  18.0332  18.0511  18.0635  18.0635  18.0971  18.0971
    18.2317  18.2343  18.2346  18.3208  18.3570  18.8676  18.8680  19.4382
    19.5357  19.6182  19.6791  19.6794  19.7990  19.7990  19.8169  19.8270
    19.9412  19.9417  19.9820  20.0655  20.1017  20.1017  20.1039  20.1198
    20.1199  20.2964  20.2996  20.3117  20.4005  20.4948  20.4949  20.5210
    20.5654  20.5955  20.6281  20.6284  20.6649  20.7205  20.7208  20.7447
    21.3712  21.3713  21.4494  21.5547  22.2294  22.9701  23.0109  23.0111
    23.7375  23.7376

          k = 0.0554 0.3879-0.4988 ( 11436 PWs)   bands (ev):

   -66.9114 -66.9111 -66.8914 -66.8912 -66.8514 -66.8512 -66.8471 -66.8469
   -66.8414 -66.8412 -66.8401 -66.8399 -66.8115 -66.8113 -66.7971 -66.7969
   -33.1787 -33.1786 -33.1506 -33.1506 -33.1505 -33.1504 -33.1502 -33.1501
   -33.1483 -33.1482 -33.1387 -33.1386 -33.0203 -33.0202 -32.9996 -32.9994
   -32.9613 -32.9611 -32.9456 -32.9455 -32.9303 -32.9302 -32.9231 -32.9231
   -32.9191 -32.9190 -32.9044 -32.9043 -32.8910 -32.8910 -32.8510 -32.8509
   -32.7946 -32.7944 -32.7619 -32.7617 -32.7480 -32.7478 -32.7475 -32.7474
   -32.7457 -32.7456 -32.7363 -32.7362 -32.6882 -32.6882 -32.6882 -32.6881
    13.3179  13.3182  14.1820  14.1823  15.9592  15.9594  16.2221  16.2223
    16.2402  16.2404  16.2581  16.2583  16.2688  16.2690  16.3952  16.3954
    16.6134  16.6136  17.1725  17.1728  17.2178  17.2179  17.2194  17.2196
    17.2836  17.2837  17.3403  17.3405  17.7117  17.7118  17.8321  17.8322
    17.9175  17.9176  17.9257  17.9259  17.9387  17.9389  17.9871  17.9872
    18.2505  18.2506  18.2728  18.2731  18.5335  18.5335  19.1876  19.1876
    19.6144  19.6147  19.6847  19.6849  19.8633  19.8635  19.9167  19.9169
    19.9692  19.9692  19.9694  19.9696  19.9727  19.9728  20.2008  20.2009
    20.2075  20.2076  20.2345  20.2347  20.3745  20.3747  20.4241  20.4243
    20.5893  20.5894  20.6397  20.6398  20.6523  20.6524  20.7328  20.7329
    21.4417  21.4418  21.4967  21.4967  22.6229  22.6232  23.3700  23.3703
    23.5991  23.5995

          k = 0.0554-0.4988-0.4988 ( 11444 PWs)   bands (ev):

   -66.9022 -66.9022 -66.9020 -66.9018 -66.8494 -66.8494 -66.8492 -66.8490
   -66.8408 -66.8407 -66.8405 -66.8402 -66.8037 -66.8036 -66.8034 -66.8032
   -33.1677 -33.1677 -33.1677 -33.1675 -33.1488 -33.1487 -33.1486 -33.1486
   -33.1425 -33.1425 -33.1424 -33.1424 -32.9821 -32.9821 -32.9817 -32.9816
   -32.9724 -32.9722 -32.9718 -32.9718 -32.9417 -32.9417 -32.9416 -32.9415
   -32.8997 -32.8997 -32.8997 -32.8995 -32.8852 -32.8850 -32.8846 -32.8846
   -32.7768 -32.7768 -32.7765 -32.7762 -32.7451 -32.7451 -32.7449 -32.7449
   -32.7412 -32.7411 -32.7410 -32.7410 -32.6849 -32.6848 -32.6848 -32.6847
    13.7268  13.7270  13.7271  13.7274  16.1664  16.1666  16.1667  16.1668
    16.2730  16.2730  16.2731  16.2733  16.3753  16.3754  16.3755  16.3756
    16.8799  16.8800  16.8802  16.8802  17.2116  17.2117  17.2118  17.2118
    17.2586  17.2587  17.2588  17.2588  17.8044  17.8047  17.8047  17.8047
    17.8109  17.8110  17.8110  17.8112  17.8984  17.8985  17.8985  17.8987
    18.2412  18.2413  18.2414  18.2418  18.8450  18.8450  18.8454  18.8454
    19.7025  19.7025  19.7026  19.7031  19.9545  19.9548  19.9550  19.9550
    19.9968  19.9968  19.9968  19.9969  20.0880  20.0882  20.0882  20.0883
    20.0896  20.0897  20.0898  20.0899  20.3519  20.3520  20.3521  20.3523
    20.6176  20.6176  20.6180  20.6180  20.6750  20.6750  20.6753  20.6754
    21.5032  21.5032  21.5033  21.5033  23.1133  23.1137  23.1137  23.1139
    23.8777  23.8780

          k = 0.1663 0.1663 0.1663 ( 11392 PWs)   bands (ev):

   -66.9483 -66.8765 -66.8765 -66.8761 -66.8518 -66.8518 -66.8514 -66.8399
   -66.8390 -66.8390 -66.8386 -66.8365 -66.8286 -66.8286 -66.8283 -66.7698
   -33.2305 -33.2304 -33.2304 -33.2070 -33.2070 -33.2070 -33.0898 -33.0886
   -33.0886 -33.0813 -33.0812 -33.0812 -33.0347 -33.0290 -33.0290 -32.9883
   -32.9879 -32.9879 -32.9381 -32.9380 -32.9380 -32.8944 -32.8940 -32.8940
   -32.8845 -32.8845 -32.8675 -32.8673 -32.8673 -32.8627 -32.8623 -32.8623
   -32.8311 -32.8311 -32.8311 -32.8230 -32.7764 -32.7764 -32.7763 -32.7469
   -32.7165 -32.7165 -32.7165 -32.6936 -32.6936 -32.6936 -32.6899 -32.6899
    11.7320  14.7224  14.7224  14.7225  15.3933  15.3933  15.3933  15.6299
    15.6300  15.6300  15.7967  15.7967  16.1437  16.1437  16.1437  16.7982
    17.0984  17.0984  17.1941  17.1942  17.1942  17.2366  17.2366  17.2366
    17.3456  17.3456  17.3456  17.3683  17.4491  17.4491  18.0332  18.0336
    18.0336  18.3846  18.3846  18.3848  18.3873  18.3873  18.8115  18.8128
    18.8130  18.8130  19.0009  19.0010  19.0010  19.1780  19.1780  19.1781
    19.3957  19.3957  19.3959  19.4556  19.4557  19.4557  20.0197  20.0202
    20.0202  20.0923  20.0924  20.0924  20.2054  20.2054  20.2423  20.2424
    20.2424  20.4948  20.4951  20.4951  20.5256  20.5256  20.5281  20.5281
    20.5965  20.6462  20.6462  20.6462  20.9908  20.9908  20.9908  21.2035
    21.2038  21.2038  21.2294  21.2294  21.9447  21.9448  21.9448  22.6981
    22.6981  22.6981

          k = 0.1663 0.1663 0.2771 ( 11424 PWs)   bands (ev):

   -66.9420 -66.8923 -66.8741 -66.8738 -66.8568 -66.8565 -66.8504 -66.8419
   -66.8384 -66.8364 -66.8359 -66.8356 -66.8292 -66.8289 -66.8142 -66.7745
   -33.2187 -33.2187 -33.2132 -33.1951 -33.1804 -33.1804 -33.1117 -33.1090
   -33.1090 -33.1001 -33.0981 -33.0758 -33.0751 -33.0240 -33.0238 -33.0122
   -33.0060 -32.9726 -32.9459 -32.9394 -32.9393 -32.9101 -32.9060 -32.9057
   -32.8988 -32.8926 -32.8699 -32.8543 -32.8541 -32.8399 -32.8374 -32.8373
   -32.8341 -32.8339 -32.7980 -32.7978 -32.7778 -32.7549 -32.7547 -32.7503
   -32.7335 -32.7335 -32.7243 -32.7097 -32.7016 -32.6961 -32.6961 -32.6904
    11.9962  14.0814  14.8636  14.8637  15.3477  15.3477  15.5981  15.7660
    15.7660  15.8107  15.9143  15.9149  16.2010  16.2010  16.3056  16.7183
    16.8759  16.9360  17.0717  17.1996  17.2046  17.2047  17.2858  17.3047
    17.3156  17.3157  17.4740  17.4905  17.4905  17.6658  17.8905  17.8907
    18.1760  18.2048  18.2049  18.2896  18.3089  18.3642  18.5565  18.5566
    18.5694  18.5695  18.7964  18.9357  18.9358  18.9521  18.9645  19.0089
    19.3003  19.4011  19.4011  19.5453  19.5453  19.7062  19.7893  19.9825
    19.9826  20.0895  20.1575  20.1850  20.1850  20.2615  20.2673  20.2695
    20.2887  20.2890  20.4803  20.4817  20.5004  20.5238  20.5383  20.5412
    20.5413  20.7574  20.8124  20.8124  20.8407  20.9111  20.9847  20.9944
    20.9944  21.2751  21.2844  21.2845  21.6828  21.6829  22.5686  22.8969
    22.8969  23.3331

          k = 0.1663 0.1663 0.3879 ( 11429 PWs)   bands (ev):

   -66.9328 -66.9074 -66.8707 -66.8704 -66.8617 -66.8615 -66.8486 -66.8442
   -66.8378 -66.8366 -66.8334 -66.8332 -66.8301 -66.8298 -66.8015 -66.7814
   -33.1987 -33.1987 -33.1881 -33.1778 -33.1464 -33.1464 -33.1405 -33.1405
   -33.1345 -33.1180 -33.1078 -33.1075 -33.0653 -33.0652 -33.0572 -33.0046
   -32.9870 -32.9812 -32.9352 -32.9350 -32.9317 -32.9297 -32.9175 -32.9173
   -32.9017 -32.8932 -32.8791 -32.8473 -32.8470 -32.8374 -32.8372 -32.8152
   -32.8073 -32.8072 -32.7989 -32.7741 -32.7679 -32.7547 -32.7547 -32.7365
   -32.7338 -32.7337 -32.7329 -32.7277 -32.7190 -32.7036 -32.7036 -32.6972
    12.3816  13.4506  15.0311  15.0311  15.2851  15.2852  15.8859  15.9213
    15.9214  16.0564  16.0642  16.0881  16.1834  16.1835  16.3121  16.5723
    16.5772  16.5990  17.0791  17.1542  17.1916  17.2195  17.3406  17.3407
    17.4454  17.4454  17.6544  17.6544  17.7511  17.7712  17.7713  17.9271
    18.0800  18.0801  18.1591  18.1592  18.2361  18.2516  18.2523  18.2847
    18.2847  18.3340  18.4803  18.4804  18.5070  18.5222  19.1418  19.2625
    19.4989  19.5588  19.6433  19.6433  19.6498  19.6498  19.8658  19.8659
    19.9158  19.9235  20.0059  20.0628  20.0628  20.2403  20.3063  20.3584
    20.4118  20.4252  20.5072  20.5199  20.5244  20.5246  20.5644  20.5952
    20.6106  20.6106  20.6733  20.7253  20.9920  20.9921  21.0158  21.0391
    21.0391  21.2469  21.2553  21.2554  21.4283  21.4284  23.1298  23.1298
    23.2566  23.4281

          k = 0.1663 0.1663-0.4988 ( 11466 PWs)   bands (ev):

   -66.9213 -66.9211 -66.8668 -66.8664 -66.8661 -66.8660 -66.8466 -66.8464
   -66.8372 -66.8370 -66.8319 -66.8315 -66.8312 -66.8311 -66.7906 -66.7903
   -33.1720 -33.1719 -33.1718 -33.1718 -33.1573 -33.1571 -33.1561 -33.1559
   -33.1105 -33.1103 -33.1073 -33.1073 -33.1070 -33.1069 -33.0332 -33.0330
   -32.9594 -32.9593 -32.9562 -32.9560 -32.9278 -32.9276 -32.9276 -32.9274
   -32.8881 -32.8879 -32.8574 -32.8573 -32.8417 -32.8415 -32.8415 -32.8413
   -32.7799 -32.7798 -32.7795 -32.7793 -32.7632 -32.7629 -32.7532 -32.7531
   -32.7416 -32.7413 -32.7164 -32.7162 -32.7162 -32.7162 -32.7103 -32.7102
    12.8733  12.8737  15.1809  15.1809  15.1811  15.1812  16.0740  16.0740
    16.0741  16.0742  16.2126  16.2128  16.2312  16.2315  16.3112  16.3115
    16.3307  16.3309  17.1099  17.1102  17.1740  17.1743  17.5957  17.5958
    17.5961  17.5962  17.6107  17.6107  17.6109  17.6111  18.0571  18.0572
    18.0574  18.0575  18.1009  18.1009  18.1712  18.1714  18.1714  18.1715
    18.2204  18.2204  18.2245  18.2247  18.2981  18.2984  19.3405  19.3407
    19.5717  19.5718  19.7191  19.7194  19.7507  19.7508  19.7508  19.7510
    19.8789  19.8789  19.8790  19.8790  20.3285  20.3287  20.3363  20.3365
    20.3637  20.3639  20.4665  20.4667  20.5139  20.5141  20.6198  20.6199
    20.6285  20.6286  20.6286  20.6287  21.1487  21.1487  21.1487  21.1489
    21.1559  21.1560  21.1917  21.1919  21.1919  21.1921  23.3327  23.3327
    23.3330  23.3330

          k = 0.1663 0.2771 0.2771 ( 11436 PWs)   bands (ev):

   -66.9360 -66.8891 -66.8889 -66.8717 -66.8642 -66.8552 -66.8549 -66.8447
   -66.8357 -66.8355 -66.8353 -66.8301 -66.8294 -66.8159 -66.8156 -66.7788
   -33.2123 -33.2025 -33.2025 -33.1724 -33.1724 -33.1499 -33.1240 -33.1220
   -33.1219 -33.1219 -33.1073 -33.0846 -33.0728 -33.0478 -33.0171 -32.9862
   -32.9832 -32.9829 -32.9734 -32.9733 -32.9499 -32.9251 -32.9249 -32.9239
   -32.8781 -32.8679 -32.8677 -32.8602 -32.8599 -32.8394 -32.8382 -32.8233
   -32.8131 -32.8110 -32.8016 -32.8014 -32.7796 -32.7545 -32.7430 -32.7357
   -32.7356 -32.7325 -32.7324 -32.7106 -32.7106 -32.7089 -32.6933 -32.6906
    12.2543  14.2612  14.2613  15.0207  15.1916  15.5601  15.5602  15.9248
    15.9430  15.9431  16.0159  16.0428  16.3055  16.3713  16.3714  16.6898
    16.8718  16.9283  16.9283  17.1300  17.1529  17.2715  17.2715  17.3478
    17.3533  17.3694  17.3999  17.3999  17.6438  17.6539  17.7356  18.0007
    18.0008  18.0991  18.1459  18.1461  18.2076  18.2185  18.3071  18.3726
    18.4321  18.4322  18.5788  18.5789  18.6493  18.7137  18.7139  19.1502
    19.5032  19.5032  19.5368  19.6614  19.7339  19.7341  19.8754  19.9150
    20.0687  20.0687  20.0737  20.0740  20.0932  20.1674  20.2051  20.2052
    20.2426  20.4488  20.4518  20.4526  20.4793  20.5100  20.5187  20.5190
    20.5352  20.7230  20.7230  20.8344  20.8635  20.9803  20.9804  20.9985
    20.9988  21.0895  21.2660  21.3647  21.3692  22.2279  22.2281  23.1677
    23.9431  23.9434

          k = 0.1663 0.2771 0.3879 ( 11437 PWs)   bands (ev):

   -66.9272 -66.9033 -66.8842 -66.8715 -66.8684 -66.8598 -66.8530 -66.8475
   -66.8353 -66.8351 -66.8332 -66.8303 -66.8252 -66.8180 -66.8038 -66.7852
   -33.1974 -33.1853 -33.1790 -33.1617 -33.1493 -33.1441 -33.1411 -33.1364
   -33.1270 -33.1182 -33.1161 -33.1123 -33.0785 -33.0562 -33.0259 -33.0049
   -33.0007 -32.9668 -32.9582 -32.9526 -32.9493 -32.9407 -32.9389 -32.9382
   -32.8983 -32.8762 -32.8673 -32.8525 -32.8505 -32.8424 -32.8361 -32.8265
   -32.8074 -32.7908 -32.7895 -32.7787 -32.7720 -32.7631 -32.7503 -32.7409
   -32.7320 -32.7315 -32.7249 -32.7159 -32.7146 -32.7146 -32.6956 -32.6932
    12.6295  13.6610  14.4992  14.9961  15.2104  15.4980  15.8585  16.0886
    16.0970  16.1537  16.1795  16.2166  16.3387  16.3500  16.3904  16.5862
    16.6153  16.6638  17.1142  17.1332  17.2129  17.2171  17.2574  17.3016
    17.3832  17.4751  17.4971  17.5369  17.6200  17.7621  17.7989  17.8090
    17.9209  17.9812  18.0398  18.0776  18.0981  18.1294  18.1593  18.1725
    18.1971  18.2146  18.2394  18.2585  18.3386  18.4170  18.9311  19.3606
    19.5548  19.6573  19.7244  19.7259  19.7298  19.7716  19.7903  19.8334
    19.9723  19.9859  19.9890  20.0835  20.0871  20.1753  20.2540  20.3088
    20.3632  20.3813  20.3883  20.4691  20.5090  20.5114  20.5488  20.5647
    20.5707  20.5819  20.5900  20.6916  20.7862  20.8912  21.0073  21.0698
    21.1239  21.1411  21.2722  21.2982  21.3605  21.9047  22.8333  23.4839
    23.9797  24.0994

          k = 0.1663 0.2771-0.4988 ( 11418 PWs)   bands (ev):

   -66.9163 -66.9161 -66.8784 -66.8782 -66.8645 -66.8643 -66.8504 -66.8502
   -66.8352 -66.8350 -66.8316 -66.8314 -66.8213 -66.8210 -66.7936 -66.7934
   -33.1758 -33.1757 -33.1637 -33.1636 -33.1496 -33.1494 -33.1492 -33.1490
   -33.1254 -33.1252 -33.1119 -33.1118 -33.0701 -33.0700 -33.0329 -33.0327
   -32.9759 -32.9757 -32.9554 -32.9552 -32.9482 -32.9481 -32.9284 -32.9283
   -32.8941 -32.8940 -32.8732 -32.8730 -32.8469 -32.8468 -32.8158 -32.8156
   -32.8062 -32.8062 -32.7684 -32.7683 -32.7592 -32.7590 -32.7501 -32.7500
   -32.7462 -32.7459 -32.7217 -32.7216 -32.7030 -32.7030 -32.7012 -32.7011
    13.1059  13.1063  14.7573  14.7576  15.3820  15.3822  16.2157  16.2160
    16.2402  16.2404  16.2475  16.2476  16.2972  16.2974  16.4246  16.4249
    16.4297  16.4299  17.1653  17.1656  17.2354  17.2356  17.4067  17.4069
    17.4217  17.4219  17.5108  17.5110  17.6258  17.6260  17.8402  17.8402
    17.9940  17.9943  18.0170  18.0171  18.0189  18.0190  18.0694  18.0696
    18.1367  18.1369  18.1384  18.1385  18.2077  18.2079  19.2176  19.2177
    19.5888  19.5891  19.7413  19.7415  19.8321  19.8324  19.8734  19.8736
    19.9201  19.9202  19.9271  19.9272  20.2815  20.2816  20.2844  20.2846
    20.3189  20.3190  20.4168  20.4171  20.5029  20.5030  20.5095  20.5097
    20.5958  20.5960  20.6492  20.6493  20.7972  20.7973  20.9604  20.9605
    21.2252  21.2253  21.2777  21.2778  21.5883  21.5886  23.4620  23.4624
    23.7798  23.7801

          k = 0.1663 0.3879 0.3879 ( 11416 PWs)   bands (ev):

   -66.9192 -66.8973 -66.8971 -66.8810 -66.8653 -66.8575 -66.8572 -66.8510
   -66.8342 -66.8334 -66.8332 -66.8309 -66.8181 -66.8075 -66.8072 -66.7909
   -33.1879 -33.1666 -33.1666 -33.1499 -33.1498 -33.1455 -33.1413 -33.1413
   -33.1377 -33.1321 -33.1259 -33.0968 -33.0720 -33.0430 -33.0015 -32.9963
   -32.9961 -32.9824 -32.9820 -32.9657 -32.9630 -32.9628 -32.9623 -32.9278
   -32.8922 -32.8688 -32.8663 -32.8660 -32.8588 -32.8586 -32.8476 -32.8082
   -32.8058 -32.7805 -32.7802 -32.7726 -32.7722 -32.7545 -32.7480 -32.7479
   -32.7383 -32.7305 -32.7305 -32.7295 -32.7023 -32.7022 -32.6926 -32.6912
    12.9876  13.9537  13.9538  14.6599  15.4357  15.7923  15.7924  16.2302
    16.2515  16.3256  16.3257  16.3945  16.3946  16.4106  16.4302  16.4760
    16.6383  16.8762  16.8763  17.1384  17.1976  17.2443  17.3091  17.3092
    17.3387  17.3388  17.4795  17.4941  17.5000  17.5542  17.7616  17.8444
    17.8445  17.8555  17.9187  17.9188  17.9888  17.9889  18.0036  18.0403
    18.0633  18.0998  18.1000  18.1864  18.1958  18.6081  18.6084  19.1967
    19.6048  19.7643  19.8332  19.8332  19.8573  19.8916  19.8919  19.9004
    20.0187  20.0796  20.0988  20.0988  20.1329  20.1333  20.1485  20.1486
    20.2904  20.3171  20.3188  20.3701  20.3998  20.4879  20.4880  20.5148
    20.5415  20.5418  20.5905  20.6000  20.7543  20.8076  20.8079  20.8286
    21.2522  21.2523  21.3129  21.3902  21.6499  22.4312  22.4314  23.5334
    23.8933  24.6112

          k = 0.1663 0.3879-0.4988 ( 11426 PWs)   bands (ev):

   -66.9092 -66.9089 -66.8898 -66.8896 -66.8617 -66.8615 -66.8544 -66.8542
   -66.8337 -66.8335 -66.8320 -66.8317 -66.8123 -66.8120 -66.7984 -66.7981
   -33.1715 -33.1714 -33.1542 -33.1541 -33.1454 -33.1453 -33.1437 -33.1436
   -33.1391 -33.1390 -33.1189 -33.1188 -33.0278 -33.0278 -33.0222 -33.0220
   -32.9862 -32.9861 -32.9815 -32.9814 -32.9691 -32.9690 -32.9371 -32.9370
   -32.8969 -32.8969 -32.8642 -32.8641 -32.8528 -32.8527 -32.8352 -32.8351
   -32.7927 -32.7925 -32.7585 -32.7584 -32.7573 -32.7570 -32.7506 -32.7504
   -32.7495 -32.7494 -32.7297 -32.7296 -32.6949 -32.6948 -32.6942 -32.6941
    13.4376  13.4380  14.2994  14.2997  15.6487  15.6489  16.1288  16.1291
    16.3354  16.3356  16.3453  16.3455  16.4575  16.4577  16.5421  16.5423
    16.6371  16.6374  17.1716  17.1718  17.2322  17.2324  17.2353  17.2354
    17.2428  17.2430  17.4026  17.4028  17.6502  17.6503  17.6790  17.6792
    17.7985  17.7987  17.8571  17.8573  17.9064  17.9066  17.9383  17.9385
    18.1019  18.1021  18.1408  18.1410  18.3147  18.3147  18.8722  18.8722
    19.8022  19.8024  19.8597  19.8599  19.9559  19.9561  19.9895  19.9896
    20.0082  20.0083  20.0093  20.0095  20.1171  20.1173  20.2206  20.2208
    20.2310  20.2312  20.3605  20.3607  20.3938  20.3939  20.4711  20.4712
    20.5265  20.5267  20.5724  20.5726  20.6738  20.6739  20.8103  20.8104
    21.3112  21.3112  21.3500  21.3501  22.0359  22.0361  22.9782  22.9786
    24.2932  24.2934

          k = 0.1663-0.4988-0.4988 ( 11400 PWs)   bands (ev):

   -66.9003 -66.9002 -66.9000 -66.8998 -66.8583 -66.8583 -66.8581 -66.8579
   -66.8327 -66.8326 -66.8324 -66.8322 -66.8047 -66.8046 -66.8045 -66.8042
   -33.1602 -33.1602 -33.1602 -33.1600 -33.1467 -33.1467 -33.1466 -33.1466
   -33.1283 -33.1283 -33.1282 -33.1282 -33.0044 -33.0043 -33.0041 -33.0040
   -32.9834 -32.9834 -32.9834 -32.9832 -32.9827 -32.9826 -32.9822 -32.9822
   -32.8657 -32.8655 -32.8653 -32.8653 -32.8584 -32.8584 -32.8584 -32.8582
   -32.7730 -32.7730 -32.7727 -32.7725 -32.7520 -32.7520 -32.7518 -32.7518
   -32.7399 -32.7398 -32.7398 -32.7397 -32.6918 -32.6918 -32.6917 -32.6916
    13.8461  13.8462  13.8464  13.8466  15.9251  15.9252  15.9254  15.9254
    16.3643  16.3643  16.3644  16.3646  16.5889  16.5891  16.5892  16.5892
    16.8978  16.8978  16.8980  16.8981  17.1691  17.1691  17.1692  17.1693
    17.3153  17.3155  17.3155  17.3156  17.6507  17.6508  17.6508  17.6511
    17.7731  17.7734  17.7734  17.7735  17.8550  17.8552  17.8552  17.8554
    18.1017  18.1017  18.1018  18.1022  18.5642  18.5643  18.5645  18.5645
    19.9372  19.9372  19.9373  19.9376  20.0140  20.0140  20.0141  20.0143
    20.1201  20.1201  20.1203  20.1203  20.1296  20.1297  20.1298  20.1298
    20.1564  20.1569  20.1570  20.1570  20.3438  20.3439  20.3440  20.3443
    20.5495  20.5495  20.5498  20.5499  20.7186  20.7186  20.7189  20.7190
    21.3599  21.3600  21.3600  21.3601  22.5034  22.5038  22.5039  22.5040
    24.8114  24.8117

          k = 0.2771 0.2771 0.2771 ( 11443 PWs)   bands (ev):

   -66.9302 -66.8860 -66.8860 -66.8856 -66.8623 -66.8623 -66.8620 -66.8485
   -66.8336 -66.8304 -66.8304 -66.8300 -66.8172 -66.8172 -66.8168 -66.7828
   -33.1959 -33.1958 -33.1958 -33.1466 -33.1465 -33.1465 -33.1308 -33.1307
   -33.1307 -33.1300 -33.0939 -33.0939 -33.0621 -33.0621 -33.0100 -33.0096
   -33.0096 -32.9859 -32.9858 -32.9858 -32.9581 -32.9470 -32.9467 -32.9467
   -32.8430 -32.8423 -32.8421 -32.8421 -32.8409 -32.8406 -32.8406 -32.8347
   -32.8347 -32.8036 -32.8035 -32.8035 -32.7665 -32.7506 -32.7504 -32.7504
   -32.7256 -32.7256 -32.7256 -32.7087 -32.7086 -32.7086 -32.7028 -32.7028
    12.5076  14.4503  14.4503  14.4504  15.4153  15.4154  15.4154  16.0987
    16.0989  16.0989  16.1424  16.1424  16.4984  16.4985  16.4985  16.7079
    16.9153  16.9160  16.9162  16.9162  17.1304  17.1304  17.3246  17.3246
    17.3246  17.4904  17.4904  17.5250  17.5251  17.5251  17.8610  17.8613
    17.8613  18.0118  18.0118  18.0120  18.1167  18.1168  18.1168  18.1757
    18.1757  18.3099  18.3099  18.3100  18.4485  18.4488  18.4488  19.3585
    19.5433  19.6369  19.6370  19.6370  19.8577  19.8579  19.8579  19.9998
    19.9998  19.9998  20.1653  20.1653  20.1959  20.1960  20.1960  20.3333
    20.3337  20.3337  20.4557  20.4558  20.4565  20.4567  20.4567  20.4845
    20.4845  20.7311  20.7312  20.7312  20.9633  20.9633  20.9635  21.0265
    21.0265  21.0891  21.0893  21.0893  21.8352  21.8354  21.8354  24.1106
    24.2370  24.2370

          k = 0.2771 0.2771 0.3879 ( 11426 PWs)   bands (ev):

   -66.9220 -66.8993 -66.8814 -66.8812 -66.8693 -66.8690 -66.8595 -66.8523
   -66.8321 -66.8305 -66.8259 -66.8256 -66.8192 -66.8190 -66.8060 -66.7887
   -33.1823 -33.1822 -33.1714 -33.1456 -33.1456 -33.1424 -33.1342 -33.1313
   -33.1147 -33.1146 -33.1116 -33.1035 -33.0739 -33.0433 -33.0431 -33.0351
   -33.0193 -32.9882 -32.9881 -32.9750 -32.9675 -32.9662 -32.9661 -32.9289
   -32.8819 -32.8696 -32.8450 -32.8422 -32.8276 -32.8274 -32.8142 -32.8141
   -32.8083 -32.8082 -32.7948 -32.7719 -32.7687 -32.7686 -32.7566 -32.7485
   -32.7310 -32.7209 -32.7186 -32.7185 -32.7127 -32.7093 -32.7092 -32.7012
    12.8746  13.8755  14.7016  14.7016  15.2220  15.2220  15.7329  16.2645
    16.2646  16.2871  16.3022  16.3292  16.5280  16.5281  16.5402  16.5413
    16.6838  16.6980  17.0423  17.0424  17.1598  17.2676  17.3248  17.3274
    17.3862  17.4221  17.4222  17.5976  17.5976  17.6551  17.7095  17.7096
    17.8492  17.8493  17.9106  17.9107  17.9501  17.9613  17.9745  17.9861
    18.0565  18.0566  18.0644  18.1166  18.1915  18.1916  18.5992  19.1766
    19.5946  19.7731  19.8074  19.8075  19.9104  19.9105  19.9505  19.9505
    20.0545  20.1096  20.1141  20.1189  20.1189  20.1438  20.2487  20.2628
    20.3883  20.3992  20.4602  20.4607  20.4627  20.4627  20.4961  20.4963
    20.5175  20.5519  20.7282  20.8469  20.8603  20.8604  21.0001  21.0002
    21.0661  21.1050  21.1051  21.1117  21.4839  21.4841  22.3732  23.5152
    24.5707  24.5707

          k = 0.2771 0.2771-0.4988 ( 11432 PWs)   bands (ev):

   -66.9116 -66.9114 -66.8761 -66.8757 -66.8754 -66.8753 -66.8562 -66.8560
   -66.8313 -66.8310 -66.8225 -66.8221 -66.8218 -66.8217 -66.7965 -66.7963
   -33.1643 -33.1643 -33.1642 -33.1642 -33.1404 -33.1402 -33.1385 -33.1384
   -33.1246 -33.1244 -33.0795 -33.0794 -33.0791 -33.0789 -33.0489 -33.0487
   -33.0057 -33.0055 -32.9810 -32.9809 -32.9809 -32.9808 -32.9244 -32.9243
   -32.8989 -32.8988 -32.8456 -32.8454 -32.8163 -32.8162 -32.8162 -32.8160
   -32.7902 -32.7902 -32.7898 -32.7896 -32.7602 -32.7600 -32.7506 -32.7505
   -32.7442 -32.7440 -32.7129 -32.7127 -32.7127 -32.7127 -32.7044 -32.7043
    13.3387  13.3390  14.9742  14.9743  14.9745  14.9746  16.1200  16.1203
    16.4211  16.4212  16.4213  16.4214  16.4544  16.4546  16.4702  16.4706
    16.5622  16.5623  17.2087  17.2090  17.2918  17.2920  17.3269  17.3270
    17.3273  17.3274  17.5556  17.5556  17.5559  17.5561  17.6138  17.6139
    17.8263  17.8265  17.9158  17.9161  17.9162  17.9163  17.9647  17.9649
    17.9650  17.9651  17.9936  17.9938  18.0448  18.0450  18.8496  18.8497
    19.8488  19.8490  19.9189  19.9191  19.9264  19.9266  19.9266  19.9267
    19.9783  19.9783  19.9785  19.9785  20.2823  20.2825  20.3160  20.3162
    20.3779  20.3781  20.4129  20.4131  20.4619  20.4621  20.4976  20.4977
    20.4979  20.4979  20.6683  20.6684  21.0637  21.0638  21.0638  21.0639
    21.1214  21.1215  21.1511  21.1515  21.1516  21.1517  22.9375  22.9379
    24.8428  24.8430

          k = 0.2771 0.3879 0.3879 ( 11438 PWs)   bands (ev):

   -66.9144 -66.8937 -66.8934 -66.8783 -66.8771 -66.8660 -66.8657 -66.8573
   -66.8297 -66.8267 -66.8265 -66.8209 -66.8191 -66.8094 -66.8091 -66.7939
   -33.1720 -33.1602 -33.1602 -33.1445 -33.1420 -33.1419 -33.1296 -33.1187
   -33.1186 -33.1179 -33.1079 -33.0801 -33.0706 -33.0664 -33.0441 -33.0211
   -33.0210 -33.0036 -33.0035 -33.0032 -32.9957 -32.9956 -32.9910 -32.9201
   -32.8983 -32.8412 -32.8409 -32.8280 -32.8279 -32.8274 -32.8110 -32.8060
   -32.7932 -32.7899 -32.7814 -32.7774 -32.7773 -32.7599 -32.7597 -32.7536
   -32.7303 -32.7293 -32.7293 -32.7224 -32.7099 -32.7099 -32.7074 -32.7041
    13.2280  14.1741  14.1741  14.8898  14.9740  15.5398  15.5398  16.2948
    16.3978  16.4097  16.4824  16.4969  16.4970  16.5778  16.5779  16.7102
    16.7787  16.8678  16.8679  16.9968  17.2316  17.2969  17.2972  17.3552
    17.3553  17.4082  17.4082  17.4818  17.5008  17.5894  17.5943  17.7551
    17.7551  17.7564  17.7638  17.7638  17.7782  17.7783  17.8106  17.9042
    17.9043  17.9292  17.9484  17.9773  18.0272  18.2848  18.2850  18.8122
    19.8601  19.9126  19.9127  19.9300  19.9735  20.0424  20.0890  20.1137
    20.1139  20.1227  20.1235  20.1235  20.1819  20.1820  20.2480  20.3396
    20.3795  20.3825  20.3828  20.3971  20.4449  20.4573  20.4576  20.5077
    20.5156  20.5157  20.5687  20.6155  20.8649  20.8651  20.8984  21.0748
    21.0749  21.0779  21.1214  21.1400  21.1897  21.9599  21.9601  22.9775
    24.9899  25.5602

          k = 0.2771 0.3879-0.4988 ( 11436 PWs)   bands (ev):

   -66.9049 -66.9047 -66.8865 -66.8863 -66.8720 -66.8717 -66.8619 -66.8617
   -66.8280 -66.8278 -66.8235 -66.8232 -66.8138 -66.8136 -66.8009 -66.8006
   -33.1574 -33.1573 -33.1495 -33.1494 -33.1335 -33.1333 -33.1316 -33.1315
   -33.1240 -33.1239 -33.0923 -33.0922 -33.0497 -33.0495 -33.0419 -33.0419
   -33.0242 -33.0241 -33.0105 -33.0104 -33.0063 -33.0062 -32.9617 -32.9616
   -32.8690 -32.8690 -32.8272 -32.8270 -32.8169 -32.8168 -32.8143 -32.8143
   -32.7891 -32.7889 -32.7746 -32.7745 -32.7547 -32.7547 -32.7546 -32.7545
   -32.7510 -32.7508 -32.7264 -32.7263 -32.7077 -32.7076 -32.7057 -32.7056
    13.6702  13.6706  14.5260  14.5263  15.2726  15.2729  15.9179  15.9182
    16.5095  16.5098  16.5178  16.5180  16.6582  16.6584  16.6815  16.6818
    16.7190  16.7192  17.1649  17.1651  17.1914  17.1916  17.2696  17.2697
    17.2878  17.2881  17.4710  17.4712  17.4845  17.4846  17.6200  17.6202
    17.6664  17.6665  17.6886  17.6888  17.8066  17.8068  17.8472  17.8473
    17.8806  17.8808  17.9552  17.9554  18.0152  18.0153  18.4998  18.4998
    20.0181  20.0183  20.0404  20.0406  20.0448  20.0450  20.0643  20.0644
    20.1027  20.1029  20.1437  20.1440  20.2606  20.2608  20.2759  20.2760
    20.3340  20.3342  20.3636  20.3638  20.3992  20.3994  20.4507  20.4509
    20.4838  20.4840  20.6798  20.6798  20.7850  20.7853  20.8653  20.8654
    21.0990  21.0991  21.1195  21.1196  21.5669  21.5672  22.4615  22.4619
    25.3716  25.3719

          k = 0.2771-0.4988-0.4988 ( 11416 PWs)   bands (ev):

   -66.8964 -66.8964 -66.8962 -66.8960 -66.8674 -66.8673 -66.8671 -66.8669
   -66.8255 -66.8254 -66.8253 -66.8250 -66.8068 -66.8067 -66.8065 -66.8062
   -33.1451 -33.1451 -33.1450 -33.1449 -33.1367 -33.1367 -33.1366 -33.1365
   -33.1077 -33.1077 -33.1076 -33.1075 -33.0348 -33.0347 -33.0345 -33.0345
   -33.0238 -33.0238 -33.0238 -33.0236 -33.0019 -33.0019 -33.0015 -33.0015
   -32.8409 -32.8408 -32.8406 -32.8406 -32.8192 -32.8192 -32.8192 -32.8191
   -32.7667 -32.7667 -32.7665 -32.7663 -32.7628 -32.7627 -32.7626 -32.7626
   -32.7419 -32.7418 -32.7418 -32.7417 -32.7055 -32.7055 -32.7055 -32.7054
    14.0772  14.0773  14.0775  14.0777  15.6105  15.6106  15.6108  15.6109
    16.5380  16.5381  16.5382  16.5384  16.8244  16.8245  16.8246  16.8246
    16.9312  16.9313  16.9315  16.9315  17.1253  17.1254  17.1255  17.1255
    17.3841  17.3843  17.3843  17.3844  17.5176  17.5178  17.5178  17.5181
    17.6899  17.6901  17.6901  17.6902  17.7150  17.7152  17.7152  17.7153
    17.8991  17.8992  17.8992  17.8996  18.2063  18.2064  18.2066  18.2066
    20.0762  20.0762  20.0763  20.0765  20.1659  20.1659  20.1661  20.1661
    20.2032  20.2032  20.2033  20.2035  20.2258  20.2259  20.2259  20.2260
    20.3268  20.3269  20.3270  20.3272  20.4556  20.4561  20.4562  20.4562
    20.4654  20.4654  20.4657  20.4658  20.7320  20.7320  20.7322  20.7324
    21.1233  21.1234  21.1235  21.1235  22.0073  22.0078  22.0078  22.0079
    25.8980  25.8982

          k = 0.3879 0.3879 0.3879 ( 11458 PWs)   bands (ev):

   -66.9074 -66.8885 -66.8885 -66.8881 -66.8742 -66.8742 -66.8739 -66.8634
   -66.8261 -66.8209 -66.8209 -66.8205 -66.8122 -66.8122 -66.8119 -66.7985
   -33.1490 -33.1489 -33.1489 -33.1355 -33.1355 -33.1355 -33.1177 -33.0971
   -33.0971 -33.0912 -33.0910 -33.0910 -33.0839 -33.0839 -33.0389 -33.0388
   -33.0388 -33.0310 -33.0306 -33.0306 -33.0232 -33.0230 -33.0230 -32.9549
   -32.8693 -32.8168 -32.8164 -32.8164 -32.8024 -32.8022 -32.8022 -32.7896
   -32.7896 -32.7775 -32.7774 -32.7774 -32.7753 -32.7751 -32.7751 -32.7567
   -32.7287 -32.7287 -32.7287 -32.7233 -32.7233 -32.7190 -32.7189 -32.7189
    13.5727  14.4815  14.4815  14.4816  15.2143  15.2143  15.2143  15.9958
    16.5843  16.5843  16.6540  16.6541  16.6541  16.8225  16.8225  16.8226
    16.8507  16.8508  16.8508  16.9395  17.2869  17.2869  17.3548  17.3548
    17.4316  17.4317  17.4317  17.4516  17.4517  17.4517  17.5408  17.5410
    17.5410  17.6607  17.6607  17.6608  17.6914  17.6916  17.6916  17.7230
    17.7230  17.7231  17.8732  17.8732  17.9750  17.9753  17.9753  18.4439
    20.0182  20.0183  20.0183  20.1532  20.1829  20.1829  20.1830  20.1858
    20.1858  20.1902  20.1903  20.1903  20.2485  20.2488  20.2488  20.3617
    20.3617  20.3908  20.3910  20.3910  20.4087  20.4088  20.4088  20.4903
    20.4903  20.7943  20.7943  20.8062  20.8065  20.8065  20.8809  20.8812
    20.8812  20.9280  20.9280  20.9281  21.5503  21.5506  21.5506  22.4783
    26.2256  26.2257

          k = 0.3879 0.3879-0.4988 ( 11434 PWs)   bands (ev):

   -66.8986 -66.8984 -66.8822 -66.8818 -66.8815 -66.8814 -66.8692 -66.8690
   -66.8232 -66.8229 -66.8164 -66.8160 -66.8157 -66.8156 -66.8047 -66.8044
   -33.1379 -33.1379 -33.1378 -33.1378 -33.1192 -33.1192 -33.1191 -33.1190
   -33.1042 -33.1041 -33.0703 -33.0701 -33.0613 -33.0611 -33.0608 -33.0606
   -33.0548 -33.0547 -33.0399 -33.0399 -33.0398 -33.0398 -32.9926 -32.9925
   -32.8419 -32.8418 -32.7969 -32.7967 -32.7944 -32.7943 -32.7940 -32.7937
   -32.7850 -32.7849 -32.7849 -32.7848 -32.7639 -32.7638 -32.7565 -32.7563
   -32.7478 -32.7476 -32.7258 -32.7258 -32.7258 -32.7257 -32.7193 -32.7191
    14.0008  14.0011  14.8437  14.8438  14.8440  14.8442  15.6019  15.6022
    16.7099  16.7102  16.7575  16.7577  16.7710  16.7710  16.7712  16.7713
    16.9112  16.9113  17.1398  17.1399  17.1402  17.1403  17.3142  17.3144
    17.3566  17.3569  17.4084  17.4086  17.4308  17.4310  17.5450  17.5450
    17.5453  17.5455  17.6565  17.6568  17.6570  17.6571  17.7168  17.7171
    17.7173  17.7173  17.7653  17.7655  17.7855  17.7858  18.1409  18.1410
    20.1070  20.1072  20.1255  20.1256  20.1257  20.1257  20.2518  20.2519
    20.2520  20.2520  20.2732  20.2734  20.2971  20.2973  20.3602  20.3603
    20.3792  20.3794  20.3842  20.3842  20.3844  20.3844  20.4675  20.4677
    20.5070  20.5071  20.6584  20.6585  20.8782  20.8782  20.8783  20.8784
    20.8975  20.8976  21.1690  21.1695  21.1696  21.1697  22.0059  22.0062
    26.5364  26.5365

          k = 0.3879-0.4988-0.4988 ( 11440 PWs)   bands (ev):

   -66.8910 -66.8909 -66.8908 -66.8905 -66.8760 -66.8760 -66.8758 -66.8756
   -66.8192 -66.8192 -66.8190 -66.8187 -66.8098 -66.8098 -66.8096 -66.8093
   -33.1231 -33.1231 -33.1231 -33.1229 -33.1190 -33.1190 -33.1189 -33.1188
   -33.0824 -33.0824 -33.0822 -33.0822 -33.0659 -33.0659 -33.0657 -33.0657
   -33.0612 -33.0612 -33.0612 -33.0610 -33.0270 -33.0270 -33.0267 -33.0267
   -32.8168 -32.8167 -32.8165 -32.8165 -32.7835 -32.7835 -32.7834 -32.7833
   -32.7771 -32.7771 -32.7769 -32.7769 -32.7596 -32.7595 -32.7594 -32.7592
   -32.7462 -32.7461 -32.7460 -32.7460 -32.7261 -32.7261 -32.7260 -32.7259
    14.4041  14.4043  14.4044  14.4046  15.2202  15.2203  15.2205  15.2206
    16.7746  16.7747  16.7748  16.7750  16.9760  16.9760  16.9762  16.9763
    17.0573  17.0574  17.0575  17.0576  17.0777  17.0778  17.0779  17.0780
    17.4642  17.4644  17.4644  17.4645  17.4786  17.4788  17.4788  17.4789
    17.4818  17.4819  17.4819  17.4822  17.6376  17.6379  17.6379  17.6379
    17.7010  17.7011  17.7011  17.7014  17.8465  17.8467  17.8468  17.8468
    20.1611  20.1612  20.1613  20.1615  20.2157  20.2157  20.2159  20.2160
    20.2993  20.2994  20.2995  20.2997  20.3670  20.3671  20.3672  20.3674
    20.3827  20.3828  20.3828  20.3829  20.4305  20.4305  20.4305  20.4308
    20.6960  20.6960  20.6961  20.6964  20.8080  20.8085  20.8085  20.8086
    20.8535  20.8537  20.8537  20.8537  21.5791  21.5796  21.5796  21.5797
    27.0856  27.0859

          k =-0.4988-0.4988-0.4988 ( 11536 PWs)   bands (ev):

   -66.8843 -66.8843 -66.8843 -66.8837 -66.8836 -66.8836 -66.8834 -66.8834
   -66.8145 -66.8144 -66.8144 -66.8138 -66.8138 -66.8138 -66.8136 -66.8135
   -33.0956 -33.0956 -33.0956 -33.0955 -33.0955 -33.0955 -33.0953 -33.0953
   -33.0951 -33.0951 -33.0951 -33.0949 -33.0949 -33.0949 -33.0949 -33.0949
   -33.0550 -33.0547 -33.0547 -33.0547 -33.0546 -33.0542 -33.0541 -33.0541
   -32.7962 -32.7959 -32.7959 -32.7959 -32.7958 -32.7954 -32.7953 -32.7953
   -32.7525 -32.7525 -32.7525 -32.7522 -32.7522 -32.7522 -32.7522 -32.7521
   -32.7520 -32.7520 -32.7520 -32.7517 -32.7517 -32.7517 -32.7516 -32.7516
    14.7993  14.7995  14.7995  14.7995  14.7997  14.7997  14.7997  14.8000
    17.0263  17.0263  17.0263  17.0265  17.0265  17.0265  17.0265  17.0265
    17.0266  17.0266  17.0267  17.0268  17.0268  17.0268  17.0271  17.0271
    17.5313  17.5320  17.5320  17.5320  17.5322  17.5323  17.5323  17.5323
    17.5508  17.5508  17.5510  17.5510  17.5510  17.5513  17.5513  17.5513
    17.5514  17.5514  17.5514  17.5515  17.5515  17.5515  17.5518  17.5518
    20.2615  20.2615  20.2615  20.2615  20.2616  20.2616  20.2620  20.2620
    20.2620  20.2621  20.2622  20.2622  20.2622  20.2623  20.2623  20.2623
    20.5961  20.5961  20.5961  20.5961  20.5961  20.5964  20.5964  20.5964
    20.5965  20.5965  20.5965  20.5967  20.5967  20.5967  20.5969  20.5969
    21.1839  21.1849  21.1849  21.1849  21.1850  21.1850  21.1850  21.1851
    28.2481  28.2482

     the Fermi energy is    20.3280 ev

!    total energy              =   -5267.70960380 Ry
     Harris-Foulkes estimate   =   -5267.70963504 Ry
     estimated scf accuracy    <       0.00004184 Ry

     total all-electron energy =    -40728.454133 Ry

     The total energy is the sum of the following terms:

     one-electron contribution =   -1631.43281815 Ry
     hartree contribution      =     993.31885117 Ry
     xc contribution           =    -442.90484043 Ry
     ewald contribution        =   -2861.79576651 Ry
     one-center paw contrib.   =   -1324.76195538 Ry
     smearing contrib. (-TS)   =      -0.13307450 Ry

     convergence has been achieved in  10 iterations

     Forces acting on atoms (cartesian axes, Ry/au):

     atom    1 type  1   force =     0.00000000    0.00000000    0.00000000
     atom    2 type  1   force =     0.00012451    0.00012451    0.00012451
     atom    3 type  1   force =     0.00000000    0.00000000    0.00000000
     atom    4 type  1   force =     0.00012451    0.00012451   -0.00012451
     atom    5 type  1   force =     0.00000000    0.00000000   -0.00000000
     atom    6 type  1   force =     0.00012451   -0.00012451    0.00012451
     atom    7 type  1   force =     0.00000000    0.00000000   -0.00000000
     atom    8 type  1   force =     0.00012451   -0.00012451   -0.00012451
     atom    9 type  1   force =     0.00000000    0.00000000    0.00000000
     atom   10 type  1   force =    -0.00012451    0.00012451    0.00012451
     atom   11 type  1   force =     0.00000000    0.00000000    0.00000000
     atom   12 type  1   force =    -0.00012451    0.00012451   -0.00012451
     atom   13 type  1   force =     0.00000000    0.00000000    0.00000000
     atom   14 type  1   force =    -0.00012451   -0.00012451    0.00012451
     atom   15 type  1   force =     0.00000000    0.00000000    0.00000000
     atom   16 type  1   force =    -0.00012451   -0.00012451   -0.00012451

     Total force =     0.000610     Total SCF correction =     0.000549
     SCF correction compared to forces is large: reduce conv_thr to get better values


     Computing stress (Cartesian axis) and pressure

          total   stress  (Ry/bohr**3)                   (kbar)     P=   20.34
   0.00013827   0.00000000   0.00000000         20.34      0.00      0.00
   0.00000000   0.00013827   0.00000000          0.00     20.34      0.00
   0.00000000   0.00000000   0.00013827          0.00      0.00     20.34


     Writing output data file AIvvGnQKTGobVqFI.save/
 
     init_run     :      3.14s CPU      3.35s WALL (       1 calls)
     electrons    :    113.08s CPU    116.82s WALL (       1 calls)
     forces       :      1.08s CPU      1.18s WALL (       1 calls)
     stress       :      2.98s CPU      3.02s WALL (       1 calls)

     Called by init_run:
     wfcinit      :      2.85s CPU      2.96s WALL (       1 calls)
     potinit      :      0.13s CPU      0.16s WALL (       1 calls)
     hinit0       :      0.08s CPU      0.09s WALL (       1 calls)

     Called by electrons:
     c_bands      :    101.48s CPU    104.42s WALL (      11 calls)
     sum_band     :     10.60s CPU     11.19s WALL (      11 calls)
     v_of_rho     :      0.09s CPU      0.18s WALL (      11 calls)
     newd         :      0.15s CPU      0.20s WALL (      11 calls)
     PAW_pot      :      0.78s CPU      0.83s WALL (      11 calls)
     mix_rho      :      0.03s CPU      0.05s WALL (      11 calls)

     Called by c_bands:
     init_us_2    :      0.54s CPU      0.55s WALL (     875 calls)
     cegterg      :     98.84s CPU    101.74s WALL (     385 calls)

     Called by sum_band:
     sum_band:bec :      0.16s CPU      0.16s WALL (     385 calls)
     addusdens    :      0.16s CPU      0.20s WALL (      11 calls)

     Called by *egterg:
     h_psi        :     42.36s CPU     44.15s WALL (    1331 calls)
     s_psi        :      2.31s CPU      2.33s WALL (    1331 calls)
     g_psi        :      0.09s CPU      0.09s WALL (     911 calls)
     cdiaghg      :     45.62s CPU     45.74s WALL (    1261 calls)

     Called by h_psi:
     h_psi:pot    :     42.13s CPU     43.92s WALL (    1331 calls)
     h_psi:calbec :      3.42s CPU      4.03s WALL (    1331 calls)
     vloc_psi     :     36.34s CPU     37.51s WALL (    1331 calls)
     add_vuspsi   :      2.35s CPU      2.38s WALL (    1331 calls)

     General routines
     calbec       :      5.81s CPU      6.77s WALL (    1891 calls)
     fft          :      0.12s CPU      0.27s WALL (     168 calls)
     ffts         :      0.01s CPU      0.05s WALL (      22 calls)
     fftw         :     42.23s CPU     43.56s WALL (  326438 calls)
     interpolate  :      0.02s CPU      0.03s WALL (      11 calls)
 
     Parallel routines
     fft_scatt_xy :      2.83s CPU      2.92s WALL (  326628 calls)
     fft_scatt_yz :     28.42s CPU     29.50s WALL (  326628 calls)
 
     PWSCF        :  2m 3.12s CPU     2m10.48s WALL

 
   This run was terminated on:   6:22:27   5Sep2020            

=------------------------------------------------------------------------------=
   JOB DONE.
=------------------------------------------------------------------------------=
