--------------------------------------------------------------------------
WARNING: There was an error initializing an OpenFabrics device.

  Local host:   bear-pg0211u07b
  Local device: mlx5_0
--------------------------------------------------------------------------

     Program PWSCF v.6.3 starts on  5Sep2020 at  6:22:28 

     This program is part of the open-source Quantum ESPRESSO suite
     for quantum simulation of materials; please cite
         "P. Giannozzi et al., J. Phys.:Condens. Matter 21 395502 (2009);
         "P. Giannozzi et al., J. Phys.:Condens. Matter 29 465901 (2017);
          URL http://www.quantum-espresso.org", 
     in publications or presentations arising from this work. More details at
     http://www.quantum-espresso.org/quote

     Parallel version (MPI & OpenMP), running on      40 processor cores
     Number of MPI processes:                40
     Threads/MPI process:                     1

     MPI processes distributed on     1 nodes
     R & G space division:  proc/nbgrp/npool/nimage =      40
     Reading input from wd/eos/eos_008.in
Warning: card &IONS ignored
Warning: card ION_DYNAMICS = 'BFGS', ignored
Warning: card / ignored
Warning: card &CELL ignored
Warning: card CELL_DYNAMICS = 'BFGS', ignored
Warning: card CELL_FACTOR = 2.0, ignored
Warning: card PRESS = 0.0, ignored
Warning: card / ignored

     Current dimensions of program PWSCF are:
     Max number of different atomic species (ntypx) = 10
     Max number of k-points (npk) =  40000
     Max angular momentum in pseudopotentials (lmaxx) =  3
               file Fe.pbe-spn-kjpaw_psl.1.0.0.UPF: wavefunction(s)  3P 3D renormalized

     Subspace diagonalization in iterative solution of the eigenvalue problem:
     a serial algorithm will be used

 
     Parallelization info
     --------------------
     sticks:   dense  smooth     PW     G-vecs:    dense   smooth      PW
     Min          93      61     17                 4265     2297     339
     Max          94      62     18                 4271     2302     343
     Sum        3721    2449    681               170709    91911   13613
 


     bravais-lattice index     =            0
     lattice parameter (alat)  =      10.3915  a.u.
     unit-cell volume          =    1134.7683 (a.u.)^3
     number of atoms/cell      =           16
     number of atomic types    =            1
     number of electrons       =       256.00
     number of Kohn-Sham states=          154
     kinetic-energy cutoff     =      71.0000  Ry
     charge density cutoff     =     430.0000  Ry
     convergence threshold     =      5.0E-05
     mixing beta               =       0.1000
     number of iterations used =           10  plain     mixing
     Exchange-correlation      = SLA PW PBX PBC ( 1  4  3  4 0 0)

     celldm(1)=  10.391466  celldm(2)=   0.000000  celldm(3)=   0.000000
     celldm(4)=   0.000000  celldm(5)=   0.000000  celldm(6)=   0.000000

     crystal axes: (cart. coord. in units of alat)
               a(1) = (   1.003750   0.000000   0.000000 )  
               a(2) = (   0.000000   1.003750   0.000000 )  
               a(3) = (   0.000000   0.000000   1.003750 )  

     reciprocal axes: (cart. coord. in units 2 pi/alat)
               b(1) = (  0.996264  0.000000  0.000000 )  
               b(2) = (  0.000000  0.996264  0.000000 )  
               b(3) = (  0.000000  0.000000  0.996264 )  


     PseudoPot. # 1 for Fe read from file:
     /rds/homes/b/bxp912/pp/Fe.pbe-spn-kjpaw_psl.1.0.0.UPF
     MD5 check sum: 42f43b795421b414b0dc916aa790dbcb
     Pseudo is Projector augmented-wave + core cor, Zval = 16.0
     Generated using "atomic" code by A. Dal Corso v.6.3
     Shape of augmentation charge: PSQ
     Using radial grid of 1191 points,  6 beta functions with: 
                l(1) =   0
                l(2) =   0
                l(3) =   1
                l(4) =   1
                l(5) =   2
                l(6) =   2
     Q(r) pseudized with 0 coefficients 


     atomic species   valence    mass     pseudopotential
        Fe            16.00    55.84500     Fe( 1.00)

     48 Sym. Ops., with inversion, found



   Cartesian axes

     site n.     atom                  positions (alat units)
         1           Fe  tau(   1) = (   0.0000000   0.0000000   0.0000000  )
         2           Fe  tau(   2) = (   0.2509464   0.2509464   0.2509464  )
         3           Fe  tau(   3) = (   0.0000000   0.0000000   0.5018745  )
         4           Fe  tau(   4) = (   0.2509464   0.2509464   0.7528036  )
         5           Fe  tau(   5) = (   0.0000000   0.5018751   0.0000000  )
         6           Fe  tau(   6) = (   0.2509464   0.7528037   0.2509464  )
         7           Fe  tau(   7) = (   0.0000000   0.5018751   0.5018745  )
         8           Fe  tau(   8) = (   0.2509464   0.7528037   0.7528036  )
         9           Fe  tau(   9) = (   0.5018751   0.0000000   0.0000000  )
        10           Fe  tau(  10) = (   0.7528037   0.2509464   0.2509464  )
        11           Fe  tau(  11) = (   0.5018751   0.0000000   0.5018745  )
        12           Fe  tau(  12) = (   0.7528037   0.2509464   0.7528036  )
        13           Fe  tau(  13) = (   0.5018751   0.5018751   0.0000000  )
        14           Fe  tau(  14) = (   0.7528037   0.7528037   0.2509464  )
        15           Fe  tau(  15) = (   0.5018751   0.5018751   0.5018745  )
        16           Fe  tau(  16) = (   0.7528037   0.7528037   0.7528036  )

     number of k points=    35  Marzari-Vanderbilt smearing, width (Ry)=  0.0400
                       cart. coord. in units 2pi/alat
        k(    1) = (   0.0553480   0.0553480   0.0553480), wk =   0.0219479
        k(    2) = (   0.0553480   0.0553480   0.1660440), wk =   0.0658436
        k(    3) = (   0.0553480   0.0553480   0.2767400), wk =   0.0658436
        k(    4) = (   0.0553480   0.0553480   0.3874360), wk =   0.0658436
        k(    5) = (   0.0553480   0.0553480  -0.4981320), wk =   0.0329218
        k(    6) = (   0.0553480   0.1660440   0.1660440), wk =   0.0658436
        k(    7) = (   0.0553480   0.1660440   0.2767400), wk =   0.1316872
        k(    8) = (   0.0553480   0.1660440   0.3874360), wk =   0.1316872
        k(    9) = (   0.0553480   0.1660440  -0.4981320), wk =   0.0658436
        k(   10) = (   0.0553480   0.2767400   0.2767400), wk =   0.0658436
        k(   11) = (   0.0553480   0.2767400   0.3874360), wk =   0.1316872
        k(   12) = (   0.0553480   0.2767400  -0.4981320), wk =   0.0658436
        k(   13) = (   0.0553480   0.3874360   0.3874360), wk =   0.0658436
        k(   14) = (   0.0553480   0.3874360  -0.4981320), wk =   0.0658436
        k(   15) = (   0.0553480  -0.4981320  -0.4981320), wk =   0.0164609
        k(   16) = (   0.1660440   0.1660440   0.1660440), wk =   0.0219479
        k(   17) = (   0.1660440   0.1660440   0.2767400), wk =   0.0658436
        k(   18) = (   0.1660440   0.1660440   0.3874360), wk =   0.0658436
        k(   19) = (   0.1660440   0.1660440  -0.4981320), wk =   0.0329218
        k(   20) = (   0.1660440   0.2767400   0.2767400), wk =   0.0658436
        k(   21) = (   0.1660440   0.2767400   0.3874360), wk =   0.1316872
        k(   22) = (   0.1660440   0.2767400  -0.4981320), wk =   0.0658436
        k(   23) = (   0.1660440   0.3874360   0.3874360), wk =   0.0658436
        k(   24) = (   0.1660440   0.3874360  -0.4981320), wk =   0.0658436
        k(   25) = (   0.1660440  -0.4981320  -0.4981320), wk =   0.0164609
        k(   26) = (   0.2767400   0.2767400   0.2767400), wk =   0.0219479
        k(   27) = (   0.2767400   0.2767400   0.3874360), wk =   0.0658436
        k(   28) = (   0.2767400   0.2767400  -0.4981320), wk =   0.0329218
        k(   29) = (   0.2767400   0.3874360   0.3874360), wk =   0.0658436
        k(   30) = (   0.2767400   0.3874360  -0.4981320), wk =   0.0658436
        k(   31) = (   0.2767400  -0.4981320  -0.4981320), wk =   0.0164609
        k(   32) = (   0.3874360   0.3874360   0.3874360), wk =   0.0219479
        k(   33) = (   0.3874360   0.3874360  -0.4981320), wk =   0.0329218
        k(   34) = (   0.3874360  -0.4981320  -0.4981320), wk =   0.0164609
        k(   35) = (  -0.4981320  -0.4981320  -0.4981320), wk =   0.0027435

     Dense  grid:   170709 G-vectors     FFT dimensions: (  72,  72,  72)

     Smooth grid:    91911 G-vectors     FFT dimensions: (  60,  60,  60)

     Estimated max dynamical RAM per process >      57.04 MB

     Estimated total dynamical RAM >       2.23 GB

     Check: negative/imaginary core charge=   -0.000006    0.000000

     Initial potential from superposition of free atoms

     starting charge  255.99300, renormalised to  256.00000
     Starting wfcs are  160 randomized atomic wfcs
     Checking if some PAW data can be deallocated... 

     total cpu time spent up to now is        4.1 secs

     Self-consistent Calculation

     iteration #  1     ecut=    71.00 Ry     beta= 0.10
     Davidson diagonalization with overlap
     ethr =  1.00E-02,  avg # of iterations =  3.3

     Threshold (ethr) on eigenvalues was too large:
     Diagonalizing with lowered threshold

     Davidson diagonalization with overlap
     ethr =  2.50E-04,  avg # of iterations =  3.0

     total cpu time spent up to now is       29.2 secs

     total energy              =   -5267.75298143 Ry
     Harris-Foulkes estimate   =   -5267.86655601 Ry
     estimated scf accuracy    <       0.71989614 Ry

     iteration #  2     ecut=    71.00 Ry     beta= 0.10
     Davidson diagonalization with overlap
     ethr =  2.81E-04,  avg # of iterations =  1.0

     total cpu time spent up to now is       36.9 secs

     total energy              =   -5267.62150067 Ry
     Harris-Foulkes estimate   =   -5267.76800899 Ry
     estimated scf accuracy    <       0.35528099 Ry

     iteration #  3     ecut=    71.00 Ry     beta= 0.10
     Davidson diagonalization with overlap
     ethr =  1.39E-04,  avg # of iterations =  3.2

     total cpu time spent up to now is       51.3 secs

     total energy              =   -5267.70329576 Ry
     Harris-Foulkes estimate   =   -5267.72343920 Ry
     estimated scf accuracy    <       0.46702309 Ry

     iteration #  4     ecut=    71.00 Ry     beta= 0.10
     Davidson diagonalization with overlap
     ethr =  1.39E-04,  avg # of iterations =  1.0

     total cpu time spent up to now is       59.0 secs

     total energy              =   -5267.70782637 Ry
     Harris-Foulkes estimate   =   -5267.71387858 Ry
     estimated scf accuracy    <       0.02952565 Ry

     iteration #  5     ecut=    71.00 Ry     beta= 0.10
     Davidson diagonalization with overlap
     ethr =  1.15E-05,  avg # of iterations =  2.1

     total cpu time spent up to now is       68.8 secs

     total energy              =   -5267.70801202 Ry
     Harris-Foulkes estimate   =   -5267.71003014 Ry
     estimated scf accuracy    <       0.02096953 Ry

     iteration #  6     ecut=    71.00 Ry     beta= 0.10
     Davidson diagonalization with overlap
     ethr =  8.19E-06,  avg # of iterations =  2.7

     total cpu time spent up to now is       80.1 secs

     total energy              =   -5267.71060915 Ry
     Harris-Foulkes estimate   =   -5267.70989657 Ry
     estimated scf accuracy    <       0.01082389 Ry

     iteration #  7     ecut=    71.00 Ry     beta= 0.10
     Davidson diagonalization with overlap
     ethr =  4.23E-06,  avg # of iterations =  2.4

     total cpu time spent up to now is       90.2 secs

     total energy              =   -5267.70956135 Ry
     Harris-Foulkes estimate   =   -5267.71111590 Ry
     estimated scf accuracy    <       0.01302465 Ry

     iteration #  8     ecut=    71.00 Ry     beta= 0.10
     Davidson diagonalization with overlap
     ethr =  4.23E-06,  avg # of iterations =  2.1

     total cpu time spent up to now is       99.7 secs

     total energy              =   -5267.70997687 Ry
     Harris-Foulkes estimate   =   -5267.71038251 Ry
     estimated scf accuracy    <       0.00725639 Ry

     iteration #  9     ecut=    71.00 Ry     beta= 0.10
     Davidson diagonalization with overlap
     ethr =  2.83E-06,  avg # of iterations =  2.1

     total cpu time spent up to now is      109.3 secs

     total energy              =   -5267.71027583 Ry
     Harris-Foulkes estimate   =   -5267.71029506 Ry
     estimated scf accuracy    <       0.00036495 Ry

     iteration # 10     ecut=    71.00 Ry     beta= 0.10
     Davidson diagonalization with overlap
     ethr =  1.43E-07,  avg # of iterations =  3.0

     total cpu time spent up to now is      120.6 secs

     End of self-consistent calculation

          k = 0.0553 0.0553 0.0553 ( 11435 PWs)   bands (ev):

   -67.0437 -66.9487 -66.9487 -66.9484 -66.9331 -66.9331 -66.9327 -66.9320
   -66.9320 -66.9315 -66.9313 -66.9312 -66.9310 -66.9244 -66.9241 -66.8510
   -33.3318 -33.3317 -33.3317 -33.3287 -33.3287 -33.3286 -33.1701 -33.1701
   -33.1642 -33.0957 -33.0932 -33.0929 -33.0929 -33.0721 -33.0721 -33.0591
   -33.0585 -33.0585 -33.0230 -33.0230 -32.9989 -32.9839 -32.9838 -32.9838
   -32.9727 -32.9726 -32.9726 -32.9603 -32.9598 -32.9598 -32.9571 -32.9567
   -32.9567 -32.9492 -32.9492 -32.9492 -32.9389 -32.9389 -32.9388 -32.7797
   -32.7784 -32.7784 -32.7784 -32.7755 -32.7755 -32.7755 -32.7732 -32.7732
    11.2555  15.1213  15.1213  15.1214  15.2661  15.2662  15.2662  15.2922
    15.2923  15.2923  15.5430  15.5430  15.6355  15.6355  15.6355  17.0096
    17.0980  17.0980  17.1102  17.1102  17.1102  17.1240  17.1240  17.1240
    17.2368  17.2368  17.2823  17.5422  17.5425  17.5425  17.9306  17.9310
    17.9310  18.4044  18.4044  18.4510  18.7266  18.7266  18.7267  18.8294
    18.8294  18.8294  18.9159  18.9161  18.9161  19.0098  19.0098  19.0098
    19.7466  19.7471  19.7471  19.9660  19.9662  19.9662  19.9935  19.9936
    19.9936  20.1307  20.1308  20.1308  20.1324  20.1325  20.1325  20.1661
    20.1661  20.4160  20.4160  20.4160  20.4229  20.4232  20.4232  20.4685
    20.4685  20.4688  20.4688  20.9529  20.9531  20.9531  21.1726  21.2191
    21.2191  21.2191  21.2497  21.2497  21.6730  21.6730  21.6730  21.6941
    21.6941  21.6941

          k = 0.0553 0.0553 0.1660 ( 11440 PWs)   bands (ev):

   -67.0404 -66.9656 -66.9480 -66.9478 -66.9349 -66.9347 -66.9323 -66.9317
   -66.9314 -66.9309 -66.9304 -66.9302 -66.9250 -66.9245 -66.9156 -66.8536
   -33.3239 -33.3239 -33.3228 -33.3201 -33.3152 -33.3152 -33.1734 -33.1640
   -33.1543 -33.1317 -33.1232 -33.1231 -33.1210 -33.1206 -33.0905 -33.0903
   -33.0565 -33.0295 -33.0194 -33.0185 -33.0068 -32.9837 -32.9835 -32.9752
   -32.9656 -32.9636 -32.9633 -32.9624 -32.9619 -32.9544 -32.9541 -32.9498
   -32.9496 -32.9453 -32.9452 -32.9151 -32.9125 -32.9123 -32.9055 -32.7951
   -32.7875 -32.7875 -32.7861 -32.7832 -32.7790 -32.7785 -32.7785 -32.7759
    11.3922  14.4904  15.1783  15.1783  15.2754  15.2755  15.3561  15.3561
    15.3659  15.3906  15.6047  15.6072  15.6794  15.6794  15.9737  16.9023
    17.0117  17.0194  17.0925  17.1048  17.1319  17.1561  17.1599  17.1600
    17.2011  17.2011  17.4221  17.4342  17.4972  17.4974  17.8324  17.8326
    18.2783  18.3790  18.3995  18.5125  18.5153  18.5155  18.5796  18.6932
    18.6932  18.7370  19.0039  19.0040  19.1186  19.1187  19.1480  19.2471
    19.4379  19.4380  19.5058  19.7270  19.7272  19.7277  19.8861  19.9731
    19.9733  20.0712  20.0713  20.0938  20.1520  20.1540  20.1541  20.1780
    20.1948  20.2133  20.2133  20.2387  20.4261  20.4473  20.4477  20.4659
    20.4663  20.6398  20.7493  20.7494  20.9113  21.0009  21.1129  21.2276
    21.2276  21.2424  21.2812  21.2813  21.5772  21.5773  21.7391  21.7391
    21.8391  21.8391

          k = 0.0553 0.0553 0.2767 ( 11444 PWs)   bands (ev):

   -67.0339 -66.9823 -66.9466 -66.9463 -66.9372 -66.9369 -66.9314 -66.9313
   -66.9310 -66.9301 -66.9300 -66.9297 -66.9260 -66.9252 -66.9006 -66.8585
   -33.3061 -33.3061 -33.3055 -33.3033 -33.2919 -33.2919 -33.1741 -33.1722
   -33.1668 -33.1639 -33.1639 -33.1515 -33.1425 -33.1399 -33.1332 -33.1331
   -33.0519 -33.0416 -33.0397 -33.0247 -32.9820 -32.9817 -32.9769 -32.9763
   -32.9718 -32.9674 -32.9671 -32.9523 -32.9521 -32.9499 -32.9496 -32.9301
   -32.9226 -32.9113 -32.9113 -32.8834 -32.8803 -32.8801 -32.8743 -32.8195
   -32.8024 -32.8023 -32.8010 -32.7993 -32.7904 -32.7875 -32.7874 -32.7854
    11.6617  13.8156  15.2670  15.2670  15.3104  15.3105  15.4522  15.4523
    15.5574  15.5792  15.7184  15.7315  15.7315  15.7342  16.1221  16.7412
    16.7865  16.7898  16.9706  17.0184  17.0604  17.0708  17.2710  17.2710
    17.3388  17.3388  17.4871  17.4873  17.6715  17.6932  17.7638  17.7639
    18.2295  18.2296  18.3626  18.3891  18.3892  18.3927  18.4286  18.4736
    18.6042  18.8703  18.8813  18.8815  19.0940  19.0942  19.2595  19.2596
    19.2774  19.2968  19.2969  19.2997  19.3455  19.4236  19.5323  19.9517
    19.9734  19.9735  20.0699  20.0700  20.1891  20.2030  20.2512  20.2721
    20.2723  20.4078  20.4087  20.4315  20.4613  20.4632  20.4747  20.5017
    20.5018  20.5122  20.7054  20.7416  20.8663  20.9405  20.9406  21.1714
    21.2426  21.2426  21.3323  21.3324  21.4520  21.4520  21.8204  21.8204
    21.9720  21.9720

          k = 0.0553 0.0553 0.3874 ( 11450 PWs)   bands (ev):

   -67.0244 -66.9981 -66.9446 -66.9443 -66.9397 -66.9394 -66.9308 -66.9306
   -66.9301 -66.9298 -66.9296 -66.9289 -66.9273 -66.9264 -66.8871 -66.8659
   -33.2804 -33.2791 -33.2791 -33.2790 -33.2599 -33.2599 -33.2121 -33.2099
   -33.2058 -33.2057 -33.1782 -33.1781 -33.1727 -33.1577 -33.1335 -33.1213
   -33.0827 -33.0702 -33.0255 -33.0140 -32.9915 -32.9851 -32.9790 -32.9788
   -32.9712 -32.9709 -32.9512 -32.9509 -32.9499 -32.9496 -32.9327 -32.8892
   -32.8849 -32.8779 -32.8779 -32.8542 -32.8519 -32.8498 -32.8497 -32.8459
   -32.8230 -32.8225 -32.8225 -32.8225 -32.8072 -32.8027 -32.8027 -32.8006
    12.0559  13.1579  15.3436  15.3436  15.3521  15.3521  15.5671  15.5671
    15.7378  15.7379  15.8246  15.8413  15.8641  15.9211  16.1155  16.4557
    16.4699  16.4774  16.9654  16.9825  17.0218  17.0303  17.4382  17.4382
    17.5313  17.5313  17.6032  17.6034  17.7983  17.7985  17.9721  17.9721
    17.9938  18.0148  18.0850  18.0850  18.3576  18.3576  18.3578  18.3897
    18.4056  18.4170  18.5299  18.5301  18.7281  18.8326  18.8362  19.0681
    19.1765  19.4931  19.4933  19.5204  19.5205  19.7381  19.7449  19.8416
    19.8417  19.8560  19.9381  19.9382  20.2389  20.2483  20.3314  20.3555
    20.3580  20.4228  20.4387  20.4543  20.4602  20.4723  20.5496  20.5542
    20.5690  20.5691  20.6938  20.7850  20.7850  20.9712  20.9713  21.0499
    21.2244  21.2245  21.2614  21.2615  21.3360  21.3360  21.9195  21.9195
    22.0351  22.0351

          k = 0.0553 0.0553-0.4981 ( 11460 PWs)   bands (ev):

   -67.0124 -67.0122 -66.9425 -66.9422 -66.9419 -66.9418 -66.9306 -66.9303
   -66.9299 -66.9298 -66.9289 -66.9286 -66.9278 -66.9275 -66.8756 -66.8753
   -33.2483 -33.2483 -33.2481 -33.2480 -33.2450 -33.2450 -33.2448 -33.2448
   -33.2215 -33.2215 -33.2213 -33.2212 -33.1677 -33.1675 -33.1104 -33.1102
   -33.0978 -33.0977 -33.0086 -33.0083 -33.0001 -32.9998 -32.9755 -32.9753
   -32.9753 -32.9750 -32.9503 -32.9501 -32.9500 -32.9498 -32.8903 -32.8901
   -32.8530 -32.8528 -32.8514 -32.8511 -32.8483 -32.8481 -32.8479 -32.8478
   -32.8287 -32.8285 -32.8238 -32.8236 -32.8235 -32.8235 -32.8211 -32.8210
    12.5612  12.5616  15.3719  15.3719  15.3721  15.3721  15.6746  15.6746
    15.6747  15.6748  16.0110  16.0113  16.1425  16.1427  16.1508  16.1510
    16.1633  16.1637  16.9863  16.9866  16.9953  16.9956  17.6511  17.6511
    17.6513  17.6515  17.7463  17.7463  17.7466  17.7466  17.9497  17.9498
    17.9500  17.9503  18.1069  18.1071  18.1071  18.1073  18.3693  18.3696
    18.3832  18.3832  18.3966  18.3970  18.3971  18.3973  18.8835  18.8838
    19.4815  19.4818  19.6793  19.6793  19.6793  19.6796  19.7525  19.7526
    19.7526  19.7529  20.0783  20.0785  20.2022  20.2024  20.2967  20.2969
    20.3019  20.3021  20.4324  20.4326  20.4464  20.4466  20.4610  20.4612
    20.8227  20.8229  20.8230  20.8230  20.8880  20.8883  21.0325  21.0327
    21.0327  21.0329  21.2838  21.2839  21.2840  21.2841  22.0048  22.0048
    22.0050  22.0051

          k = 0.0553 0.1660 0.1660 ( 11459 PWs)   bands (ev):

   -67.0373 -66.9645 -66.9643 -66.9472 -66.9396 -66.9344 -66.9341 -66.9313
   -66.9301 -66.9299 -66.9266 -66.9258 -66.9246 -66.9160 -66.9157 -66.8560
   -33.3218 -33.3154 -33.3154 -33.3076 -33.3076 -33.2963 -33.1802 -33.1602
   -33.1544 -33.1498 -33.1497 -33.1420 -33.1391 -33.1350 -33.1110 -33.0665
   -33.0521 -33.0516 -33.0187 -33.0177 -33.0175 -32.9893 -32.9789 -32.9785
   -32.9731 -32.9701 -32.9699 -32.9596 -32.9593 -32.9566 -32.9537 -32.9457
   -32.9353 -32.9236 -32.9166 -32.9163 -32.8936 -32.8809 -32.8808 -32.8155
   -32.8023 -32.7937 -32.7937 -32.7859 -32.7859 -32.7840 -32.7755 -32.7737
    11.5274  14.5661  14.5662  15.2172  15.2413  15.3768  15.3768  15.4535
    15.4536  15.4657  15.6662  15.6701  15.7318  16.0155  16.0155  16.8050
    16.9159  17.0906  17.1393  17.1393  17.1454  17.1455  17.1759  17.1759
    17.1818  17.2057  17.3045  17.4052  17.4378  17.4461  17.7279  18.1042
    18.1045  18.3185  18.3809  18.3810  18.3843  18.4290  18.5717  18.6142
    18.9115  18.9118  18.9793  18.9793  19.0219  19.0850  19.1847  19.2810
    19.2811  19.2929  19.2931  19.4774  19.4774  19.6266  19.7333  19.7337
    19.9660  20.0814  20.0927  20.0928  20.1471  20.1498  20.1499  20.1737
    20.1769  20.3521  20.3994  20.4325  20.4328  20.4482  20.4482  20.4570
    20.4585  20.5601  20.5604  20.7756  20.8827  20.8829  20.8973  20.8974
    21.0117  21.2582  21.2684  21.3986  21.4698  21.8137  22.1414  22.1415
    22.3343  22.4796

          k = 0.0553 0.1660 0.2767 ( 11441 PWs)   bands (ev):

   -67.0308 -66.9806 -66.9620 -66.9458 -66.9445 -66.9365 -66.9332 -66.9309
   -66.9296 -66.9292 -66.9270 -66.9252 -66.9233 -66.9164 -66.9013 -66.8607
   -33.3099 -33.2989 -33.2987 -33.2927 -33.2859 -33.2680 -33.1871 -33.1861
   -33.1834 -33.1727 -33.1705 -33.1689 -33.1483 -33.1442 -33.1201 -33.0963
   -33.0556 -33.0504 -33.0150 -33.0137 -33.0113 -33.0092 -32.9910 -32.9825
   -32.9823 -32.9751 -32.9689 -32.9579 -32.9559 -32.9436 -32.9379 -32.9204
   -32.9186 -32.9044 -32.8959 -32.8852 -32.8685 -32.8515 -32.8514 -32.8444
   -32.8220 -32.8058 -32.8055 -32.8005 -32.7949 -32.7932 -32.7782 -32.7772
    11.7938  13.9094  14.7000  15.1667  15.3415  15.4133  15.5494  15.5716
    15.6026  15.6399  15.7788  15.7947  15.8000  16.0526  16.1704  16.6881
    16.7680  16.8034  17.0303  17.1026  17.1164  17.1322  17.1835  17.2421
    17.2648  17.3006  17.3978  17.4676  17.5671  17.6318  17.6331  17.9733
    18.1256  18.2267  18.2447  18.2629  18.3015  18.3463  18.3679  18.5557
    18.5948  18.7450  18.7756  18.9265  18.9869  19.0642  19.0832  19.0925
    19.1705  19.2693  19.2896  19.3395  19.3698  19.5004  19.5253  19.8448
    19.9724  19.9975  20.0355  20.0712  20.1036  20.1360  20.1731  20.2162
    20.3766  20.3915  20.3929  20.4530  20.4583  20.4803  20.4817  20.4962
    20.5453  20.6526  20.6715  20.6817  20.6923  20.7211  20.7740  20.8693
    20.9886  21.1987  21.2522  21.3273  21.4647  21.9527  21.9807  22.5371
    22.6320  22.7623

          k = 0.0553 0.1660 0.3874 ( 11449 PWs)   bands (ev):

   -67.0215 -66.9959 -66.9586 -66.9495 -66.9438 -66.9390 -66.9318 -66.9303
   -66.9296 -66.9286 -66.9282 -66.9261 -66.9208 -66.9174 -66.8883 -66.8678
   -33.2888 -33.2749 -33.2738 -33.2714 -33.2565 -33.2317 -33.2248 -33.2148
   -33.2089 -33.2077 -33.1890 -33.1828 -33.1813 -33.1433 -33.1304 -33.0975
   -33.0807 -33.0426 -33.0383 -33.0079 -33.0071 -32.9996 -32.9917 -32.9891
   -32.9816 -32.9804 -32.9649 -32.9571 -32.9565 -32.9313 -32.9217 -32.9085
   -32.8835 -32.8803 -32.8740 -32.8686 -32.8568 -32.8467 -32.8443 -32.8257
   -32.8247 -32.8232 -32.8227 -32.8223 -32.8110 -32.8057 -32.7877 -32.7873
    12.1828  13.2663  14.8580  15.1017  15.4320  15.4550  15.6638  15.7570
    15.8230  15.8430  15.8967  15.9246  15.9754  16.0201  16.1711  16.4805
    16.4871  16.4947  17.0007  17.0429  17.0585  17.0820  17.3496  17.3900
    17.4045  17.4606  17.4628  17.6104  17.6818  17.8169  17.8529  17.9142
    18.0261  18.0364  18.0944  18.1068  18.2252  18.2258  18.2695  18.3033
    18.3201  18.3507  18.4225  18.5591  18.6217  18.6219  18.9003  19.2796
    19.3158  19.4693  19.4711  19.5273  19.5302  19.5489  19.7162  19.7921
    19.8112  19.8685  19.9388  19.9807  20.1456  20.1958  20.2191  20.2977
    20.3325  20.3382  20.3430  20.4505  20.4567  20.4660  20.4668  20.5264
    20.5398  20.5734  20.6091  20.7315  20.7363  20.8288  20.8739  20.9715
    20.9764  20.9831  21.1751  21.3691  21.4457  21.8000  22.1330  22.4660
    22.8071  22.9575

          k = 0.0553 0.1660-0.4981 ( 11466 PWs)   bands (ev):

   -67.0098 -67.0096 -66.9545 -66.9542 -66.9416 -66.9414 -66.9304 -66.9302
   -66.9300 -66.9297 -66.9272 -66.9270 -66.9189 -66.9187 -66.8772 -66.8769
   -33.2599 -33.2598 -33.2450 -33.2448 -33.2445 -33.2443 -33.2428 -33.2427
   -33.2212 -33.2211 -33.1895 -33.1894 -33.1879 -33.1877 -33.1078 -33.1076
   -33.0716 -33.0715 -33.0189 -33.0187 -33.0004 -33.0002 -32.9954 -32.9952
   -32.9854 -32.9853 -32.9568 -32.9566 -32.9262 -32.9260 -32.9212 -32.9211
   -32.8759 -32.8758 -32.8504 -32.8502 -32.8464 -32.8462 -32.8439 -32.8438
   -32.8318 -32.8316 -32.8231 -32.8230 -32.8042 -32.8041 -32.8031 -32.8030
    12.6803  12.6807  15.0001  15.0003  15.4708  15.4710  15.7687  15.7688
    15.9080  15.9082  16.0706  16.0708  16.1640  16.1643  16.1933  16.1936
    16.2080  16.2083  17.0189  17.0192  17.0429  17.0432  17.5481  17.5482
    17.5669  17.5670  17.5938  17.5939  17.6550  17.6552  17.9722  17.9723
    18.0116  18.0117  18.0763  18.0764  18.1937  18.1939  18.2100  18.2101
    18.2113  18.2115  18.2517  18.2517  18.3359  18.3362  19.0792  19.0794
    19.5645  19.5648  19.5889  19.5891  19.7094  19.7095  19.7546  19.7548
    19.7923  19.7925  19.8002  19.8002  20.1340  20.1342  20.2643  20.2645
    20.2772  20.2774  20.4016  20.4019  20.4501  20.4503  20.4882  20.4883
    20.5975  20.5976  20.6962  20.6964  20.8051  20.8053  20.8816  20.8817
    21.0451  21.0453  21.2045  21.2046  21.6119  21.6121  22.3181  22.3183
    22.9430  22.9433

          k = 0.0553 0.2767 0.2767 ( 11447 PWs)   bands (ev):

   -67.0248 -66.9773 -66.9771 -66.9522 -66.9444 -66.9354 -66.9352 -66.9304
   -66.9291 -66.9288 -66.9284 -66.9255 -66.9175 -66.9030 -66.9027 -66.8651
   -33.3038 -33.2845 -33.2845 -33.2742 -33.2742 -33.2354 -33.2028 -33.2027
   -33.1992 -33.1985 -33.1897 -33.1866 -33.1648 -33.1370 -33.0960 -33.0567
   -33.0541 -33.0536 -33.0447 -33.0444 -33.0103 -32.9994 -32.9976 -32.9894
   -32.9892 -32.9766 -32.9761 -32.9676 -32.9674 -32.9623 -32.9247 -32.8972
   -32.8893 -32.8890 -32.8822 -32.8788 -32.8757 -32.8526 -32.8463 -32.8257
   -32.8256 -32.8135 -32.8134 -32.8050 -32.8047 -32.8047 -32.7751 -32.7740
    12.0534  14.0847  14.0847  15.0040  15.4656  15.6104  15.6105  15.7338
    15.7339  15.7624  15.8794  15.9025  15.9236  16.2133  16.2133  16.6271
    16.6860  16.8787  16.8787  17.0891  17.1612  17.1914  17.1915  17.2348
    17.2348  17.3025  17.3185  17.4986  17.5133  17.6121  17.6546  18.0214
    18.0215  18.1292  18.1496  18.1499  18.1607  18.1720  18.2252  18.3347
    18.5723  18.5723  18.6338  18.6338  18.7917  18.8430  18.8434  18.9209
    19.3557  19.3557  19.4119  19.4521  19.4986  19.4989  19.7128  19.7950
    19.7954  19.9653  20.0474  20.0474  20.0755  20.0944  20.0945  20.1554
    20.1915  20.3488  20.3502  20.3579  20.4512  20.4610  20.4959  20.5497
    20.5593  20.5596  20.6105  20.6351  20.6352  20.7423  20.7426  20.9210
    20.9211  20.9604  21.3042  21.4927  21.5034  22.1858  22.6048  22.6050
    23.2040  23.2041

          k = 0.0553 0.2767 0.3874 ( 11467 PWs)   bands (ev):

   -67.0159 -66.9917 -66.9724 -66.9596 -66.9425 -66.9378 -66.9339 -66.9303
   -66.9299 -66.9289 -66.9281 -66.9261 -66.9125 -66.9052 -66.8907 -66.8717
   -33.2885 -33.2641 -33.2633 -33.2582 -33.2499 -33.2358 -33.2185 -33.2128
   -33.2117 -33.2106 -33.2078 -33.1955 -33.1920 -33.1204 -33.1023 -33.0732
   -33.0690 -33.0456 -33.0359 -33.0118 -33.0088 -33.0084 -33.0081 -33.0037
   -33.0026 -32.9959 -32.9803 -32.9674 -32.9659 -32.9405 -32.9191 -32.9132
   -32.8952 -32.8747 -32.8700 -32.8626 -32.8602 -32.8560 -32.8366 -32.8251
   -32.8241 -32.8220 -32.8199 -32.8125 -32.8043 -32.8036 -32.7782 -32.7776
    12.4313  13.4743  14.3165  14.8056  15.5881  15.6503  15.8454  15.8828
    15.9247  15.9679  15.9841  16.0098  16.1063  16.1812  16.2285  16.4928
    16.4965  16.5908  17.0692  17.0773  17.1125  17.1320  17.1613  17.2956
    17.3076  17.3462  17.4281  17.4317  17.6715  17.7655  17.7672  17.7909
    17.9001  17.9963  18.0073  18.0664  18.0792  18.1075  18.1855  18.2149
    18.2249  18.2893  18.2966  18.3049  18.4390  18.5045  19.1168  19.1325
    19.4919  19.5087  19.5606  19.5986  19.6008  19.6091  19.6113  19.7012
    19.8052  19.8614  19.9265  19.9659  19.9889  20.1028  20.1189  20.1454
    20.2444  20.2634  20.2821  20.2866  20.3892  20.4568  20.4734  20.4784
    20.4981  20.5681  20.5752  20.5966  20.6043  20.6788  20.7011  20.7645
    21.0908  21.1501  21.2923  21.4457  21.7554  22.3344  22.4726  23.0243
    23.2733  23.8876

          k = 0.0553 0.2767-0.4981 ( 11454 PWs)   bands (ev):

   -67.0049 -67.0046 -66.9666 -66.9663 -66.9404 -66.9401 -66.9323 -66.9320
   -66.9294 -66.9292 -66.9272 -66.9269 -66.9085 -66.9083 -66.8804 -66.8801
   -33.2653 -33.2652 -33.2391 -33.2389 -33.2389 -33.2387 -33.2385 -33.2384
   -33.2214 -33.2213 -33.2121 -33.2119 -33.1504 -33.1503 -33.0989 -33.0987
   -33.0396 -33.0395 -33.0280 -33.0278 -33.0248 -33.0246 -33.0009 -33.0008
   -32.9933 -32.9931 -32.9673 -32.9672 -32.9631 -32.9630 -32.9063 -32.9062
   -32.9034 -32.9032 -32.8443 -32.8441 -32.8408 -32.8406 -32.8394 -32.8391
   -32.8384 -32.8383 -32.8231 -32.8230 -32.7881 -32.7880 -32.7876 -32.7875
    12.9122  12.9126  14.5691  14.5694  15.6538  15.6540  15.9407  15.9409
    16.0732  16.0734  16.1420  16.1422  16.1965  16.1967  16.2610  16.2612
    16.3309  16.3311  17.0826  17.0829  17.1082  17.1085  17.3703  17.3704
    17.3892  17.3894  17.4008  17.4009  17.5884  17.5886  17.9540  17.9540
    17.9833  17.9834  17.9929  17.9931  18.0208  18.0209  18.0261  18.0263
    18.1837  18.1838  18.1981  18.1982  18.2580  18.2583  19.3296  19.3298
    19.4573  19.4573  19.5245  19.5247  19.6952  19.6954  19.7775  19.7776
    19.7946  19.7947  19.8276  19.8277  19.9665  19.9667  20.2014  20.2016
    20.2139  20.2141  20.3460  20.3462  20.3893  20.3894  20.4699  20.4701
    20.4995  20.4997  20.5180  20.5182  20.6097  20.6098  20.7360  20.7361
    21.2182  21.2183  21.3294  21.3295  22.0443  22.0446  22.7665  22.7668
    23.9614  23.9618

          k = 0.0553 0.3874 0.3874 ( 11469 PWs)   bands (ev):

   -67.0078 -66.9857 -66.9855 -66.9692 -66.9407 -66.9363 -66.9360 -66.9323
   -66.9293 -66.9283 -66.9281 -66.9266 -66.9053 -66.8945 -66.8943 -66.8775
   -33.2793 -33.2495 -33.2495 -33.2410 -33.2410 -33.2387 -33.2386 -33.2244
   -33.2234 -33.2217 -33.2205 -33.2056 -33.1528 -33.1049 -33.0623 -33.0620
   -33.0570 -33.0566 -33.0433 -33.0382 -33.0306 -33.0147 -33.0146 -33.0129
   -32.9993 -32.9797 -32.9796 -32.9737 -32.9734 -32.9729 -32.9629 -32.9054
   -32.8968 -32.8716 -32.8712 -32.8532 -32.8471 -32.8439 -32.8332 -32.8300
   -32.8286 -32.8285 -32.8228 -32.8227 -32.7879 -32.7878 -32.7747 -32.7741
    12.7907  13.7639  13.7640  14.4663  15.7630  15.9132  15.9132  16.0653
    16.0838  16.0838  16.1035  16.1069  16.2279  16.2280  16.3030  16.4087
    16.4680  16.8038  16.8039  17.1134  17.1301  17.1942  17.2157  17.2157
    17.2253  17.2254  17.3114  17.4311  17.5065  17.6138  17.7230  17.8041
    17.8042  17.8961  17.9540  17.9710  17.9820  17.9820  18.0159  18.0159
    18.1514  18.1537  18.1540  18.2400  18.2745  18.7838  18.7842  19.3514
    19.4486  19.5305  19.5911  19.5914  19.7107  19.7107  19.7284  19.7383
    19.8517  19.8522  19.8928  19.9755  20.0115  20.0115  20.0136  20.0295
    20.0296  20.2051  20.2081  20.2206  20.3086  20.4023  20.4024  20.4283
    20.4722  20.5020  20.5347  20.5350  20.5709  20.6266  20.6269  20.6504
    21.2737  21.2739  21.3517  21.4562  22.1279  22.8653  22.9065  22.9067
    23.6307  23.6308

          k = 0.0553 0.3874-0.4981 ( 11468 PWs)   bands (ev):

   -66.9977 -66.9974 -66.9781 -66.9779 -66.9386 -66.9384 -66.9344 -66.9342
   -66.9288 -66.9285 -66.9275 -66.9273 -66.8994 -66.8991 -66.8852 -66.8849
   -33.2622 -33.2622 -33.2345 -33.2344 -33.2344 -33.2343 -33.2342 -33.2341
   -33.2322 -33.2321 -33.2226 -33.2225 -33.1058 -33.1058 -33.0854 -33.0852
   -33.0477 -33.0475 -33.0320 -33.0318 -33.0169 -33.0168 -33.0098 -33.0097
   -33.0060 -33.0059 -32.9912 -32.9911 -32.9781 -32.9780 -32.9386 -32.9385
   -32.8830 -32.8828 -32.8506 -32.8504 -32.8367 -32.8366 -32.8363 -32.8362
   -32.8345 -32.8345 -32.8252 -32.8251 -32.7779 -32.7778 -32.7777 -32.7776
    13.2434  13.2437  14.1067  14.1070  15.8843  15.8845  16.1477  16.1479
    16.1695  16.1697  16.1882  16.1884  16.1944  16.1946  16.3216  16.3218
    16.5413  16.5415  17.0972  17.0975  17.1423  17.1425  17.1441  17.1442
    17.2080  17.2082  17.2646  17.2648  17.6340  17.6342  17.7518  17.7519
    17.8370  17.8371  17.8456  17.8458  17.8599  17.8601  17.9069  17.9071
    18.1692  18.1694  18.1922  18.1924  18.4516  18.4516  19.1023  19.1023
    19.5268  19.5270  19.5965  19.5968  19.7741  19.7743  19.8278  19.8280
    19.8798  19.8798  19.8800  19.8801  19.8833  19.8834  20.1100  20.1102
    20.1167  20.1169  20.1433  20.1435  20.2827  20.2830  20.3320  20.3322
    20.4960  20.4962  20.5461  20.5462  20.5587  20.5588  20.6387  20.6388
    21.3441  21.3441  21.3986  21.3987  22.5199  22.5202  23.2641  23.2644
    23.4925  23.4928

          k = 0.0553-0.4981-0.4981 ( 11492 PWs)   bands (ev):

   -66.9887 -66.9886 -66.9885 -66.9882 -66.9367 -66.9366 -66.9365 -66.9362
   -66.9282 -66.9281 -66.9279 -66.9276 -66.8917 -66.8916 -66.8914 -66.8911
   -33.2515 -33.2515 -33.2515 -33.2513 -33.2326 -33.2326 -33.2325 -33.2325
   -33.2265 -33.2264 -33.2264 -33.2263 -33.0682 -33.0682 -33.0679 -33.0678
   -33.0584 -33.0583 -33.0578 -33.0578 -33.0281 -33.0281 -33.0281 -33.0279
   -32.9867 -32.9867 -32.9866 -32.9865 -32.9725 -32.9723 -32.9720 -32.9719
   -32.8654 -32.8653 -32.8650 -32.8648 -32.8340 -32.8339 -32.8338 -32.8338
   -32.8301 -32.8300 -32.8299 -32.8299 -32.7746 -32.7746 -32.7745 -32.7744
    13.6519  13.6520  13.6522  13.6524  16.0914  16.0915  16.0916  16.0917
    16.2027  16.2027  16.2029  16.2031  16.3009  16.3011  16.3012  16.3012
    16.8063  16.8063  16.8065  16.8066  17.1363  17.1364  17.1365  17.1365
    17.1831  17.1832  17.1833  17.1833  17.7262  17.7265  17.7265  17.7265
    17.7312  17.7313  17.7313  17.7315  17.8184  17.8186  17.8186  17.8188
    18.1605  18.1605  18.1606  18.1610  18.7614  18.7614  18.7618  18.7618
    19.6143  19.6143  19.6144  19.6148  19.8649  19.8652  19.8655  19.8655
    19.9072  19.9073  19.9073  19.9074  19.9979  19.9980  19.9981  19.9982
    19.9994  19.9995  19.9996  19.9997  20.2603  20.2604  20.2605  20.2608
    20.5241  20.5241  20.5245  20.5245  20.5812  20.5812  20.5815  20.5815
    21.4049  21.4050  21.4051  21.4051  23.0083  23.0088  23.0088  23.0089
    23.7700  23.7703

          k = 0.1660 0.1660 0.1660 ( 11440 PWs)   bands (ev):

   -67.0340 -66.9633 -66.9633 -66.9630 -66.9390 -66.9390 -66.9386 -66.9274
   -66.9264 -66.9264 -66.9260 -66.9240 -66.9162 -66.9162 -66.9158 -66.8583
   -33.3133 -33.3133 -33.3133 -33.2901 -33.2901 -33.2900 -33.1743 -33.1737
   -33.1737 -33.1660 -33.1658 -33.1658 -33.1201 -33.1142 -33.1142 -33.0744
   -33.0739 -33.0739 -33.0246 -33.0245 -33.0245 -32.9817 -32.9814 -32.9814
   -32.9718 -32.9718 -32.9549 -32.9546 -32.9546 -32.9502 -32.9498 -32.9498
   -32.9190 -32.9189 -32.9189 -32.9108 -32.8651 -32.8651 -32.8650 -32.8356
   -32.8059 -32.8059 -32.8059 -32.7830 -32.7829 -32.7829 -32.7794 -32.7794
    11.6613  14.6457  14.6457  14.6458  15.3230  15.3231  15.3231  15.5603
    15.5604  15.5604  15.7297  15.7297  16.0686  16.0687  16.0687  16.7244
    17.0230  17.0230  17.1205  17.1207  17.1207  17.1616  17.1616  17.1616
    17.2699  17.2699  17.2699  17.2892  17.3712  17.3712  17.9546  17.9550
    17.9550  18.3033  18.3033  18.3035  18.3061  18.3061  18.7280  18.7294
    18.7297  18.7297  18.9157  18.9158  18.9158  19.0931  19.0931  19.0932
    19.3074  19.3074  19.3075  19.3689  19.3690  19.3690  19.9297  19.9302
    19.9302  20.0016  20.0017  20.0017  20.1150  20.1150  20.1512  20.1513
    20.1513  20.4024  20.4027  20.4027  20.4327  20.4327  20.4354  20.4354
    20.5034  20.5529  20.5529  20.5530  20.8947  20.8947  20.8947  21.1071
    21.1074  21.1074  21.1328  21.1328  21.8450  21.8452  21.8452  22.5939
    22.5939  22.5940

          k = 0.1660 0.1660 0.2767 ( 11458 PWs)   bands (ev):

   -67.0278 -66.9789 -66.9610 -66.9607 -66.9439 -66.9437 -66.9377 -66.9293
   -66.9258 -66.9239 -66.9234 -66.9231 -66.9168 -66.9165 -66.9020 -66.8628
   -33.3017 -33.3017 -33.2962 -33.2783 -33.2638 -33.2638 -33.1959 -33.1933
   -33.1933 -33.1847 -33.1825 -33.1608 -33.1599 -33.1094 -33.1092 -33.0978
   -33.0916 -33.0587 -33.0323 -33.0259 -33.0258 -32.9970 -32.9931 -32.9929
   -32.9858 -32.9797 -32.9573 -32.9419 -32.9416 -32.9275 -32.9252 -32.9251
   -32.9219 -32.9218 -32.8862 -32.8861 -32.8662 -32.8436 -32.8435 -32.8392
   -32.8226 -32.8225 -32.8136 -32.7990 -32.7911 -32.7855 -32.7855 -32.7800
    11.9247  14.0054  14.7872  14.7872  15.2763  15.2763  15.5271  15.6958
    15.6959  15.7403  15.8465  15.8475  16.1261  16.1262  16.2319  16.6447
    16.8040  16.8604  16.9967  17.1247  17.1305  17.1306  17.2104  17.2279
    17.2402  17.2402  17.3949  17.4140  17.4140  17.5867  17.8125  17.8127
    18.0964  18.1245  18.1246  18.2088  18.2281  18.2830  18.4745  18.4746
    18.4863  18.4864  18.7120  18.8494  18.8495  18.8658  18.8802  18.9245
    19.2149  19.3150  19.3150  19.4581  19.4581  19.6181  19.7006  19.8928
    19.8929  19.9997  20.0665  20.0941  20.0942  20.1701  20.1762  20.1786
    20.1972  20.1975  20.3878  20.3891  20.4077  20.4311  20.4453  20.4483
    20.4484  20.6631  20.7181  20.7181  20.7465  20.8163  20.8896  20.8986
    20.8986  21.1784  21.1875  21.1876  21.5842  21.5843  22.4664  22.7921
    22.7922  23.2291

          k = 0.1660 0.1660 0.3874 ( 11469 PWs)   bands (ev):

   -67.0187 -66.9938 -66.9576 -66.9574 -66.9488 -66.9486 -66.9359 -66.9315
   -66.9252 -66.9241 -66.9209 -66.9207 -66.9176 -66.9174 -66.8894 -66.8697
   -33.2819 -33.2819 -33.2714 -33.2613 -33.2304 -33.2304 -33.2245 -33.2245
   -33.2184 -33.2023 -33.1924 -33.1920 -33.1502 -33.1501 -33.1424 -33.0904
   -33.0730 -33.0674 -33.0219 -33.0217 -33.0183 -33.0165 -33.0043 -33.0041
   -32.9885 -32.9802 -32.9663 -32.9349 -32.9347 -32.9252 -32.9250 -32.9031
   -32.8954 -32.8953 -32.8870 -32.8626 -32.8564 -32.8434 -32.8434 -32.8257
   -32.8229 -32.8228 -32.8218 -32.8167 -32.8082 -32.7930 -32.7929 -32.7866
    12.3090  13.3756  14.9552  14.9553  15.2121  15.2122  15.8136  15.8502
    15.8503  15.9850  15.9952  16.0199  16.1096  16.1097  16.2400  16.4990
    16.5066  16.5243  17.0042  17.0794  17.1157  17.1443  17.2648  17.2650
    17.3692  17.3693  17.5771  17.5771  17.6707  17.6935  17.6936  17.8465
    17.9998  17.9999  18.0782  18.0784  18.1557  18.1712  18.1721  18.2041
    18.2041  18.2531  18.3965  18.3967  18.4228  18.4389  19.0565  19.1767
    19.4126  19.4713  19.5555  19.5555  19.5623  19.5623  19.7769  19.7770
    19.8266  19.8347  19.9162  19.9727  19.9727  20.1488  20.2148  20.2669
    20.3196  20.3331  20.4146  20.4272  20.4316  20.4318  20.4714  20.5021
    20.5172  20.5172  20.5800  20.6314  20.8968  20.8968  20.9202  20.9432
    20.9432  21.1502  21.1585  21.1586  21.3308  21.3309  23.0245  23.0245
    23.1518  23.3232

          k = 0.1660 0.1660-0.4981 ( 11512 PWs)   bands (ev):

   -67.0074 -67.0072 -66.9538 -66.9535 -66.9532 -66.9530 -66.9339 -66.9337
   -66.9248 -66.9245 -66.9194 -66.9190 -66.9187 -66.9186 -66.8787 -66.8785
   -33.2555 -33.2554 -33.2554 -33.2553 -33.2409 -33.2407 -33.2400 -33.2398
   -33.1950 -33.1949 -33.1918 -33.1918 -33.1915 -33.1914 -33.1186 -33.1184
   -33.0458 -33.0457 -33.0427 -33.0425 -33.0144 -33.0142 -33.0142 -33.0140
   -32.9752 -32.9749 -32.9448 -32.9447 -32.9296 -32.9294 -32.9293 -32.9291
   -32.8682 -32.8682 -32.8678 -32.8677 -32.8517 -32.8515 -32.8423 -32.8422
   -32.8304 -32.8302 -32.8059 -32.8057 -32.8056 -32.8056 -32.7995 -32.7994
    12.7996  12.8000  15.1062  15.1063  15.1065  15.1065  16.0017  16.0018
    16.0018  16.0020  16.1421  16.1423  16.1578  16.1581  16.2418  16.2422
    16.2582  16.2584  17.0353  17.0356  17.0986  17.0989  17.5183  17.5183
    17.5186  17.5187  17.5335  17.5335  17.5338  17.5339  17.9775  17.9776
    17.9778  17.9779  18.0187  18.0188  18.0898  18.0901  18.0901  18.0902
    18.1382  18.1383  18.1443  18.1445  18.2176  18.2178  19.2542  19.2545
    19.4842  19.4843  19.6316  19.6319  19.6625  19.6625  19.6626  19.6628
    19.7899  19.7899  19.7900  19.7900  20.2366  20.2368  20.2449  20.2451
    20.2719  20.2721  20.3743  20.3745  20.4213  20.4215  20.5262  20.5264
    20.5350  20.5351  20.5351  20.5352  21.0525  21.0526  21.0526  21.0528
    21.0596  21.0597  21.0951  21.0953  21.0954  21.0955  23.2273  23.2274
    23.2276  23.2276

          k = 0.1660 0.2767 0.2767 ( 11459 PWs)   bands (ev):

   -67.0219 -66.9758 -66.9755 -66.9585 -66.9512 -66.9424 -66.9421 -66.9320
   -66.9232 -66.9230 -66.9228 -66.9177 -66.9170 -66.9036 -66.9034 -66.8671
   -33.2953 -33.2857 -33.2857 -33.2559 -33.2559 -33.2337 -33.2081 -33.2063
   -33.2062 -33.2061 -33.1918 -33.1692 -33.1577 -33.1328 -33.1025 -33.0721
   -33.0692 -33.0688 -33.0596 -33.0595 -33.0363 -33.0118 -33.0116 -33.0107
   -32.9652 -32.9553 -32.9550 -32.9476 -32.9474 -32.9272 -32.9259 -32.9111
   -32.9012 -32.8990 -32.8898 -32.8896 -32.8679 -32.8432 -32.8318 -32.8247
   -32.8246 -32.8214 -32.8213 -32.7999 -32.7998 -32.7982 -32.7828 -32.7802
    12.1821  14.1851  14.1852  14.9441  15.1189  15.4879  15.4880  15.8543
    15.8721  15.8722  15.9478  15.9743  16.2302  16.2977  16.2977  16.6164
    16.7960  16.8555  16.8555  17.0547  17.0790  17.1962  17.1963  17.2708
    17.2747  17.2937  17.3239  17.3239  17.5649  17.5766  17.6584  17.9219
    17.9221  18.0192  18.0659  18.0661  18.1265  18.1381  18.2263  18.2916
    18.3495  18.3495  18.4942  18.4943  18.5643  18.6308  18.6311  19.0649
    19.4167  19.4167  19.4500  19.5735  19.6456  19.6458  19.7865  19.8258
    19.9785  19.9786  19.9834  19.9838  20.0034  20.0767  20.1142  20.1143
    20.1519  20.3566  20.3595  20.3603  20.3869  20.4173  20.4260  20.4263
    20.4424  20.6289  20.6290  20.7400  20.7691  20.8851  20.8852  20.9032
    20.9034  20.9933  21.1694  21.2675  21.2719  22.1269  22.1270  23.0621
    23.8350  23.8352

          k = 0.1660 0.2767 0.3874 ( 11478 PWs)   bands (ev):

   -67.0133 -66.9897 -66.9709 -66.9585 -66.9554 -66.9469 -66.9402 -66.9348
   -66.9228 -66.9226 -66.9208 -66.9179 -66.9128 -66.9058 -66.8917 -66.8735
   -33.2807 -33.2687 -33.2625 -33.2455 -33.2332 -33.2279 -33.2252 -33.2204
   -33.2112 -33.2026 -33.2003 -33.1968 -33.1633 -33.1414 -33.1112 -33.0907
   -33.0863 -33.0532 -33.0446 -33.0391 -33.0358 -33.0272 -33.0253 -33.0249
   -32.9854 -32.9634 -32.9547 -32.9401 -32.9381 -32.9302 -32.9239 -32.9145
   -32.8955 -32.8792 -32.8779 -32.8671 -32.8605 -32.8517 -32.8391 -32.8299
   -32.8211 -32.8206 -32.8140 -32.8051 -32.8038 -32.8038 -32.7852 -32.7826
    12.5563  13.5857  14.4233  14.9219  15.1341  15.4243  15.7852  16.0176
    16.0252  16.0847  16.1076  16.1470  16.2641  16.2772  16.3184  16.5106
    16.5420  16.5922  17.0396  17.0581  17.1379  17.1419  17.1813  17.2258
    17.3073  17.3989  17.4205  17.4577  17.5431  17.6838  17.7192  17.7311
    17.8420  17.9015  17.9606  17.9977  18.0175  18.0496  18.0794  18.0923
    18.1144  18.1323  18.1577  18.1781  18.2558  18.3357  18.8471  19.2742
    19.4674  19.5700  19.6365  19.6379  19.6414  19.6831  19.7018  19.7444
    19.8827  19.8963  19.8998  19.9933  19.9969  20.0846  20.1628  20.2177
    20.2714  20.2895  20.2963  20.3765  20.4162  20.4187  20.4559  20.4717
    20.4776  20.4886  20.4971  20.5979  20.6919  20.7963  20.9118  20.9741
    21.0279  21.0450  21.1755  21.2011  21.2631  21.8048  22.7296  23.3773
    23.8726  23.9909

          k = 0.1660 0.2767-0.4981 ( 11470 PWs)   bands (ev):

   -67.0025 -67.0023 -66.9652 -66.9650 -66.9515 -66.9513 -66.9377 -66.9375
   -66.9227 -66.9225 -66.9192 -66.9189 -66.9090 -66.9088 -66.8818 -66.8815
   -33.2593 -33.2592 -33.2474 -33.2473 -33.2334 -33.2332 -33.2332 -33.2331
   -33.2096 -33.2094 -33.1962 -33.1961 -33.1549 -33.1549 -33.1183 -33.1181
   -33.0619 -33.0617 -33.0419 -33.0418 -33.0346 -33.0345 -33.0154 -33.0153
   -32.9811 -32.9810 -32.9605 -32.9603 -32.9346 -32.9345 -32.9039 -32.9037
   -32.8946 -32.8945 -32.8569 -32.8569 -32.8479 -32.8477 -32.8390 -32.8389
   -32.8351 -32.8349 -32.8108 -32.8107 -32.7924 -32.7924 -32.7905 -32.7905
    13.0317  13.0320  14.6820  14.6823  15.3067  15.3069  16.1411  16.1414
    16.1684  16.1686  16.1744  16.1746  16.2269  16.2271  16.3540  16.3543
    16.3568  16.3570  17.0903  17.0907  17.1598  17.1600  17.3302  17.3304
    17.3450  17.3452  17.4343  17.4345  17.5487  17.5489  17.7593  17.7594
    17.9137  17.9139  17.9362  17.9363  17.9392  17.9394  17.9898  17.9900
    18.0559  18.0561  18.0584  18.0584  18.1275  18.1278  19.1318  19.1319
    19.5011  19.5013  19.6529  19.6531  19.7438  19.7440  19.7845  19.7846
    19.8308  19.8310  19.8380  19.8381  20.1901  20.1903  20.1931  20.1933
    20.2274  20.2275  20.3248  20.3251  20.4101  20.4103  20.4167  20.4169
    20.5025  20.5027  20.5557  20.5558  20.7029  20.7031  20.8653  20.8654
    21.1288  21.1289  21.1808  21.1809  21.4899  21.4902  23.3558  23.3562
    23.6727  23.6729

          k = 0.1660 0.3874 0.3874 ( 11457 PWs)   bands (ev):

   -67.0054 -66.9838 -66.9836 -66.9678 -66.9523 -66.9446 -66.9444 -66.9382
   -66.9217 -66.9209 -66.9207 -66.9185 -66.9059 -66.8954 -66.8951 -66.8790
   -33.2713 -33.2502 -33.2502 -33.2338 -33.2337 -33.2293 -33.2253 -33.2253
   -33.2216 -33.2163 -33.2100 -33.1814 -33.1569 -33.1282 -33.0871 -33.0821
   -33.0819 -33.0685 -33.0681 -33.0520 -33.0492 -33.0490 -33.0489 -33.0144
   -32.9792 -32.9560 -32.9537 -32.9534 -32.9463 -32.9462 -32.9352 -32.8964
   -32.8940 -32.8689 -32.8686 -32.8614 -32.8609 -32.8432 -32.8368 -32.8366
   -32.8273 -32.8196 -32.8196 -32.8190 -32.7917 -32.7916 -32.7822 -32.7808
    12.9136  13.8781  13.8782  14.5847  15.3593  15.7176  15.7176  16.1591
    16.1820  16.2528  16.2529  16.3230  16.3231  16.3398  16.3540  16.4009
    16.5647  16.8027  16.8028  17.0640  17.1222  17.1683  17.2335  17.2335
    17.2628  17.2628  17.4011  17.4178  17.4228  17.4774  17.6822  17.7662
    17.7663  17.7761  17.8380  17.8381  17.9086  17.9087  17.9244  17.9605
    17.9838  18.0200  18.0202  18.1050  18.1157  18.5258  18.5261  19.1112
    19.5171  19.6757  19.7447  19.7448  19.7685  19.8025  19.8027  19.8112
    19.9292  19.9896  20.0085  20.0086  20.0422  20.0426  20.0579  20.0581
    20.1994  20.2256  20.2274  20.2784  20.3079  20.3954  20.3955  20.4221
    20.4485  20.4488  20.4970  20.5069  20.6603  20.7132  20.7135  20.7341
    21.1556  21.1557  21.2160  21.2926  21.5512  22.3290  22.3292  23.4268
    23.7853  24.5019

          k = 0.1660 0.3874-0.4981 ( 11472 PWs)   bands (ev):

   -66.9955 -66.9952 -66.9764 -66.9762 -66.9488 -66.9485 -66.9416 -66.9414
   -66.9212 -66.9210 -66.9195 -66.9193 -66.9001 -66.8999 -66.8864 -66.8862
   -33.2551 -33.2550 -33.2380 -33.2379 -33.2294 -33.2292 -33.2278 -33.2277
   -33.2231 -33.2230 -33.2031 -33.2031 -33.1132 -33.1131 -33.1078 -33.1076
   -33.0722 -33.0721 -33.0677 -33.0675 -33.0554 -33.0553 -33.0234 -33.0234
   -32.9841 -32.9840 -32.9518 -32.9516 -32.9403 -32.9402 -32.9230 -32.9229
   -32.8810 -32.8808 -32.8472 -32.8471 -32.8459 -32.8457 -32.8394 -32.8392
   -32.8383 -32.8382 -32.8188 -32.8187 -32.7844 -32.7843 -32.7836 -32.7835
    13.3628  13.3632  14.2238  14.2241  15.5727  15.5729  16.0531  16.0534
    16.2641  16.2644  16.2749  16.2751  16.3835  16.3836  16.4685  16.4687
    16.5649  16.5652  17.0962  17.0964  17.1568  17.1569  17.1595  17.1597
    17.1673  17.1675  17.3266  17.3268  17.5710  17.5711  17.6016  17.6018
    17.7191  17.7193  17.7774  17.7775  17.8279  17.8281  17.8589  17.8590
    18.0216  18.0219  18.0610  18.0612  18.2338  18.2339  18.7884  18.7884
    19.7135  19.7137  19.7706  19.7708  19.8667  19.8669  19.9001  19.9002
    19.9186  19.9187  19.9195  19.9196  20.0266  20.0268  20.1297  20.1299
    20.1401  20.1402  20.2689  20.2692  20.3017  20.3018  20.3787  20.3788
    20.4336  20.4338  20.4793  20.4795  20.5802  20.5803  20.7159  20.7160
    21.2141  21.2141  21.2528  21.2528  21.9353  21.9356  22.8737  22.8741
    24.1843  24.1846

          k = 0.1660-0.4981-0.4981 ( 11444 PWs)   bands (ev):

   -66.9868 -66.9867 -66.9865 -66.9863 -66.9455 -66.9454 -66.9452 -66.9450
   -66.9203 -66.9202 -66.9200 -66.9197 -66.8926 -66.8925 -66.8924 -66.8921
   -33.2439 -33.2439 -33.2439 -33.2437 -33.2309 -33.2309 -33.2308 -33.2307
   -33.2123 -33.2123 -33.2122 -33.2122 -33.0901 -33.0900 -33.0898 -33.0897
   -33.0696 -33.0696 -33.0695 -33.0693 -33.0687 -33.0686 -33.0682 -33.0682
   -32.9531 -32.9529 -32.9526 -32.9526 -32.9458 -32.9458 -32.9458 -32.9456
   -32.8617 -32.8616 -32.8614 -32.8612 -32.8409 -32.8409 -32.8407 -32.8407
   -32.8287 -32.8287 -32.8286 -32.8286 -32.7814 -32.7814 -32.7814 -32.7812
    13.7708  13.7709  13.7710  13.7712  15.8488  15.8489  15.8491  15.8491
    16.2935  16.2936  16.2937  16.2939  16.5145  16.5146  16.5147  16.5148
    16.8241  16.8241  16.8243  16.8244  17.0937  17.0937  17.0938  17.0939
    17.2397  17.2398  17.2399  17.2399  17.5721  17.5722  17.5722  17.5725
    17.6950  17.6952  17.6953  17.6953  17.7756  17.7757  17.7758  17.7759
    18.0217  18.0217  18.0218  18.0222  18.4821  18.4822  18.4824  18.4824
    19.8478  19.8478  19.8479  19.8482  19.9244  19.9245  19.9245  19.9248
    20.0299  20.0299  20.0301  20.0301  20.0392  20.0392  20.0393  20.0394
    20.0656  20.0661  20.0662  20.0662  20.2524  20.2525  20.2526  20.2529
    20.4566  20.4566  20.4569  20.4570  20.6245  20.6245  20.6248  20.6249
    21.2627  21.2628  21.2629  21.2629  22.4008  22.4013  22.4013  22.4014
    24.7011  24.7013

          k = 0.2767 0.2767 0.2767 ( 11473 PWs)   bands (ev):

   -67.0162 -66.9727 -66.9727 -66.9723 -66.9494 -66.9494 -66.9490 -66.9358
   -66.9211 -66.9179 -66.9179 -66.9175 -66.9050 -66.9050 -66.9046 -66.8711
   -33.2791 -33.2791 -33.2791 -33.2304 -33.2303 -33.2303 -33.2149 -33.2148
   -33.2148 -33.2141 -33.1785 -33.1785 -33.1470 -33.1470 -33.0956 -33.0952
   -33.0952 -33.0720 -33.0719 -33.0719 -33.0444 -33.0334 -33.0331 -33.0331
   -32.9310 -32.9301 -32.9298 -32.9298 -32.9288 -32.9285 -32.9285 -32.9223
   -32.9223 -32.8917 -32.8917 -32.8917 -32.8550 -32.8393 -32.8392 -32.8391
   -32.8148 -32.8148 -32.8148 -32.7979 -32.7978 -32.7978 -32.7922 -32.7922
    12.4347  14.3739  14.3739  14.3740  15.3419  15.3419  15.3419  16.0275
    16.0276  16.0276  16.0735  16.0735  16.4241  16.4242  16.4242  16.6346
    16.8358  16.8434  16.8435  16.8435  17.0553  17.0553  17.2491  17.2491
    17.2491  17.4125  17.4125  17.4484  17.4485  17.4485  17.7830  17.7833
    17.7833  17.9323  17.9323  17.9325  18.0360  18.0361  18.0361  18.0956
    18.0956  18.2268  18.2268  18.2269  18.3671  18.3674  18.3674  19.2716
    19.4560  19.5496  19.5497  19.5497  19.7684  19.7686  19.7686  19.9101
    19.9101  19.9101  20.0748  20.0748  20.1050  20.1051  20.1051  20.2416
    20.2421  20.2421  20.3635  20.3635  20.3643  20.3645  20.3645  20.3921
    20.3921  20.6369  20.6370  20.6370  20.8682  20.8682  20.8683  20.9312
    20.9312  20.9933  20.9935  20.9935  21.7357  21.7359  21.7359  24.0020
    24.1279  24.1279

          k = 0.2767 0.2767 0.3874 ( 11483 PWs)   bands (ev):

   -67.0081 -66.9858 -66.9682 -66.9679 -66.9563 -66.9560 -66.9466 -66.9396
   -66.9197 -66.9181 -66.9135 -66.9132 -66.9070 -66.9068 -66.8939 -66.8768
   -33.2657 -33.2656 -33.2550 -33.2297 -33.2297 -33.2262 -33.2183 -33.2154
   -33.1992 -33.1991 -33.1961 -33.1878 -33.1587 -33.1285 -33.1283 -33.1203
   -33.1050 -33.0743 -33.0742 -33.0615 -33.0537 -33.0525 -33.0523 -33.0155
   -32.9691 -32.9573 -32.9326 -32.9299 -32.9156 -32.9154 -32.9024 -32.9023
   -32.8964 -32.8963 -32.8831 -32.8605 -32.8572 -32.8571 -32.8455 -32.8374
   -32.8201 -32.8101 -32.8078 -32.8078 -32.8019 -32.7986 -32.7986 -32.7905
    12.8009  13.7998  14.6252  14.6252  15.1469  15.1469  15.6582  16.1927
    16.1927  16.2175  16.2320  16.2569  16.4542  16.4543  16.4636  16.4670
    16.6122  16.6244  16.9679  16.9681  17.0847  17.1923  17.2476  17.2508
    17.3099  17.3460  17.3461  17.5203  17.5203  17.5763  17.6321  17.6322
    17.7702  17.7703  17.8315  17.8316  17.8691  17.8826  17.8954  17.9058
    17.9752  17.9753  17.9850  18.0369  18.1112  18.1113  18.5167  19.0912
    19.5068  19.6848  19.7191  19.7191  19.8212  19.8213  19.8611  19.8611
    19.9648  20.0190  20.0238  20.0285  20.0285  20.0531  20.1575  20.1719
    20.2964  20.3073  20.3679  20.3681  20.3702  20.3702  20.4035  20.4037
    20.4247  20.4590  20.6346  20.7523  20.7656  20.7657  20.9047  20.9047
    20.9705  21.0091  21.0092  21.0159  21.3860  21.3862  22.2713  23.4086
    24.4607  24.4608

          k = 0.2767 0.2767-0.4981 ( 11454 PWs)   bands (ev):

   -66.9979 -66.9977 -66.9629 -66.9626 -66.9623 -66.9621 -66.9434 -66.9432
   -66.9188 -66.9186 -66.9102 -66.9098 -66.9095 -66.9094 -66.8846 -66.8843
   -33.2480 -33.2479 -33.2479 -33.2478 -33.2243 -33.2241 -33.2224 -33.2223
   -33.2088 -33.2087 -33.1643 -33.1642 -33.1639 -33.1637 -33.1341 -33.1339
   -33.0913 -33.0911 -33.0670 -33.0669 -33.0669 -33.0668 -33.0109 -33.0109
   -32.9859 -32.9858 -32.9331 -32.9329 -32.9043 -32.9042 -32.9042 -32.9040
   -32.8786 -32.8785 -32.8782 -32.8780 -32.8488 -32.8485 -32.8396 -32.8395
   -32.8332 -32.8330 -32.8020 -32.8019 -32.8019 -32.8019 -32.7937 -32.7936
    13.2639  13.2643  14.8982  14.8983  14.8985  14.8986  16.0439  16.0442
    16.3485  16.3485  16.3486  16.3488  16.3828  16.3830  16.3998  16.4001
    16.4889  16.4891  17.1336  17.1339  17.2158  17.2161  17.2507  17.2508
    17.2511  17.2512  17.4789  17.4789  17.4792  17.4794  17.5348  17.5348
    17.7468  17.7469  17.8362  17.8365  17.8366  17.8367  17.8857  17.8859
    17.8860  17.8860  17.9146  17.9148  17.9656  17.9658  18.7659  18.7660
    19.7596  19.7598  19.8300  19.8303  19.8372  19.8373  19.8374  19.8374
    19.8889  19.8890  19.8891  19.8891  20.1910  20.1912  20.2245  20.2247
    20.2862  20.2865  20.3210  20.3212  20.3696  20.3698  20.4050  20.4051
    20.4053  20.4053  20.5748  20.5749  20.9680  20.9680  20.9680  20.9682
    21.0254  21.0254  21.0549  21.0553  21.0554  21.0555  22.8332  22.8336
    24.7327  24.7330

          k = 0.2767 0.3874 0.3874 ( 11475 PWs)   bands (ev):

   -67.0007 -66.9803 -66.9800 -66.9651 -66.9639 -66.9530 -66.9527 -66.9445
   -66.9173 -66.9143 -66.9141 -66.9086 -66.9068 -66.8972 -66.8970 -66.8820
   -33.2556 -33.2439 -33.2439 -33.2284 -33.2260 -33.2259 -33.2140 -33.2028
   -33.2028 -33.2022 -33.1922 -33.1648 -33.1557 -33.1512 -33.1292 -33.1067
   -33.1065 -33.0892 -33.0892 -33.0888 -33.0815 -33.0814 -33.0768 -33.0070
   -32.9855 -32.9288 -32.9286 -32.9159 -32.9157 -32.9155 -32.8990 -32.8944
   -32.8815 -32.8782 -32.8697 -32.8660 -32.8658 -32.8485 -32.8484 -32.8424
   -32.8193 -32.8183 -32.8183 -32.8117 -32.7992 -32.7992 -32.7966 -32.7937
    13.1534  14.0979  14.0980  14.8140  14.8972  15.4637  15.4638  16.2163
    16.3273  16.3377  16.4112  16.4240  16.4241  16.5054  16.5055  16.6353
    16.7048  16.7944  16.7945  16.9230  17.1559  17.2206  17.2208  17.2795
    17.2796  17.3318  17.3319  17.4047  17.4244  17.5112  17.5175  17.6758
    17.6759  17.6779  17.6851  17.6851  17.7004  17.7005  17.7325  17.8255
    17.8256  17.8494  17.8693  17.8982  17.9480  18.2041  18.2043  18.7283
    19.7708  19.8236  19.8237  19.8410  19.8839  19.9525  19.9990  20.0234
    20.0236  20.0322  20.0330  20.0331  20.0913  20.0914  20.1571  20.2480
    20.2877  20.2907  20.2909  20.3053  20.3526  20.3650  20.3652  20.4150
    20.4227  20.4229  20.4758  20.5223  20.7702  20.7705  20.8035  20.9792
    20.9792  20.9823  21.0254  21.0440  21.0933  21.8598  21.8600  22.8727
    24.8788  25.4487

          k = 0.2767 0.3874-0.4981 ( 11486 PWs)   bands (ev):

   -66.9913 -66.9911 -66.9732 -66.9730 -66.9589 -66.9587 -66.9491 -66.9488
   -66.9156 -66.9154 -66.9111 -66.9109 -66.9016 -66.9014 -66.8889 -66.8886
   -33.2412 -33.2411 -33.2334 -33.2333 -33.2176 -33.2174 -33.2159 -33.2157
   -33.2083 -33.2082 -33.1769 -33.1768 -33.1349 -33.1347 -33.1271 -33.1270
   -33.1097 -33.1096 -33.0961 -33.0960 -33.0921 -33.0920 -33.0478 -33.0478
   -32.9565 -32.9564 -32.9151 -32.9149 -32.9049 -32.9048 -32.9025 -32.9024
   -32.8775 -32.8773 -32.8631 -32.8631 -32.8435 -32.8435 -32.8434 -32.8433
   -32.8398 -32.8396 -32.8157 -32.8156 -32.7971 -32.7970 -32.7950 -32.7949
    13.5948  13.5952  14.4497  14.4500  15.1957  15.1960  15.8406  15.8408
    16.4382  16.4385  16.4456  16.4458  16.5843  16.5844  16.6091  16.6093
    16.6452  16.6454  17.0896  17.0898  17.1160  17.1162  17.1936  17.1938
    17.2123  17.2125  17.3947  17.3948  17.4069  17.4069  17.5429  17.5431
    17.5880  17.5881  17.6102  17.6105  17.7281  17.7283  17.7689  17.7691
    17.8016  17.8019  17.8764  17.8766  17.9359  17.9360  18.4178  18.4179
    19.9286  19.9288  19.9504  19.9506  19.9549  19.9551  19.9744  19.9745
    20.0125  20.0126  20.0529  20.0532  20.1694  20.1696  20.1847  20.1848
    20.2426  20.2428  20.2717  20.2719  20.3072  20.3075  20.3583  20.3585
    20.3911  20.3913  20.5860  20.5861  20.6908  20.6911  20.7707  20.7708
    21.0033  21.0033  21.0235  21.0235  21.4687  21.4690  22.3590  22.3594
    25.2597  25.2600

          k = 0.2767-0.4981-0.4981 ( 11456 PWs)   bands (ev):

   -66.9830 -66.9830 -66.9828 -66.9826 -66.9543 -66.9543 -66.9541 -66.9539
   -66.9131 -66.9130 -66.9129 -66.9126 -66.8946 -66.8946 -66.8944 -66.8941
   -33.2290 -33.2290 -33.2290 -33.2288 -33.2207 -33.2206 -33.2205 -33.2205
   -33.1921 -33.1921 -33.1920 -33.1920 -33.1201 -33.1200 -33.1199 -33.1198
   -33.1092 -33.1092 -33.1091 -33.1090 -33.0879 -33.0878 -33.0875 -33.0875
   -32.9286 -32.9285 -32.9282 -32.9282 -32.9072 -32.9072 -32.9072 -32.9070
   -32.8555 -32.8555 -32.8553 -32.8551 -32.8514 -32.8514 -32.8512 -32.8512
   -32.8307 -32.8307 -32.8306 -32.8305 -32.7951 -32.7951 -32.7951 -32.7949
    14.0012  14.0013  14.0015  14.0017  15.5330  15.5331  15.5333  15.5334
    16.4664  16.4664  16.4665  16.4667  16.7497  16.7498  16.7499  16.7499
    16.8574  16.8574  16.8576  16.8576  17.0504  17.0504  17.0506  17.0506
    17.3082  17.3083  17.3083  17.3084  17.4404  17.4406  17.4406  17.4409
    17.6118  17.6120  17.6120  17.6122  17.6372  17.6375  17.6375  17.6376
    17.8203  17.8203  17.8203  17.8207  18.1259  18.1260  18.1262  18.1262
    19.9861  19.9862  19.9863  19.9865  20.0753  20.0753  20.0755  20.0756
    20.1124  20.1124  20.1125  20.1127  20.1349  20.1350  20.1351  20.1351
    20.2352  20.2353  20.2354  20.2356  20.3629  20.3635  20.3635  20.3635
    20.3730  20.3730  20.3733  20.3734  20.6382  20.6382  20.6383  20.6385
    21.0275  21.0276  21.0276  21.0276  21.9069  21.9074  21.9074  21.9075
    25.7847  25.7850

          k = 0.3874 0.3874 0.3874 ( 11491 PWs)   bands (ev):

   -66.9937 -66.9751 -66.9751 -66.9748 -66.9611 -66.9611 -66.9608 -66.9504
   -66.9137 -66.9086 -66.9086 -66.9082 -66.9000 -66.9000 -66.8997 -66.8866
   -33.2328 -33.2328 -33.2328 -33.2196 -33.2196 -33.2196 -33.2018 -33.1817
   -33.1817 -33.1757 -33.1756 -33.1756 -33.1686 -33.1686 -33.1242 -33.1242
   -33.1242 -33.1164 -33.1160 -33.1160 -33.1086 -33.1084 -33.1084 -33.0410
   -32.9572 -32.9047 -32.9044 -32.9044 -32.8907 -32.8905 -32.8905 -32.8778
   -32.8778 -32.8659 -32.8658 -32.8658 -32.8639 -32.8636 -32.8636 -32.8453
   -32.8178 -32.8178 -32.8178 -32.8123 -32.8123 -32.8082 -32.8082 -32.8082
    13.4974  14.4047  14.4047  14.4048  15.1372  15.1372  15.1373  15.9167
    16.5127  16.5127  16.5808  16.5809  16.5809  16.7482  16.7483  16.7483
    16.7776  16.7777  16.7777  16.8651  17.2114  17.2114  17.2782  17.2782
    17.3554  17.3555  17.3555  17.3745  17.3746  17.3746  17.4639  17.4640
    17.4640  17.5826  17.5826  17.5827  17.6141  17.6143  17.6143  17.6451
    17.6451  17.6453  17.7949  17.7949  17.8958  17.8961  17.8961  18.3619
    19.9287  19.9288  19.9288  20.0624  20.0922  20.0922  20.0923  20.0953
    20.0953  20.0995  20.0996  20.0996  20.1575  20.1577  20.1577  20.2700
    20.2700  20.2990  20.2992  20.2992  20.3167  20.3168  20.3169  20.3979
    20.3979  20.7001  20.7001  20.7117  20.7121  20.7121  20.7863  20.7866
    20.7866  20.8331  20.8331  20.8333  21.4521  21.4524  21.4524  22.3758
    26.1115  26.1115

          k = 0.3874 0.3874-0.4981 ( 11452 PWs)   bands (ev):

   -66.9851 -66.9849 -66.9689 -66.9686 -66.9683 -66.9681 -66.9562 -66.9559
   -66.9108 -66.9106 -66.9042 -66.9038 -66.9035 -66.9034 -66.8926 -66.8924
   -33.2220 -33.2220 -33.2219 -33.2219 -33.2036 -33.2034 -33.2034 -33.2032
   -33.1885 -33.1884 -33.1552 -33.1549 -33.1462 -33.1460 -33.1457 -33.1455
   -33.1398 -33.1396 -33.1253 -33.1253 -33.1252 -33.1252 -33.0784 -33.0783
   -32.9297 -32.9296 -32.8851 -32.8849 -32.8827 -32.8826 -32.8822 -32.8820
   -32.8733 -32.8732 -32.8732 -32.8731 -32.8525 -32.8524 -32.8452 -32.8449
   -32.8366 -32.8364 -32.8148 -32.8148 -32.8148 -32.8147 -32.8083 -32.8082
    13.9246  13.9249  14.7666  14.7667  14.7669  14.7670  15.5237  15.5240
    16.6377  16.6380  16.6844  16.6846  16.6975  16.6975  16.6976  16.6978
    16.8367  16.8369  17.0645  17.0646  17.0649  17.0650  17.2382  17.2384
    17.2808  17.2811  17.3315  17.3317  17.3544  17.3545  17.4684  17.4684
    17.4687  17.4689  17.5790  17.5793  17.5795  17.5796  17.6389  17.6392
    17.6393  17.6393  17.6875  17.6877  17.7077  17.7080  18.0607  18.0608
    20.0170  20.0172  20.0353  20.0354  20.0355  20.0355  20.1607  20.1608
    20.1608  20.1609  20.1821  20.1823  20.2059  20.2061  20.2685  20.2686
    20.2874  20.2876  20.2924  20.2925  20.2927  20.2927  20.3749  20.3751
    20.4145  20.4147  20.5650  20.5651  20.7835  20.7836  20.7836  20.7837
    20.8028  20.8029  21.0728  21.0733  21.0734  21.0735  21.9056  21.9059
    26.4218  26.4220

          k = 0.3874-0.4981-0.4981 ( 11492 PWs)   bands (ev):

   -66.9776 -66.9775 -66.9774 -66.9771 -66.9629 -66.9628 -66.9627 -66.9624
   -66.9070 -66.9069 -66.9068 -66.9065 -66.8977 -66.8976 -66.8975 -66.8972
   -33.2074 -33.2074 -33.2074 -33.2072 -33.2034 -33.2034 -33.2032 -33.2032
   -33.1671 -33.1670 -33.1669 -33.1669 -33.1509 -33.1509 -33.1507 -33.1507
   -33.1463 -33.1463 -33.1463 -33.1461 -33.1124 -33.1123 -33.1121 -33.1121
   -32.9050 -32.9049 -32.9047 -32.9047 -32.8720 -32.8720 -32.8720 -32.8718
   -32.8657 -32.8657 -32.8655 -32.8655 -32.8482 -32.8481 -32.8480 -32.8479
   -32.8351 -32.8350 -32.8350 -32.8349 -32.8151 -32.8151 -32.8150 -32.8149
    14.3273  14.3274  14.3276  14.3278  15.1423  15.1424  15.1425  15.1427
    16.7017  16.7017  16.7018  16.7020  16.9018  16.9018  16.9020  16.9021
    16.9820  16.9821  16.9822  16.9823  17.0029  17.0030  17.0031  17.0032
    17.3878  17.3880  17.3880  17.3881  17.4017  17.4019  17.4019  17.4020
    17.4053  17.4054  17.4054  17.4057  17.5606  17.5608  17.5608  17.5609
    17.6235  17.6236  17.6236  17.6240  17.7678  17.7679  17.7681  17.7681
    20.0707  20.0708  20.0709  20.0711  20.1248  20.1249  20.1250  20.1251
    20.2081  20.2082  20.2083  20.2085  20.2751  20.2752  20.2753  20.2756
    20.2909  20.2910  20.2910  20.2911  20.3381  20.3381  20.3382  20.3384
    20.6021  20.6021  20.6022  20.6024  20.7136  20.7141  20.7141  20.7142
    20.7590  20.7591  20.7591  20.7591  21.4806  21.4812  21.4812  21.4812
    26.9695  26.9699

          k =-0.4981-0.4981-0.4981 ( 11536 PWs)   bands (ev):

   -66.9710 -66.9710 -66.9710 -66.9704 -66.9703 -66.9703 -66.9701 -66.9701
   -66.9022 -66.9022 -66.9022 -66.9016 -66.9015 -66.9015 -66.9014 -66.9013
   -33.1802 -33.1802 -33.1801 -33.1800 -33.1800 -33.1800 -33.1798 -33.1798
   -33.1796 -33.1796 -33.1796 -33.1794 -33.1794 -33.1794 -33.1794 -33.1794
   -33.1400 -33.1396 -33.1396 -33.1396 -33.1395 -33.1391 -33.1391 -33.1391
   -32.8845 -32.8841 -32.8841 -32.8841 -32.8840 -32.8836 -32.8836 -32.8836
   -32.8412 -32.8412 -32.8412 -32.8409 -32.8409 -32.8409 -32.8408 -32.8408
   -32.8407 -32.8407 -32.8407 -32.8404 -32.8403 -32.8403 -32.8403 -32.8403
    14.7218  14.7219  14.7219  14.7219  14.7221  14.7221  14.7222  14.7224
    16.9519  16.9519  16.9519  16.9521  16.9521  16.9521  16.9521  16.9521
    16.9522  16.9522  16.9523  16.9524  16.9524  16.9524  16.9526  16.9526
    17.4541  17.4547  17.4547  17.4547  17.4549  17.4551  17.4551  17.4551
    17.4741  17.4742  17.4743  17.4743  17.4743  17.4746  17.4746  17.4747
    17.4748  17.4748  17.4748  17.4748  17.4749  17.4749  17.4751  17.4752
    20.1705  20.1705  20.1705  20.1705  20.1706  20.1706  20.1710  20.1710
    20.1711  20.1711  20.1712  20.1712  20.1712  20.1713  20.1713  20.1713
    20.5031  20.5031  20.5031  20.5031  20.5031  20.5034  20.5034  20.5034
    20.5035  20.5035  20.5035  20.5037  20.5037  20.5037  20.5039  20.5039
    21.0876  21.0886  21.0886  21.0886  21.0887  21.0887  21.0887  21.0888
    28.1295  28.1296

     the Fermi energy is    20.2366 ev

!    total energy              =   -5267.71027408 Ry
     Harris-Foulkes estimate   =   -5267.71030599 Ry
     estimated scf accuracy    <       0.00004255 Ry

     total all-electron energy =    -40728.454803 Ry

     The total energy is the sum of the following terms:

     one-electron contribution =   -1637.02788981 Ry
     hartree contribution      =     995.29819437 Ry
     xc contribution           =    -442.85268810 Ry
     ewald contribution        =   -2858.23188635 Ry
     one-center paw contrib.   =   -1324.76181620 Ry
     smearing contrib. (-TS)   =      -0.13418800 Ry

     convergence has been achieved in  10 iterations

     Forces acting on atoms (cartesian axes, Ry/au):

     atom    1 type  1   force =     0.00000000    0.00000000    0.00000000
     atom    2 type  1   force =     0.00012885    0.00012885    0.00012885
     atom    3 type  1   force =     0.00000000    0.00000000    0.00000000
     atom    4 type  1   force =     0.00012885    0.00012885   -0.00012885
     atom    5 type  1   force =     0.00000000    0.00000000   -0.00000000
     atom    6 type  1   force =     0.00012885   -0.00012885    0.00012885
     atom    7 type  1   force =     0.00000000    0.00000000    0.00000000
     atom    8 type  1   force =     0.00012885   -0.00012885   -0.00012885
     atom    9 type  1   force =     0.00000000    0.00000000   -0.00000000
     atom   10 type  1   force =    -0.00012885    0.00012885    0.00012885
     atom   11 type  1   force =     0.00000000    0.00000000    0.00000000
     atom   12 type  1   force =    -0.00012885    0.00012885   -0.00012885
     atom   13 type  1   force =     0.00000000   -0.00000000    0.00000000
     atom   14 type  1   force =    -0.00012885   -0.00012885    0.00012885
     atom   15 type  1   force =     0.00000000    0.00000000    0.00000000
     atom   16 type  1   force =    -0.00012885   -0.00012885   -0.00012885

     Total force =     0.000631     Total SCF correction =     0.001266
     SCF correction compared to forces is large: reduce conv_thr to get better values


     Computing stress (Cartesian axis) and pressure

          total   stress  (Ry/bohr**3)                   (kbar)     P=   10.46
   0.00007113   0.00000000   0.00000000         10.46      0.00      0.00
   0.00000000   0.00007113   0.00000000          0.00     10.46      0.00
   0.00000000   0.00000000   0.00007113          0.00      0.00     10.46


     Writing output data file siGJfXHnDRQnUidI.save/
 
     init_run     :      3.14s CPU      3.35s WALL (       1 calls)
     electrons    :    112.91s CPU    116.52s WALL (       1 calls)
     forces       :      1.08s CPU      1.18s WALL (       1 calls)
     stress       :      2.76s CPU      2.80s WALL (       1 calls)

     Called by init_run:
     wfcinit      :      2.84s CPU      2.97s WALL (       1 calls)
     potinit      :      0.11s CPU      0.12s WALL (       1 calls)
     hinit0       :      0.10s CPU      0.11s WALL (       1 calls)

     Called by electrons:
     c_bands      :    101.46s CPU    104.38s WALL (      11 calls)
     sum_band     :     10.46s CPU     11.03s WALL (      11 calls)
     v_of_rho     :      0.08s CPU      0.08s WALL (      11 calls)
     newd         :      0.16s CPU      0.20s WALL (      11 calls)
     PAW_pot      :      0.78s CPU      0.82s WALL (      11 calls)
     mix_rho      :      0.02s CPU      0.02s WALL (      11 calls)

     Called by c_bands:
     init_us_2    :      0.58s CPU      0.59s WALL (     875 calls)
     cegterg      :     98.74s CPU    101.61s WALL (     385 calls)

     Called by sum_band:
     sum_band:bec :      0.16s CPU      0.16s WALL (     385 calls)
     addusdens    :      0.16s CPU      0.20s WALL (      11 calls)

     Called by *egterg:
     h_psi        :     42.38s CPU     44.10s WALL (    1331 calls)
     s_psi        :      2.30s CPU      2.41s WALL (    1331 calls)
     g_psi        :      0.09s CPU      0.09s WALL (     911 calls)
     cdiaghg      :     45.52s CPU     45.65s WALL (    1261 calls)

     Called by h_psi:
     h_psi:pot    :     42.15s CPU     43.87s WALL (    1331 calls)
     h_psi:calbec :      3.54s CPU      4.08s WALL (    1331 calls)
     vloc_psi     :     36.25s CPU     37.42s WALL (    1331 calls)
     add_vuspsi   :      2.34s CPU      2.36s WALL (    1331 calls)

     General routines
     calbec       :      5.69s CPU      6.59s WALL (    1891 calls)
     fft          :      0.15s CPU      0.16s WALL (     168 calls)
     ffts         :      0.01s CPU      0.06s WALL (      22 calls)
     fftw         :     41.93s CPU     43.26s WALL (  326274 calls)
     interpolate  :      0.03s CPU      0.05s WALL (      11 calls)
 
     Parallel routines
     fft_scatt_xy :      2.88s CPU      2.97s WALL (  326464 calls)
     fft_scatt_yz :     28.10s CPU     29.05s WALL (  326464 calls)
 
     PWSCF        :  2m 2.82s CPU     2m10.01s WALL

 
   This run was terminated on:   6:24:38   5Sep2020            

=------------------------------------------------------------------------------=
   JOB DONE.
=------------------------------------------------------------------------------=
