--------------------------------------------------------------------------
WARNING: There was an error initializing an OpenFabrics device.

  Local host:   bear-pg0211u07b
  Local device: mlx5_0
--------------------------------------------------------------------------

     Program PWSCF v.6.3 starts on  5Sep2020 at  6:24:39 

     This program is part of the open-source Quantum ESPRESSO suite
     for quantum simulation of materials; please cite
         "P. Giannozzi et al., J. Phys.:Condens. Matter 21 395502 (2009);
         "P. Giannozzi et al., J. Phys.:Condens. Matter 29 465901 (2017);
          URL http://www.quantum-espresso.org", 
     in publications or presentations arising from this work. More details at
     http://www.quantum-espresso.org/quote

     Parallel version (MPI & OpenMP), running on      40 processor cores
     Number of MPI processes:                40
     Threads/MPI process:                     1

     MPI processes distributed on     1 nodes
     R & G space division:  proc/nbgrp/npool/nimage =      40
     Reading input from wd/eos/eos_009.in
Warning: card &IONS ignored
Warning: card ION_DYNAMICS = 'BFGS', ignored
Warning: card / ignored
Warning: card &CELL ignored
Warning: card CELL_DYNAMICS = 'BFGS', ignored
Warning: card CELL_FACTOR = 2.0, ignored
Warning: card PRESS = 0.0, ignored
Warning: card / ignored

     Current dimensions of program PWSCF are:
     Max number of different atomic species (ntypx) = 10
     Max number of k-points (npk) =  40000
     Max angular momentum in pseudopotentials (lmaxx) =  3
               file Fe.pbe-spn-kjpaw_psl.1.0.0.UPF: wavefunction(s)  3P 3D renormalized

     Subspace diagonalization in iterative solution of the eigenvalue problem:
     a serial algorithm will be used

 
     Parallelization info
     --------------------
     sticks:   dense  smooth     PW     G-vecs:    dense   smooth      PW
     Min          93      61     17                 4283     2297     343
     Max          94      62     20                 4287     2302     347
     Sum        3729    2453    697               171405    91965   13805
 


     bravais-lattice index     =            0
     lattice parameter (alat)  =      10.3915  a.u.
     unit-cell volume          =    1139.0131 (a.u.)^3
     number of atoms/cell      =           16
     number of atomic types    =            1
     number of electrons       =       256.00
     number of Kohn-Sham states=          154
     kinetic-energy cutoff     =      71.0000  Ry
     charge density cutoff     =     430.0000  Ry
     convergence threshold     =      5.0E-05
     mixing beta               =       0.1000
     number of iterations used =           10  plain     mixing
     Exchange-correlation      = SLA PW PBX PBC ( 1  4  3  4 0 0)

     celldm(1)=  10.391466  celldm(2)=   0.000000  celldm(3)=   0.000000
     celldm(4)=   0.000000  celldm(5)=   0.000000  celldm(6)=   0.000000

     crystal axes: (cart. coord. in units of alat)
               a(1) = (   1.005000   0.000000   0.000000 )  
               a(2) = (   0.000000   1.005000   0.000000 )  
               a(3) = (   0.000000   0.000000   1.005000 )  

     reciprocal axes: (cart. coord. in units 2 pi/alat)
               b(1) = (  0.995025  0.000000  0.000000 )  
               b(2) = (  0.000000  0.995025  0.000000 )  
               b(3) = (  0.000000  0.000000  0.995025 )  


     PseudoPot. # 1 for Fe read from file:
     /rds/homes/b/bxp912/pp/Fe.pbe-spn-kjpaw_psl.1.0.0.UPF
     MD5 check sum: 42f43b795421b414b0dc916aa790dbcb
     Pseudo is Projector augmented-wave + core cor, Zval = 16.0
     Generated using "atomic" code by A. Dal Corso v.6.3
     Shape of augmentation charge: PSQ
     Using radial grid of 1191 points,  6 beta functions with: 
                l(1) =   0
                l(2) =   0
                l(3) =   1
                l(4) =   1
                l(5) =   2
                l(6) =   2
     Q(r) pseudized with 0 coefficients 


     atomic species   valence    mass     pseudopotential
        Fe            16.00    55.84500     Fe( 1.00)

     48 Sym. Ops., with inversion, found



   Cartesian axes

     site n.     atom                  positions (alat units)
         1           Fe  tau(   1) = (   0.0000000   0.0000000   0.0000000  )
         2           Fe  tau(   2) = (   0.2512590   0.2512590   0.2512590  )
         3           Fe  tau(   3) = (   0.0000000   0.0000000   0.5024995  )
         4           Fe  tau(   4) = (   0.2512590   0.2512590   0.7537410  )
         5           Fe  tau(   5) = (   0.0000000   0.5025001   0.0000000  )
         6           Fe  tau(   6) = (   0.2512590   0.7537411   0.2512590  )
         7           Fe  tau(   7) = (   0.0000000   0.5025001   0.5024995  )
         8           Fe  tau(   8) = (   0.2512590   0.7537411   0.7537410  )
         9           Fe  tau(   9) = (   0.5025001   0.0000000   0.0000000  )
        10           Fe  tau(  10) = (   0.7537411   0.2512590   0.2512590  )
        11           Fe  tau(  11) = (   0.5025001   0.0000000   0.5024995  )
        12           Fe  tau(  12) = (   0.7537411   0.2512590   0.7537410  )
        13           Fe  tau(  13) = (   0.5025001   0.5025001   0.0000000  )
        14           Fe  tau(  14) = (   0.7537411   0.7537411   0.2512590  )
        15           Fe  tau(  15) = (   0.5025001   0.5025001   0.5024995  )
        16           Fe  tau(  16) = (   0.7537411   0.7537411   0.7537410  )

     number of k points=    35  Marzari-Vanderbilt smearing, width (Ry)=  0.0400
                       cart. coord. in units 2pi/alat
        k(    1) = (   0.0552792   0.0552792   0.0552792), wk =   0.0219479
        k(    2) = (   0.0552792   0.0552792   0.1658375), wk =   0.0658436
        k(    3) = (   0.0552792   0.0552792   0.2763958), wk =   0.0658436
        k(    4) = (   0.0552792   0.0552792   0.3869541), wk =   0.0658436
        k(    5) = (   0.0552792   0.0552792  -0.4975124), wk =   0.0329218
        k(    6) = (   0.0552792   0.1658375   0.1658375), wk =   0.0658436
        k(    7) = (   0.0552792   0.1658375   0.2763958), wk =   0.1316872
        k(    8) = (   0.0552792   0.1658375   0.3869541), wk =   0.1316872
        k(    9) = (   0.0552792   0.1658375  -0.4975124), wk =   0.0658436
        k(   10) = (   0.0552792   0.2763958   0.2763958), wk =   0.0658436
        k(   11) = (   0.0552792   0.2763958   0.3869541), wk =   0.1316872
        k(   12) = (   0.0552792   0.2763958  -0.4975124), wk =   0.0658436
        k(   13) = (   0.0552792   0.3869541   0.3869541), wk =   0.0658436
        k(   14) = (   0.0552792   0.3869541  -0.4975124), wk =   0.0658436
        k(   15) = (   0.0552792  -0.4975124  -0.4975124), wk =   0.0164609
        k(   16) = (   0.1658375   0.1658375   0.1658375), wk =   0.0219479
        k(   17) = (   0.1658375   0.1658375   0.2763958), wk =   0.0658436
        k(   18) = (   0.1658375   0.1658375   0.3869541), wk =   0.0658436
        k(   19) = (   0.1658375   0.1658375  -0.4975124), wk =   0.0329218
        k(   20) = (   0.1658375   0.2763958   0.2763958), wk =   0.0658436
        k(   21) = (   0.1658375   0.2763958   0.3869541), wk =   0.1316872
        k(   22) = (   0.1658375   0.2763958  -0.4975124), wk =   0.0658436
        k(   23) = (   0.1658375   0.3869541   0.3869541), wk =   0.0658436
        k(   24) = (   0.1658375   0.3869541  -0.4975124), wk =   0.0658436
        k(   25) = (   0.1658375  -0.4975124  -0.4975124), wk =   0.0164609
        k(   26) = (   0.2763958   0.2763958   0.2763958), wk =   0.0219479
        k(   27) = (   0.2763958   0.2763958   0.3869541), wk =   0.0658436
        k(   28) = (   0.2763958   0.2763958  -0.4975124), wk =   0.0329218
        k(   29) = (   0.2763958   0.3869541   0.3869541), wk =   0.0658436
        k(   30) = (   0.2763958   0.3869541  -0.4975124), wk =   0.0658436
        k(   31) = (   0.2763958  -0.4975124  -0.4975124), wk =   0.0164609
        k(   32) = (   0.3869541   0.3869541   0.3869541), wk =   0.0219479
        k(   33) = (   0.3869541   0.3869541  -0.4975124), wk =   0.0329218
        k(   34) = (   0.3869541  -0.4975124  -0.4975124), wk =   0.0164609
        k(   35) = (  -0.4975124  -0.4975124  -0.4975124), wk =   0.0027435

     Dense  grid:   171405 G-vectors     FFT dimensions: (  72,  72,  72)

     Smooth grid:    91965 G-vectors     FFT dimensions: (  60,  60,  60)

     Estimated max dynamical RAM per process >      57.17 MB

     Estimated total dynamical RAM >       2.23 GB

     Check: negative/imaginary core charge=   -0.000006    0.000000

     Initial potential from superposition of free atoms

     starting charge  255.99300, renormalised to  256.00000
     Starting wfcs are  160 randomized atomic wfcs
     Checking if some PAW data can be deallocated... 

     total cpu time spent up to now is        4.4 secs

     Self-consistent Calculation

     iteration #  1     ecut=    71.00 Ry     beta= 0.10
     Davidson diagonalization with overlap
     ethr =  1.00E-02,  avg # of iterations =  3.3

     Threshold (ethr) on eigenvalues was too large:
     Diagonalizing with lowered threshold

     Davidson diagonalization with overlap
     ethr =  2.47E-04,  avg # of iterations =  3.0

     total cpu time spent up to now is       29.8 secs

     total energy              =   -5267.75296434 Ry
     Harris-Foulkes estimate   =   -5267.86577749 Ry
     estimated scf accuracy    <       0.71502487 Ry

     iteration #  2     ecut=    71.00 Ry     beta= 0.10
     Davidson diagonalization with overlap
     ethr =  2.79E-04,  avg # of iterations =  1.0

     total cpu time spent up to now is       38.6 secs

     total energy              =   -5267.62290546 Ry
     Harris-Foulkes estimate   =   -5267.76784013 Ry
     estimated scf accuracy    <       0.35252081 Ry

     iteration #  3     ecut=    71.00 Ry     beta= 0.10
     Davidson diagonalization with overlap
     ethr =  1.38E-04,  avg # of iterations =  3.2

     total cpu time spent up to now is       53.1 secs

     total energy              =   -5267.70358930 Ry
     Harris-Foulkes estimate   =   -5267.72415927 Ry
     estimated scf accuracy    <       0.48076085 Ry

     iteration #  4     ecut=    71.00 Ry     beta= 0.10
     Davidson diagonalization with overlap
     ethr =  1.38E-04,  avg # of iterations =  1.0

     total cpu time spent up to now is       61.0 secs

     total energy              =   -5267.70841911 Ry
     Harris-Foulkes estimate   =   -5267.71440943 Ry
     estimated scf accuracy    <       0.02959335 Ry

     iteration #  5     ecut=    71.00 Ry     beta= 0.10
     Davidson diagonalization with overlap
     ethr =  1.16E-05,  avg # of iterations =  2.1

     total cpu time spent up to now is       71.0 secs

     total energy              =   -5267.70849474 Ry
     Harris-Foulkes estimate   =   -5267.71058560 Ry
     estimated scf accuracy    <       0.02126069 Ry

     iteration #  6     ecut=    71.00 Ry     beta= 0.10
     Davidson diagonalization with overlap
     ethr =  8.30E-06,  avg # of iterations =  2.7

     total cpu time spent up to now is       82.3 secs

     total energy              =   -5267.71113321 Ry
     Harris-Foulkes estimate   =   -5267.71042728 Ry
     estimated scf accuracy    <       0.01075372 Ry

     iteration #  7     ecut=    71.00 Ry     beta= 0.10
     Davidson diagonalization with overlap
     ethr =  4.20E-06,  avg # of iterations =  2.4

     total cpu time spent up to now is       92.5 secs

     total energy              =   -5267.71013887 Ry
     Harris-Foulkes estimate   =   -5267.71162017 Ry
     estimated scf accuracy    <       0.01294613 Ry

     iteration #  8     ecut=    71.00 Ry     beta= 0.10
     Davidson diagonalization with overlap
     ethr =  4.20E-06,  avg # of iterations =  1.9

     total cpu time spent up to now is      101.9 secs

     total energy              =   -5267.71050918 Ry
     Harris-Foulkes estimate   =   -5267.71093594 Ry
     estimated scf accuracy    <       0.00756026 Ry

     iteration #  9     ecut=    71.00 Ry     beta= 0.10
     Davidson diagonalization with overlap
     ethr =  2.95E-06,  avg # of iterations =  2.1

     total cpu time spent up to now is      111.6 secs

     total energy              =   -5267.71082094 Ry
     Harris-Foulkes estimate   =   -5267.71084082 Ry
     estimated scf accuracy    <       0.00038778 Ry

     iteration # 10     ecut=    71.00 Ry     beta= 0.10
     Davidson diagonalization with overlap
     ethr =  1.51E-07,  avg # of iterations =  3.0

     total cpu time spent up to now is      123.1 secs

     End of self-consistent calculation

          k = 0.0553 0.0553 0.0553 ( 11483 PWs)   bands (ev):

   -67.1287 -67.0352 -67.0352 -67.0348 -67.0199 -67.0198 -67.0195 -67.0187
   -67.0187 -67.0182 -67.0180 -67.0180 -67.0178 -67.0114 -67.0111 -66.9391
   -33.4139 -33.4139 -33.4139 -33.4110 -33.4110 -33.4109 -33.2547 -33.2547
   -33.2485 -33.1808 -33.1781 -33.1778 -33.1778 -33.1577 -33.1577 -33.1444
   -33.1439 -33.1439 -33.1094 -33.1094 -33.0851 -33.0704 -33.0703 -33.0703
   -33.0593 -33.0592 -33.0592 -33.0472 -33.0467 -33.0467 -33.0441 -33.0437
   -33.0437 -33.0361 -33.0361 -33.0361 -33.0259 -33.0259 -33.0258 -32.8686
   -32.8675 -32.8675 -32.8675 -32.8645 -32.8645 -32.8645 -32.8622 -32.8622
    11.1863  15.0449  15.0449  15.0449  15.1977  15.1978  15.1978  15.2240
    15.2240  15.2240  15.4775  15.4775  15.5596  15.5596  15.5596  16.9344
    17.0222  17.0222  17.0358  17.0358  17.0358  17.0496  17.0496  17.0496
    17.1602  17.1602  17.2052  17.4672  17.4674  17.4674  17.8535  17.8538
    17.8538  18.3231  18.3231  18.3694  18.6437  18.6437  18.6438  18.7460
    18.7460  18.7461  18.8320  18.8322  18.8322  18.9254  18.9255  18.9255
    19.6585  19.6589  19.6589  19.8763  19.8765  19.8765  19.9040  19.9041
    19.9041  20.0400  20.0401  20.0401  20.0416  20.0417  20.0417  20.0759
    20.0759  20.3246  20.3246  20.3246  20.3307  20.3310  20.3310  20.3758
    20.3758  20.3760  20.3760  20.8587  20.8590  20.8590  21.0763  21.1218
    21.1218  21.1218  21.1530  21.1530  21.5744  21.5745  21.5745  21.5942
    21.5942  21.5942

          k = 0.0553 0.0553 0.1658 ( 11471 PWs)   bands (ev):

   -67.1255 -67.0519 -67.0345 -67.0343 -67.0216 -67.0214 -67.0191 -67.0184
   -67.0182 -67.0177 -67.0172 -67.0170 -67.0118 -67.0114 -67.0026 -66.9415
   -33.4061 -33.4061 -33.4051 -33.4024 -33.3975 -33.3974 -33.2578 -33.2484
   -33.2388 -33.2162 -33.2078 -33.2077 -33.2058 -33.2053 -33.1755 -33.1753
   -33.1419 -33.1153 -33.1054 -33.1046 -33.0931 -33.0703 -33.0701 -33.0616
   -33.0523 -33.0505 -33.0502 -33.0490 -33.0487 -33.0414 -33.0411 -33.0367
   -33.0365 -33.0323 -33.0322 -33.0026 -32.9999 -32.9997 -32.9930 -32.8840
   -32.8764 -32.8764 -32.8749 -32.8722 -32.8678 -32.8674 -32.8674 -32.8649
    11.3226  14.4142  15.1020  15.1020  15.2066  15.2067  15.2874  15.2875
    15.2970  15.3219  15.5388  15.5414  15.6037  15.6037  15.8991  16.8278
    16.9368  16.9440  17.0181  17.0304  17.0560  17.0830  17.0854  17.0854
    17.1262  17.1262  17.3441  17.3563  17.4221  17.4222  17.7554  17.7556
    18.1986  18.2979  18.3183  18.4304  18.4336  18.4337  18.4974  18.6104
    18.6105  18.6543  18.9197  18.9198  19.0337  19.0338  19.0628  19.1615
    19.3507  19.3509  19.4189  19.6381  19.6383  19.6390  19.7964  19.8836
    19.8838  19.9809  19.9810  20.0041  20.0613  20.0633  20.0634  20.0870
    20.1043  20.1225  20.1225  20.1478  20.3339  20.3551  20.3554  20.3736
    20.3739  20.5464  20.6557  20.6558  20.8157  20.9058  21.0171  21.1301
    21.1301  21.1458  21.1849  21.1850  21.4791  21.4792  21.6391  21.6391
    21.7407  21.7407

          k = 0.0553 0.0553 0.2764 ( 11497 PWs)   bands (ev):

   -67.1191 -67.0684 -67.0331 -67.0329 -67.0239 -67.0237 -67.0183 -67.0181
   -67.0178 -67.0169 -67.0168 -67.0165 -67.0128 -67.0122 -66.9878 -66.9463
   -33.3885 -33.3885 -33.3879 -33.3859 -33.3745 -33.3745 -33.2585 -33.2563
   -33.2509 -33.2482 -33.2481 -33.2360 -33.2271 -33.2247 -33.2178 -33.2177
   -33.1376 -33.1274 -33.1255 -33.1108 -33.0685 -33.0682 -33.0635 -33.0630
   -33.0584 -33.0543 -33.0540 -33.0395 -33.0392 -33.0369 -33.0366 -33.0172
   -33.0100 -32.9987 -32.9986 -32.9712 -32.9681 -32.9679 -32.9622 -32.9080
   -32.8910 -32.8910 -32.8896 -32.8881 -32.8793 -32.8764 -32.8764 -32.8745
    11.5914  13.7402  15.1912  15.1912  15.2406  15.2406  15.3828  15.3829
    15.4878  15.5097  15.6516  15.6563  15.6563  15.6679  16.0491  16.6671
    16.7119  16.7185  16.8960  16.9434  16.9862  16.9965  17.1957  17.1957
    17.2632  17.2633  17.4115  17.4117  17.5921  17.6138  17.6866  17.6868
    18.1492  18.1493  18.2813  18.3080  18.3081  18.3113  18.3475  18.3920
    18.5218  18.7876  18.7967  18.7969  19.0078  19.0079  19.1740  19.1741
    19.1916  19.2110  19.2111  19.2126  19.2580  19.3370  19.4451  19.8628
    19.8835  19.8837  19.9796  19.9797  20.0981  20.1119  20.1604  20.1808
    20.1810  20.3157  20.3165  20.3391  20.3689  20.3707  20.3825  20.4094
    20.4094  20.4195  20.6111  20.6480  20.7720  20.8456  20.8456  21.0751
    21.1452  21.1452  21.2353  21.2354  21.3544  21.3544  21.7201  21.7202
    21.8729  21.8730

          k = 0.0553 0.0553 0.3870 ( 11498 PWs)   bands (ev):

   -67.1098 -67.0838 -67.0312 -67.0309 -67.0263 -67.0261 -67.0176 -67.0174
   -67.0170 -67.0166 -67.0165 -67.0157 -67.0141 -67.0133 -66.9745 -66.9536
   -33.3631 -33.3620 -33.3619 -33.3617 -33.3430 -33.3430 -33.2956 -33.2934
   -33.2895 -33.2895 -33.2623 -33.2623 -33.2569 -33.2424 -33.2182 -33.2061
   -33.1681 -33.1558 -33.1115 -33.1000 -33.0779 -33.0718 -33.0657 -33.0655
   -33.0582 -33.0579 -33.0382 -33.0379 -33.0369 -33.0366 -33.0196 -32.9767
   -32.9726 -32.9658 -32.9657 -32.9422 -32.9399 -32.9378 -32.9377 -32.9340
   -32.9113 -32.9110 -32.9109 -32.9109 -32.8960 -32.8914 -32.8914 -32.8895
    11.9845  13.0838  15.2689  15.2689  15.2808  15.2809  15.4965  15.4966
    15.6639  15.6640  15.7540  15.7708  15.7961  15.8539  16.0441  16.3861
    16.3968  16.4041  16.8913  16.9079  16.9478  16.9562  17.3622  17.3622
    17.4547  17.4547  17.5261  17.5262  17.7203  17.7205  17.8931  17.8931
    17.9127  17.9337  18.0054  18.0054  18.2755  18.2756  18.2764  18.3085
    18.3244  18.3358  18.4465  18.4467  18.6450  18.7476  18.7509  18.9835
    19.0924  19.4063  19.4064  19.4335  19.4336  19.6498  19.6573  19.7527
    19.7528  19.7670  19.8486  19.8487  20.1477  20.1567  20.2400  20.2637
    20.2662  20.3309  20.3464  20.3621  20.3679  20.3799  20.4570  20.4613
    20.4761  20.4762  20.6005  20.6909  20.6909  20.8759  20.8760  20.9546
    21.1277  21.1278  21.1641  21.1641  21.2390  21.2390  21.8190  21.8190
    21.9351  21.9352

          k = 0.0553 0.0553-0.4975 ( 11492 PWs)   bands (ev):

   -67.0979 -67.0977 -67.0292 -67.0288 -67.0285 -67.0284 -67.0174 -67.0171
   -67.0167 -67.0166 -67.0157 -67.0154 -67.0146 -67.0144 -66.9632 -66.9629
   -33.3314 -33.3313 -33.3312 -33.3311 -33.3284 -33.3283 -33.3282 -33.3281
   -33.3051 -33.3051 -33.3049 -33.3048 -33.2519 -33.2517 -33.1954 -33.1952
   -33.1829 -33.1828 -33.0947 -33.0944 -33.0864 -33.0861 -33.0621 -33.0619
   -33.0618 -33.0616 -33.0374 -33.0372 -33.0371 -33.0369 -32.9779 -32.9777
   -32.9410 -32.9408 -32.9393 -32.9391 -32.9363 -32.9362 -32.9359 -32.9359
   -32.9171 -32.9168 -32.9122 -32.9120 -32.9119 -32.9118 -32.9096 -32.9094
    12.4884  12.4888  15.2989  15.2989  15.2991  15.2991  15.6024  15.6024
    15.6025  15.6026  15.9416  15.9418  16.0705  16.0708  16.0789  16.0792
    16.0951  16.0955  16.9121  16.9125  16.9212  16.9215  17.5739  17.5739
    17.5741  17.5743  17.6685  17.6686  17.6688  17.6688  17.8701  17.8703
    17.8705  17.8707  18.0262  18.0263  18.0263  18.0265  18.2883  18.2885
    18.3002  18.3002  18.3139  18.3140  18.3156  18.3159  18.7997  18.8000
    19.3955  19.3958  19.5914  19.5915  19.5915  19.5918  19.6642  19.6642
    19.6643  19.6646  19.9883  19.9885  20.1115  20.1117  20.2053  20.2055
    20.2105  20.2107  20.3402  20.3404  20.3541  20.3543  20.3687  20.3689
    20.7284  20.7286  20.7287  20.7287  20.7936  20.7938  20.9371  20.9373
    20.9373  20.9374  21.1866  21.1867  21.1868  21.1869  21.9044  21.9045
    21.9047  21.9047

          k = 0.0553 0.1658 0.1658 ( 11492 PWs)   bands (ev):

   -67.1224 -67.0508 -67.0506 -67.0337 -67.0262 -67.0211 -67.0209 -67.0181
   -67.0169 -67.0167 -67.0134 -67.0126 -67.0115 -67.0030 -67.0027 -66.9438
   -33.4041 -33.3977 -33.3977 -33.3900 -33.3900 -33.3788 -33.2643 -33.2446
   -33.2386 -33.2341 -33.2340 -33.2267 -33.2237 -33.2195 -33.1959 -33.1520
   -33.1376 -33.1372 -33.1046 -33.1038 -33.1036 -33.0757 -33.0654 -33.0650
   -33.0599 -33.0570 -33.0567 -33.0465 -33.0463 -33.0432 -33.0406 -33.0327
   -33.0222 -33.0110 -33.0040 -33.0037 -32.9811 -32.9687 -32.9686 -32.9040
   -32.8909 -32.8824 -32.8824 -32.8748 -32.8748 -32.8728 -32.8644 -32.8628
    11.4574  14.4899  14.4900  15.1477  15.1650  15.3076  15.3076  15.3845
    15.3846  15.3968  15.6001  15.6038  15.6560  15.9409  15.9409  16.7310
    16.8413  17.0151  17.0648  17.0648  17.0722  17.0723  17.1011  17.1011
    17.1072  17.1293  17.2291  17.3269  17.3627  17.3680  17.6512  18.0253
    18.0256  18.2377  18.2999  18.3000  18.3031  18.3476  18.4894  18.5318
    18.8277  18.8280  18.8954  18.8954  18.9369  19.0005  19.0995  19.1944
    19.1944  19.2071  19.2073  19.3894  19.3894  19.5373  19.6451  19.6455
    19.8763  19.9916  20.0023  20.0023  20.0567  20.0591  20.0591  20.0832
    20.0860  20.2604  20.3075  20.3404  20.3406  20.3562  20.3562  20.3647
    20.3662  20.4671  20.4674  20.6818  20.7881  20.7884  20.8018  20.8019
    20.9166  21.1608  21.1718  21.3013  21.3718  21.7133  22.0413  22.0414
    22.2348  22.3765

          k = 0.0553 0.1658 0.2764 ( 11499 PWs)   bands (ev):

   -67.1161 -67.0667 -67.0483 -67.0323 -67.0311 -67.0232 -67.0200 -67.0176
   -67.0164 -67.0160 -67.0139 -67.0121 -67.0102 -67.0034 -66.9885 -66.9486
   -33.3923 -33.3814 -33.3812 -33.3753 -33.3686 -33.3508 -33.2711 -33.2703
   -33.2674 -33.2568 -33.2547 -33.2531 -33.2328 -33.2287 -33.2050 -33.1813
   -33.1413 -33.1360 -33.1011 -33.0999 -33.0975 -33.0955 -33.0774 -33.0693
   -33.0690 -33.0617 -33.0556 -33.0449 -33.0428 -33.0306 -33.0251 -33.0076
   -33.0060 -32.9921 -32.9834 -32.9731 -32.9565 -32.9399 -32.9396 -32.9326
   -32.9104 -32.8945 -32.8943 -32.8893 -32.8837 -32.8823 -32.8672 -32.8663
    11.7230  13.8339  14.6240  15.0960  15.2656  15.3431  15.4796  15.5016
    15.5331  15.5701  15.7119  15.7247  15.7278  15.9785  16.0973  16.6144
    16.6937  16.7318  16.9553  17.0282  17.0407  17.0575  17.1094  17.1669
    17.1895  17.2252  17.3227  17.3914  17.4879  17.5526  17.5567  17.8948
    18.0459  18.1463  18.1645  18.1823  18.2206  18.2654  18.2868  18.4729
    18.5127  18.6619  18.6913  18.8410  18.9013  18.9779  18.9963  19.0082
    19.0853  19.1838  19.2040  19.2536  19.2835  19.4133  19.4381  19.7558
    19.8833  19.9075  19.9456  19.9807  20.0131  20.0453  20.0822  20.1255
    20.2846  20.2993  20.3009  20.3606  20.3658  20.3881  20.3891  20.4037
    20.4525  20.5590  20.5782  20.5875  20.5985  20.6273  20.6801  20.7741
    20.8932  21.1023  21.1556  21.2295  21.3669  21.8520  21.8810  22.4357
    22.5284  22.6609

          k = 0.0553 0.1658 0.3870 ( 11500 PWs)   bands (ev):

   -67.1070 -67.0817 -67.0450 -67.0361 -67.0304 -67.0256 -67.0187 -67.0171
   -67.0164 -67.0155 -67.0150 -67.0130 -67.0077 -67.0043 -66.9757 -66.9555
   -33.3714 -33.3577 -33.3566 -33.3543 -33.3395 -33.3152 -33.3084 -33.2984
   -33.2925 -33.2915 -33.2732 -33.2666 -33.2656 -33.2277 -33.2153 -33.1827
   -33.1661 -33.1285 -33.1241 -33.0941 -33.0932 -33.0859 -33.0783 -33.0756
   -33.0684 -33.0670 -33.0515 -33.0439 -33.0433 -33.0185 -33.0092 -32.9958
   -32.9712 -32.9681 -32.9618 -32.9565 -32.9448 -32.9349 -32.9325 -32.9141
   -32.9132 -32.9117 -32.9111 -32.9108 -32.8996 -32.8944 -32.8768 -32.8763
    12.1110  13.1919  14.7829  15.0294  15.3571  15.3834  15.5928  15.6867
    15.7488  15.7719  15.8259  15.8565  15.9076  15.9472  16.0996  16.4074
    16.4171  16.4211  16.9263  16.9680  16.9841  17.0075  17.2737  17.3141
    17.3286  17.3844  17.3865  17.5336  17.6043  17.7388  17.7722  17.8336
    17.9466  17.9567  18.0139  18.0270  18.1448  18.1456  18.1891  18.2214
    18.2394  18.2696  18.3395  18.4751  18.5372  18.5379  18.8163  19.1937
    19.2305  19.3824  19.3844  19.4403  19.4433  19.4618  19.6281  19.7040
    19.7225  19.7796  19.8495  19.8911  20.0551  20.1049  20.1279  20.2065
    20.2407  20.2465  20.2514  20.3580  20.3643  20.3736  20.3745  20.4337
    20.4469  20.4805  20.5157  20.6376  20.6423  20.7339  20.7795  20.8763
    20.8811  20.8880  21.0787  21.2718  21.3477  21.7009  22.0318  22.3643
    22.7033  22.8546

          k = 0.0553 0.1658-0.4975 ( 11512 PWs)   bands (ev):

   -67.0954 -67.0952 -67.0409 -67.0407 -67.0282 -67.0280 -67.0172 -67.0170
   -67.0168 -67.0165 -67.0141 -67.0139 -67.0059 -67.0056 -66.9647 -66.9645
   -33.3429 -33.3428 -33.3282 -33.3280 -33.3277 -33.3275 -33.3260 -33.3259
   -33.3049 -33.3048 -33.2735 -33.2734 -33.2719 -33.2717 -33.1929 -33.1927
   -33.1570 -33.1569 -33.1051 -33.1048 -33.0867 -33.0865 -33.0817 -33.0815
   -33.0721 -33.0719 -33.0438 -33.0436 -33.0135 -33.0133 -33.0083 -33.0082
   -32.9636 -32.9635 -32.9385 -32.9383 -32.9347 -32.9345 -32.9321 -32.9320
   -32.9202 -32.9200 -32.9115 -32.9114 -32.8929 -32.8929 -32.8918 -32.8917
    12.6073  12.6077  14.9262  14.9264  15.3974  15.3976  15.6962  15.6963
    15.8366  15.8367  16.0009  16.0011  16.0917  16.0920  16.1213  16.1215
    16.1393  16.1396  16.9446  16.9450  16.9684  16.9687  17.4714  17.4716
    17.4899  17.4901  17.5169  17.5170  17.5770  17.5772  17.8933  17.8934
    17.9317  17.9318  17.9956  17.9958  18.1123  18.1125  18.1276  18.1277
    18.1310  18.1312  18.1693  18.1694  18.2551  18.2554  18.9943  18.9945
    19.4779  19.4782  19.5016  19.5018  19.6212  19.6214  19.6664  19.6666
    19.7038  19.7040  19.7116  19.7117  20.0436  20.0438  20.1730  20.1732
    20.1858  20.1860  20.3097  20.3100  20.3577  20.3579  20.3955  20.3957
    20.5042  20.5043  20.6024  20.6025  20.7107  20.7108  20.7869  20.7870
    20.9497  20.9499  21.1082  21.1083  21.5133  21.5135  22.2165  22.2167
    22.8394  22.8397

          k = 0.0553 0.2764 0.2764 ( 11499 PWs)   bands (ev):

   -67.1101 -67.0635 -67.0632 -67.0387 -67.0310 -67.0222 -67.0220 -67.0172
   -67.0159 -67.0157 -67.0153 -67.0124 -67.0045 -66.9902 -66.9900 -66.9529
   -33.3862 -33.3671 -33.3671 -33.3571 -33.3571 -33.3189 -33.2866 -33.2865
   -33.2830 -33.2825 -33.2737 -33.2706 -33.2493 -33.2218 -33.1811 -33.1421
   -33.1398 -33.1393 -33.1305 -33.1302 -33.0964 -33.0857 -33.0840 -33.0759
   -33.0757 -33.0632 -33.0628 -33.0544 -33.0542 -33.0490 -33.0120 -32.9847
   -32.9771 -32.9768 -32.9700 -32.9665 -32.9635 -32.9406 -32.9344 -32.9143
   -32.9141 -32.9021 -32.9021 -32.8937 -32.8935 -32.8935 -32.8640 -32.8630
    11.9820  14.0092  14.0092  14.9320  15.3895  15.5395  15.5395  15.6633
    15.6634  15.6928  15.8121  15.8270  15.8558  16.1406  16.1406  16.5536
    16.6120  16.8061  16.8061  17.0139  17.0854  17.1164  17.1164  17.1597
    17.1597  17.2278  17.2431  17.4227  17.4343  17.5330  17.5774  17.9422
    17.9423  18.0491  18.0698  18.0701  18.0806  18.0913  18.1447  18.2539
    18.4888  18.4888  18.5493  18.5493  18.7059  18.7596  18.7600  18.8368
    19.2697  19.2697  19.3257  19.3656  19.4115  19.4118  19.6247  19.7063
    19.7067  19.8762  19.9573  19.9573  19.9853  20.0041  20.0042  20.0649
    20.1010  20.2571  20.2584  20.2663  20.3589  20.3685  20.4031  20.4571
    20.4662  20.4665  20.5173  20.5414  20.5414  20.6483  20.6486  20.8264
    20.8264  20.8651  21.2071  21.3948  21.4050  22.0841  22.5025  22.5026
    23.1001  23.1003

          k = 0.0553 0.2764 0.3870 ( 11493 PWs)   bands (ev):

   -67.1014 -67.0775 -67.0586 -67.0459 -67.0291 -67.0245 -67.0206 -67.0171
   -67.0167 -67.0158 -67.0149 -67.0130 -66.9996 -66.9924 -66.9781 -66.9594
   -33.3711 -33.3470 -33.3463 -33.3411 -33.3329 -33.3192 -33.3019 -33.2964
   -33.2953 -33.2944 -33.2915 -33.2792 -33.2758 -33.2053 -33.1872 -33.1587
   -33.1545 -33.1312 -33.1217 -33.0979 -33.0950 -33.0948 -33.0943 -33.0900
   -33.0889 -33.0823 -33.0668 -33.0542 -33.0526 -33.0275 -33.0063 -33.0006
   -32.9829 -32.9624 -32.9579 -32.9506 -32.9481 -32.9440 -32.9249 -32.9135
   -32.9126 -32.9103 -32.9084 -32.9011 -32.8930 -32.8922 -32.8671 -32.8666
    12.3589  13.3997  14.2413  14.7323  15.5128  15.5780  15.7738  15.8108
    15.8546  15.8932  15.9126  15.9416  16.0374  16.1094  16.1574  16.4190
    16.4234  16.5195  16.9943  17.0028  17.0372  17.0573  17.0865  17.2204
    17.2321  17.2704  17.3521  17.3557  17.5918  17.6869  17.6874  17.7130
    17.8216  17.9166  17.9282  17.9866  17.9997  18.0276  18.1040  18.1348
    18.1428  18.2066  18.2159  18.2225  18.3556  18.4228  19.0317  19.0473
    19.4050  19.4222  19.4732  19.5113  19.5133  19.5219  19.5239  19.6130
    19.7166  19.7730  19.8373  19.8764  19.8993  20.0125  20.0284  20.0550
    20.1536  20.1724  20.1909  20.1952  20.2973  20.3645  20.3809  20.3859
    20.4055  20.4751  20.4821  20.5035  20.5111  20.5852  20.6075  20.6703
    20.9951  21.0541  21.1955  21.3481  21.6561  22.2330  22.3701  22.9204
    23.1686  23.7803

          k = 0.0553 0.2764-0.4975 ( 11518 PWs)   bands (ev):

   -67.0905 -67.0903 -67.0528 -67.0526 -67.0270 -67.0268 -67.0190 -67.0188
   -67.0163 -67.0160 -67.0141 -67.0138 -66.9957 -66.9954 -66.9680 -66.9677
   -33.3483 -33.3482 -33.3224 -33.3223 -33.3223 -33.3222 -33.3219 -33.3218
   -33.3049 -33.3049 -33.2959 -33.2958 -33.2347 -33.2347 -33.1841 -33.1839
   -33.1259 -33.1258 -33.1140 -33.1138 -33.1110 -33.1108 -33.0874 -33.0873
   -33.0796 -33.0794 -33.0539 -33.0538 -33.0497 -33.0497 -32.9937 -32.9936
   -32.9910 -32.9907 -32.9324 -32.9322 -32.9292 -32.9290 -32.9276 -32.9274
   -32.9267 -32.9266 -32.9116 -32.9115 -32.8770 -32.8770 -32.8765 -32.8764
    12.8387  12.8391  14.4946  14.4949  15.5798  15.5800  15.8675  15.8676
    16.0023  16.0025  16.0724  16.0726  16.1235  16.1237  16.1883  16.1886
    16.2608  16.2610  17.0080  17.0083  17.0333  17.0335  17.2943  17.2945
    17.3127  17.3129  17.3249  17.3250  17.5115  17.5117  17.8728  17.8729
    17.9030  17.9031  17.9128  17.9129  17.9396  17.9397  17.9469  17.9471
    18.1036  18.1037  18.1168  18.1170  18.1776  18.1778  19.2433  19.2436
    19.3705  19.3705  19.4374  19.4376  19.6076  19.6079  19.6891  19.6892
    19.7062  19.7063  19.7390  19.7391  19.8766  19.8768  20.1104  20.1106
    20.1231  20.1233  20.2544  20.2546  20.2973  20.2974  20.3774  20.3776
    20.4069  20.4071  20.4251  20.4252  20.5162  20.5163  20.6420  20.6421
    21.1217  21.1218  21.2323  21.2324  21.9439  21.9441  22.6630  22.6633
    23.8541  23.8545

          k = 0.0553 0.3870 0.3870 ( 11522 PWs)   bands (ev):

   -67.0934 -67.0717 -67.0714 -67.0554 -67.0274 -67.0230 -67.0228 -67.0190
   -67.0161 -67.0152 -67.0149 -67.0135 -66.9925 -66.9818 -66.9816 -66.9651
   -33.3623 -33.3326 -33.3326 -33.3244 -33.3243 -33.3222 -33.3221 -33.3079
   -33.3070 -33.3053 -33.3042 -33.2894 -33.2373 -33.1902 -33.1479 -33.1475
   -33.1426 -33.1422 -33.1291 -33.1241 -33.1167 -33.1009 -33.1007 -33.0990
   -33.0855 -33.0664 -33.0663 -33.0603 -33.0601 -33.0596 -33.0497 -32.9930
   -32.9845 -32.9594 -32.9590 -32.9411 -32.9352 -32.9320 -32.9215 -32.9184
   -32.9170 -32.9169 -32.9113 -32.9112 -32.8768 -32.8767 -32.8636 -32.8631
    12.7175  13.6891  13.6892  14.3921  15.6876  15.8399  15.8400  15.9950
    16.0112  16.0113  16.0320  16.0348  16.1572  16.1573  16.2327  16.3345
    16.3947  16.7307  16.7308  17.0382  17.0547  17.1195  17.1405  17.1405
    17.1501  17.1501  17.2360  17.3541  17.4301  17.5346  17.6434  17.7262
    17.7263  17.8166  17.8752  17.8914  17.9009  17.9009  17.9351  17.9351
    18.0715  18.0735  18.0738  18.1597  18.1924  18.7007  18.7011  19.2650
    19.3618  19.4433  19.5036  19.5039  19.6229  19.6229  19.6404  19.6503
    19.7627  19.7632  19.8041  19.8859  19.9218  19.9218  19.9238  19.9397
    19.9398  20.1143  20.1174  20.1298  20.2173  20.3104  20.3105  20.3360
    20.3797  20.4092  20.4418  20.4421  20.4778  20.5332  20.5335  20.5567
    21.1770  21.1771  21.2544  21.3582  22.0268  22.7614  22.8026  22.8028
    23.5245  23.5246

          k = 0.0553 0.3870-0.4975 ( 11514 PWs)   bands (ev):

   -67.0834 -67.0832 -67.0642 -67.0640 -67.0253 -67.0251 -67.0211 -67.0209
   -67.0156 -67.0154 -67.0144 -67.0141 -66.9867 -66.9864 -66.9727 -66.9724
   -33.3454 -33.3453 -33.3178 -33.3177 -33.3177 -33.3177 -33.3176 -33.3175
   -33.3155 -33.3154 -33.3062 -33.3061 -33.1909 -33.1908 -33.1709 -33.1707
   -33.1335 -33.1333 -33.1178 -33.1176 -33.1029 -33.1028 -33.0958 -33.0957
   -33.0925 -33.0924 -33.0776 -33.0774 -33.0646 -33.0645 -33.0258 -33.0257
   -32.9708 -32.9706 -32.9388 -32.9385 -32.9249 -32.9248 -32.9246 -32.9245
   -32.9228 -32.9228 -32.9136 -32.9135 -32.8670 -32.8670 -32.8669 -32.8667
    13.1693  13.1697  14.0320  14.0323  15.8097  15.8099  16.0739  16.0740
    16.0991  16.0993  16.1186  16.1188  16.1204  16.1207  16.2483  16.2485
    16.4696  16.4698  17.0222  17.0225  17.0673  17.0675  17.0691  17.0693
    17.1330  17.1331  17.1893  17.1894  17.5568  17.5569  17.6719  17.6720
    17.7571  17.7572  17.7660  17.7662  17.7814  17.7816  17.8273  17.8274
    18.0884  18.0886  18.1120  18.1122  18.3701  18.3701  19.0174  19.0175
    19.4396  19.4398  19.5089  19.5092  19.6853  19.6855  19.7394  19.7397
    19.7909  19.7910  19.7912  19.7913  19.7944  19.7946  20.0198  20.0200
    20.0265  20.0266  20.0527  20.0529  20.1917  20.1919  20.2404  20.2406
    20.4034  20.4036  20.4532  20.4533  20.4655  20.4657  20.5452  20.5453
    21.2469  21.2469  21.3011  21.3011  22.4174  22.4177  23.1589  23.1592
    23.3865  23.3868

          k = 0.0553-0.4975-0.4975 ( 11512 PWs)   bands (ev):

   -67.0746 -67.0745 -67.0743 -67.0741 -67.0234 -67.0233 -67.0232 -67.0229
   -67.0150 -67.0149 -67.0148 -67.0145 -66.9790 -66.9789 -66.9788 -66.9785
   -33.3347 -33.3347 -33.3347 -33.3345 -33.3160 -33.3159 -33.3158 -33.3158
   -33.3098 -33.3098 -33.3097 -33.3097 -33.1539 -33.1538 -33.1535 -33.1534
   -33.1439 -33.1438 -33.1433 -33.1433 -33.1141 -33.1141 -33.1141 -33.1139
   -33.0730 -33.0730 -33.0730 -33.0728 -33.0591 -33.0589 -33.0585 -33.0585
   -32.9533 -32.9532 -32.9529 -32.9527 -32.9222 -32.9222 -32.9220 -32.9220
   -32.9183 -32.9183 -32.9182 -32.9182 -32.8635 -32.8635 -32.8635 -32.8633
    13.5773  13.5774  13.5776  13.5778  16.0167  16.0169  16.0170  16.0170
    16.1328  16.1328  16.1329  16.1331  16.2269  16.2271  16.2272  16.2272
    16.7331  16.7331  16.7333  16.7334  17.0614  17.0614  17.0615  17.0615
    17.1081  17.1082  17.1083  17.1083  17.6487  17.6489  17.6490  17.6490
    17.6519  17.6521  17.6521  17.6523  17.7389  17.7390  17.7390  17.7392
    18.0801  18.0802  18.0803  18.0807  18.6784  18.6784  18.6788  18.6788
    19.5265  19.5266  19.5267  19.5271  19.7759  19.7762  19.7764  19.7764
    19.8182  19.8183  19.8183  19.8184  19.9083  19.9085  19.9085  19.9086
    19.9099  19.9100  19.9101  19.9102  20.1695  20.1696  20.1697  20.1699
    20.4313  20.4314  20.4317  20.4317  20.4880  20.4881  20.4884  20.4884
    21.3074  21.3074  21.3075  21.3075  22.9040  22.9044  22.9045  22.9046
    23.6631  23.6634

          k = 0.1658 0.1658 0.1658 ( 11536 PWs)   bands (ev):

   -67.1193 -67.0496 -67.0496 -67.0492 -67.0258 -67.0258 -67.0254 -67.0142
   -67.0133 -67.0133 -67.0129 -67.0110 -67.0033 -67.0033 -67.0029 -66.9461
   -33.3956 -33.3955 -33.3955 -33.3729 -33.3729 -33.3729 -33.2583 -33.2578
   -33.2578 -33.2506 -33.2505 -33.2505 -33.2049 -33.1991 -33.1991 -33.1596
   -33.1591 -33.1591 -33.1110 -33.1109 -33.1109 -33.0683 -33.0679 -33.0679
   -33.0583 -33.0583 -33.0421 -33.0418 -33.0418 -33.0374 -33.0370 -33.0370
   -33.0062 -33.0062 -33.0062 -32.9990 -32.9529 -32.9529 -32.9528 -32.9241
   -32.8945 -32.8945 -32.8945 -32.8726 -32.8725 -32.8725 -32.8688 -32.8688
    11.5909  14.5695  14.5695  14.5696  15.2530  15.2531  15.2531  15.4911
    15.4912  15.4912  15.6632  15.6632  15.9938  15.9938  15.9938  16.6504
    16.9481  16.9481  17.0470  17.0471  17.0471  17.0865  17.0866  17.0866
    17.1947  17.1947  17.1947  17.2106  17.2938  17.2938  17.8766  17.8769
    17.8769  18.2225  18.2225  18.2227  18.2250  18.2250  18.6449  18.6465
    18.6468  18.6468  18.8311  18.8312  18.8312  19.0088  19.0088  19.0089
    19.2194  19.2194  19.2195  19.2820  19.2822  19.2822  19.8404  19.8409
    19.8409  19.9119  19.9120  19.9120  20.0246  20.0246  20.0601  20.0602
    20.0602  20.3101  20.3104  20.3104  20.3405  20.3405  20.3426  20.3426
    20.4111  20.4598  20.4598  20.4599  20.7994  20.7995  20.7995  21.0113
    21.0116  21.0116  21.0370  21.0370  21.7458  21.7459  21.7459  22.4902
    22.4902  22.4902

          k = 0.1658 0.1658 0.2764 ( 11501 PWs)   bands (ev):

   -67.1131 -67.0650 -67.0473 -67.0471 -67.0305 -67.0303 -67.0243 -67.0161
   -67.0127 -67.0108 -67.0103 -67.0100 -67.0037 -67.0035 -66.9892 -66.9507
   -33.3842 -33.3842 -33.3788 -33.3610 -33.3468 -33.3468 -33.2796 -33.2772
   -33.2771 -33.2688 -33.2667 -33.2454 -33.2441 -33.1943 -33.1941 -33.1831
   -33.1766 -33.1442 -33.1182 -33.1120 -33.1119 -33.0835 -33.0796 -33.0794
   -33.0722 -33.0661 -33.0440 -33.0289 -33.0286 -33.0145 -33.0125 -33.0124
   -33.0092 -33.0090 -32.9739 -32.9739 -32.9540 -32.9318 -32.9317 -32.9274
   -32.9110 -32.9110 -32.9022 -32.8876 -32.8802 -32.8745 -32.8744 -32.8689
    11.8537  13.9298  14.7111  14.7111  15.2052  15.2053  15.4564  15.6260
    15.6260  15.6703  15.7791  15.7803  16.0516  16.0517  16.1584  16.5714
    16.7324  16.7853  16.9222  17.0502  17.0567  17.0568  17.1353  17.1515
    17.1651  17.1652  17.3162  17.3380  17.3380  17.5081  17.7349  17.7351
    18.0172  18.0445  18.0446  18.1286  18.1477  18.2023  18.3929  18.3930
    18.4038  18.4039  18.6280  18.7635  18.7637  18.7800  18.7963  18.8406
    19.1301  19.2294  19.2294  19.3714  19.3714  19.5305  19.6125  19.8037
    19.8037  19.9103  19.9764  20.0038  20.0039  20.0794  20.0855  20.0881
    20.1064  20.1067  20.2957  20.2972  20.3157  20.3390  20.3531  20.3560
    20.3561  20.5692  20.6243  20.6243  20.6527  20.7218  20.7949  20.8032
    20.8032  21.0822  21.0912  21.0914  21.4862  21.4863  22.3649  22.6880
    22.6880  23.1258

          k = 0.1658 0.1658 0.3870 ( 11506 PWs)   bands (ev):

   -67.1042 -67.0796 -67.0440 -67.0437 -67.0353 -67.0351 -67.0226 -67.0184
   -67.0121 -67.0110 -67.0079 -67.0076 -67.0046 -67.0043 -66.9768 -66.9574
   -33.3647 -33.3647 -33.3543 -33.3444 -33.3139 -33.3138 -33.3079 -33.3079
   -33.3020 -33.2859 -33.2763 -33.2760 -33.2345 -33.2344 -33.2269 -33.1756
   -33.1585 -33.1530 -33.1079 -33.1077 -33.1046 -33.1027 -33.0907 -33.0905
   -33.0747 -33.0667 -33.0531 -33.0221 -33.0218 -33.0124 -33.0122 -32.9904
   -32.9829 -32.9828 -32.9748 -32.9506 -32.9444 -32.9316 -32.9315 -32.9141
   -32.9113 -32.9112 -32.9103 -32.9053 -32.8968 -32.8817 -32.8816 -32.8755
    12.2369  13.3011  14.8798  14.8798  15.1395  15.1396  15.7419  15.7796
    15.7796  15.9140  15.9266  15.9520  16.0363  16.0364  16.1683  16.4261
    16.4365  16.4500  16.9298  17.0050  17.0402  17.0695  17.1896  17.1897
    17.2936  17.2936  17.5001  17.5002  17.5908  17.6162  17.6163  17.7665
    17.9203  17.9204  17.9979  17.9980  18.0755  18.0912  18.0924  18.1240
    18.1240  18.1726  18.3133  18.3135  18.3391  18.3561  18.9717  19.0914
    19.3268  19.3844  19.4684  19.4684  19.4752  19.4752  19.6885  19.6885
    19.7378  19.7464  19.8268  19.8832  19.8832  20.0580  20.1238  20.1760
    20.2278  20.2414  20.3224  20.3348  20.3395  20.3397  20.3790  20.4096
    20.4244  20.4245  20.4873  20.5379  20.8021  20.8022  20.8255  20.8478
    20.8478  21.0542  21.0622  21.0623  21.2339  21.2339  22.9199  22.9199
    23.0472  23.2189

          k = 0.1658 0.1658-0.4975 ( 11512 PWs)   bands (ev):

   -67.0930 -67.0928 -67.0402 -67.0399 -67.0396 -67.0394 -67.0206 -67.0204
   -67.0116 -67.0114 -67.0063 -67.0059 -67.0057 -67.0055 -66.9662 -66.9660
   -33.3385 -33.3385 -33.3384 -33.3383 -33.3241 -33.3239 -33.3232 -33.3229
   -33.2789 -33.2787 -33.2756 -33.2756 -33.2753 -33.2752 -33.2035 -33.2033
   -33.1316 -33.1315 -33.1283 -33.1281 -33.1005 -33.1003 -33.1003 -33.1001
   -33.0617 -33.0614 -33.0316 -33.0315 -33.0167 -33.0165 -33.0164 -33.0162
   -32.9561 -32.9560 -32.9557 -32.9555 -32.9396 -32.9394 -32.9304 -32.9303
   -32.9187 -32.9185 -32.8944 -32.8942 -32.8942 -32.8942 -32.8881 -32.8880
    12.7263  12.7267  15.0321  15.0321  15.0323  15.0323  15.9298  15.9299
    15.9300  15.9301  16.0721  16.0723  16.0848  16.0851  16.1730  16.1734
    16.1861  16.1863  16.9610  16.9614  17.0239  17.0242  17.4412  17.4413
    17.4416  17.4417  17.4570  17.4570  17.4573  17.4575  17.8984  17.8984
    17.8987  17.8988  17.9371  17.9371  18.0091  18.0093  18.0093  18.0094
    18.0568  18.0569  18.0644  18.0646  18.1375  18.1378  19.1684  19.1687
    19.3973  19.3974  19.5446  19.5449  19.5748  19.5748  19.5749  19.5751
    19.7015  19.7015  19.7016  19.7017  20.1456  20.1458  20.1539  20.1541
    20.1807  20.1809  20.2826  20.2829  20.3292  20.3294  20.4335  20.4337
    20.4422  20.4423  20.4423  20.4424  20.9570  20.9571  20.9571  20.9573
    20.9642  20.9643  20.9993  20.9995  20.9996  20.9997  23.1226  23.1226
    23.1229  23.1229

          k = 0.1658 0.2764 0.2764 ( 11510 PWs)   bands (ev):

   -67.1073 -67.0619 -67.0616 -67.0449 -67.0377 -67.0290 -67.0288 -67.0188
   -67.0101 -67.0099 -67.0097 -67.0047 -67.0040 -66.9909 -66.9906 -66.9549
   -33.3780 -33.3684 -33.3684 -33.3391 -33.3391 -33.3172 -33.2918 -33.2901
   -33.2900 -33.2900 -33.2758 -33.2533 -33.2421 -33.2173 -33.1876 -33.1576
   -33.1545 -33.1541 -33.1453 -33.1452 -33.1222 -33.0980 -33.0977 -33.0970
   -33.0520 -33.0424 -33.0421 -33.0346 -33.0344 -33.0145 -33.0130 -32.9985
   -32.9886 -32.9864 -32.9774 -32.9772 -32.9557 -32.9314 -32.9200 -32.9130
   -32.9130 -32.9100 -32.9100 -32.8886 -32.8886 -32.8872 -32.8717 -32.8692
    12.1103  14.1094  14.1095  14.8680  15.0465  15.4160  15.4160  15.7843
    15.8015  15.8016  15.8801  15.9061  16.1555  16.2244  16.2244  16.5434
    16.7205  16.7830  16.7830  16.9798  17.0054  17.1213  17.1213  17.1942
    17.1966  17.2183  17.2484  17.2484  17.4864  17.4998  17.5816  17.8436
    17.8437  17.9397  17.9863  17.9865  18.0459  18.0581  18.1459  18.2110
    18.2675  18.2675  18.4100  18.4101  18.4796  18.5484  18.5487  18.9800
    19.3305  19.3305  19.3638  19.4863  19.5577  19.5579  19.6979  19.7371
    19.8890  19.8890  19.8938  19.8941  19.9140  19.9865  20.0238  20.0239
    20.0617  20.2646  20.2678  20.2686  20.2951  20.3252  20.3338  20.3340
    20.3502  20.5354  20.5355  20.6460  20.6753  20.7905  20.7906  20.8084
    20.8086  20.8977  21.0734  21.1708  21.1747  22.0264  22.0265  22.9571
    23.7274  23.7276

          k = 0.1658 0.2764 0.3870 ( 11513 PWs)   bands (ev):

   -67.0988 -67.0756 -67.0571 -67.0448 -67.0418 -67.0335 -67.0268 -67.0215
   -67.0098 -67.0095 -67.0077 -67.0048 -66.9998 -66.9929 -66.9791 -66.9611
   -33.3634 -33.3516 -33.3455 -33.3287 -33.3168 -33.3115 -33.3087 -33.3039
   -33.2949 -33.2864 -33.2841 -33.2806 -33.2475 -33.2259 -33.1962 -33.1759
   -33.1714 -33.1389 -33.1303 -33.1249 -33.1217 -33.1132 -33.1112 -33.1109
   -33.0720 -33.0501 -33.0415 -33.0274 -33.0250 -33.0173 -33.0113 -33.0018
   -32.9831 -32.9669 -32.9657 -32.9551 -32.9485 -32.9397 -32.9273 -32.9182
   -32.9094 -32.9091 -32.9025 -32.8937 -32.8925 -32.8925 -32.8740 -32.8715
    12.4836  13.5109  14.3477  14.8482  15.0583  15.3508  15.7123  15.9470
    15.9538  16.0161  16.0361  16.0779  16.1900  16.2048  16.2467  16.4354
    16.4691  16.5210  16.9651  16.9835  17.0635  17.0673  17.1056  17.1507
    17.2318  17.3231  17.3443  17.3790  17.4667  17.6058  17.6400  17.6534
    17.7634  17.8223  17.8818  17.9183  17.9373  17.9703  18.0000  18.0126
    18.0322  18.0503  18.0764  18.0981  18.1734  18.2549  18.7635  19.1882
    19.3806  19.4832  19.5492  19.5505  19.5537  19.5953  19.6137  19.6559
    19.7937  19.8070  19.8111  19.9038  19.9073  19.9943  20.0722  20.1271
    20.1801  20.1982  20.2049  20.2847  20.3241  20.3267  20.3636  20.3792
    20.3851  20.3960  20.4048  20.5046  20.5981  20.7019  20.8169  20.8791
    20.9325  20.9495  21.0794  21.1046  21.1664  21.7055  22.6266  23.2714
    23.7662  23.8830

          k = 0.1658 0.2764-0.4975 ( 11524 PWs)   bands (ev):

   -67.0882 -67.0880 -67.0515 -67.0512 -67.0380 -67.0378 -67.0245 -67.0242
   -67.0096 -67.0094 -67.0061 -67.0059 -66.9961 -66.9959 -66.9693 -66.9691
   -33.3425 -33.3424 -33.3306 -33.3305 -33.3168 -33.3167 -33.3166 -33.3166
   -33.2935 -33.2934 -33.2799 -33.2799 -33.2393 -33.2393 -33.2034 -33.2032
   -33.1475 -33.1473 -33.1279 -33.1278 -33.1207 -33.1205 -33.1018 -33.1017
   -33.0675 -33.0674 -33.0474 -33.0471 -33.0217 -33.0215 -32.9914 -32.9912
   -32.9821 -32.9821 -32.9449 -32.9449 -32.9361 -32.9358 -32.9272 -32.9271
   -32.9234 -32.9232 -32.8994 -32.8993 -32.8813 -32.8812 -32.8795 -32.8794
    12.9579  12.9582  14.6071  14.6074  15.2319  15.2321  16.0670  16.0672
    16.0971  16.0972  16.1017  16.1019  16.1568  16.1570  16.2837  16.2840
    16.2844  16.2846  17.0157  17.0160  17.0845  17.0847  17.2542  17.2544
    17.2685  17.2687  17.3583  17.3585  17.4721  17.4722  17.6789  17.6790
    17.8338  17.8340  17.8559  17.8560  17.8601  17.8602  17.9109  17.9111
    17.9755  17.9757  17.9790  17.9790  18.0478  18.0481  19.0465  19.0466
    19.4139  19.4141  19.5652  19.5654  19.6559  19.6562  19.6959  19.6961
    19.7423  19.7424  19.7493  19.7494  20.0993  20.0995  20.1024  20.1025
    20.1364  20.1366  20.2335  20.2337  20.3179  20.3181  20.3246  20.3248
    20.4099  20.4100  20.4628  20.4629  20.6093  20.6094  20.7706  20.7707
    21.0328  21.0329  21.0844  21.0845  21.3922  21.3924  23.2501  23.2505
    23.5661  23.5664

          k = 0.1658 0.3870 0.3870 ( 11517 PWs)   bands (ev):

   -67.0910 -67.0699 -67.0696 -67.0540 -67.0389 -67.0312 -67.0310 -67.0249
   -67.0086 -67.0079 -67.0076 -67.0055 -66.9930 -66.9827 -66.9824 -66.9666
   -33.3542 -33.3334 -33.3334 -33.3173 -33.3172 -33.3128 -33.3087 -33.3087
   -33.3052 -33.3000 -33.2935 -33.2658 -33.2412 -33.2130 -33.1722 -33.1675
   -33.1673 -33.1540 -33.1536 -33.1376 -33.1349 -33.1348 -33.1345 -33.1010
   -33.0656 -33.0431 -33.0407 -33.0404 -33.0332 -33.0331 -33.0224 -32.9839
   -32.9815 -32.9570 -32.9567 -32.9493 -32.9489 -32.9316 -32.9250 -32.9249
   -32.9158 -32.9081 -32.9081 -32.9076 -32.8808 -32.8807 -32.8711 -32.8697
    12.8401  13.8030  13.8030  14.5101  15.2831  15.6433  15.6433  16.0884
    16.1128  16.1804  16.1805  16.2518  16.2519  16.2693  16.2782  16.3264
    16.4914  16.7296  16.7297  16.9899  17.0471  17.0927  17.1584  17.1584
    17.1873  17.1874  17.3232  17.3417  17.3460  17.4011  17.6033  17.6882
    17.6883  17.6973  17.7578  17.7578  17.8289  17.8289  17.8457  17.8814
    17.9049  17.9406  17.9408  18.0241  18.0361  18.4439  18.4442  19.0259
    19.4297  19.5878  19.6567  19.6568  19.6803  19.7139  19.7141  19.7227
    19.8403  19.9000  19.9188  19.9188  19.9519  19.9522  19.9681  19.9682
    20.1088  20.1346  20.1365  20.1870  20.2164  20.3031  20.3032  20.3296
    20.3562  20.3565  20.4041  20.4143  20.5669  20.6193  20.6196  20.6401
    21.0594  21.0595  21.1197  21.1958  21.4528  22.2275  22.2277  23.3208
    23.6781  24.3933

          k = 0.1658 0.3870-0.4975 ( 11506 PWs)   bands (ev):

   -67.0813 -67.0811 -67.0625 -67.0623 -67.0353 -67.0351 -67.0283 -67.0280
   -67.0082 -67.0080 -67.0065 -67.0062 -66.9873 -66.9871 -66.9739 -66.9736
   -33.3382 -33.3381 -33.3214 -33.3213 -33.3127 -33.3125 -33.3112 -33.3111
   -33.3067 -33.3065 -33.2869 -33.2868 -33.1980 -33.1979 -33.1928 -33.1927
   -33.1575 -33.1574 -33.1532 -33.1531 -33.1410 -33.1409 -33.1094 -33.1093
   -33.0708 -33.0707 -33.0386 -33.0384 -33.0273 -33.0273 -33.0102 -33.0101
   -32.9688 -32.9686 -32.9353 -32.9353 -32.9342 -32.9340 -32.9277 -32.9275
   -32.9266 -32.9265 -32.9072 -32.9072 -32.8732 -32.8731 -32.8725 -32.8725
    13.2884  13.2888  14.1486  14.1490  15.4971  15.4974  15.9778  15.9780
    16.1933  16.1935  16.2049  16.2051  16.3098  16.3100  16.3954  16.3956
    16.4932  16.4934  17.0213  17.0215  17.0817  17.0819  17.0843  17.0845
    17.0923  17.0925  17.2511  17.2512  17.4923  17.4924  17.5248  17.5249
    17.6402  17.6405  17.6981  17.6982  17.7497  17.7499  17.7798  17.7799
    17.9418  17.9420  17.9815  17.9817  18.1535  18.1536  18.7051  18.7051
    19.6254  19.6256  19.6819  19.6821  19.7780  19.7782  19.8112  19.8113
    19.8295  19.8297  19.8304  19.8305  19.9366  19.9367  20.0394  20.0396
    20.0496  20.0498  20.1778  20.1781  20.2104  20.2106  20.2868  20.2870
    20.3412  20.3414  20.3868  20.3869  20.4872  20.4873  20.6220  20.6221
    21.1177  21.1178  21.1561  21.1562  21.8354  21.8357  22.7698  22.7702
    24.0760  24.0763

          k = 0.1658-0.4975-0.4975 ( 11508 PWs)   bands (ev):

   -67.0727 -67.0726 -67.0724 -67.0722 -67.0321 -67.0320 -67.0319 -67.0316
   -67.0072 -67.0071 -67.0070 -67.0067 -66.9800 -66.9799 -66.9798 -66.9795
   -33.3272 -33.3272 -33.3272 -33.3270 -33.3142 -33.3142 -33.3141 -33.3141
   -33.2964 -33.2964 -33.2963 -33.2963 -33.1756 -33.1755 -33.1753 -33.1752
   -33.1549 -33.1549 -33.1548 -33.1546 -33.1540 -33.1539 -33.1535 -33.1535
   -33.0403 -33.0401 -33.0399 -33.0399 -33.0328 -33.0328 -33.0327 -33.0326
   -32.9496 -32.9496 -32.9493 -32.9491 -32.9290 -32.9290 -32.9288 -32.9288
   -32.9173 -32.9173 -32.9172 -32.9171 -32.8703 -32.8703 -32.8702 -32.8701
    13.6959  13.6960  13.6962  13.6963  15.7727  15.7729  15.7730  15.7731
    16.2231  16.2231  16.2232  16.2234  16.4406  16.4408  16.4408  16.4409
    16.7507  16.7507  16.7509  16.7510  17.0190  17.0190  17.0191  17.0192
    17.1643  17.1644  17.1644  17.1645  17.4938  17.4940  17.4940  17.4942
    17.6176  17.6179  17.6179  17.6180  17.6968  17.6969  17.6969  17.6971
    17.9423  17.9423  17.9424  17.9428  18.4000  18.4001  18.4004  18.4004
    19.7588  19.7588  19.7589  19.7592  19.8354  19.8355  19.8355  19.8357
    19.9400  19.9400  19.9402  19.9402  19.9494  19.9495  19.9495  19.9496
    19.9754  19.9759  19.9760  19.9760  20.1616  20.1617  20.1618  20.1620
    20.3639  20.3639  20.3642  20.3643  20.5312  20.5312  20.5315  20.5316
    21.1659  21.1660  21.1660  21.1660  22.2986  22.2991  22.2991  22.2992
    24.5912  24.5916

          k = 0.2764 0.2764 0.2764 ( 11506 PWs)   bands (ev):

   -67.1018 -67.0588 -67.0588 -67.0584 -67.0359 -67.0359 -67.0355 -67.0225
   -67.0080 -67.0049 -67.0049 -67.0045 -66.9921 -66.9921 -66.9918 -66.9587
   -33.3618 -33.3618 -33.3618 -33.3137 -33.3136 -33.3136 -33.2984 -33.2983
   -33.2983 -33.2976 -33.2626 -33.2626 -33.2313 -33.2313 -33.1806 -33.1802
   -33.1802 -33.1575 -33.1574 -33.1574 -33.1302 -33.1192 -33.1190 -33.1190
   -33.0181 -33.0172 -33.0169 -33.0169 -33.0160 -33.0157 -33.0157 -33.0097
   -33.0097 -32.9794 -32.9794 -32.9794 -32.9430 -32.9275 -32.9274 -32.9274
   -32.9035 -32.9035 -32.9035 -32.8865 -32.8864 -32.8864 -32.8812 -32.8812
    12.3623  14.2980  14.2980  14.2981  15.2688  15.2688  15.2688  15.9566
    15.9568  15.9568  16.0050  16.0050  16.3502  16.3502  16.3502  16.5617
    16.7567  16.7711  16.7712  16.7712  16.9806  16.9806  17.1740  17.1741
    17.1741  17.3351  17.3351  17.3722  17.3722  17.3722  17.7054  17.7057
    17.7057  17.8533  17.8533  17.8535  17.9558  17.9558  17.9558  18.0158
    18.0158  18.1442  18.1442  18.1443  18.2861  18.2864  18.2864  19.1855
    19.3692  19.4626  19.4626  19.4626  19.6799  19.6801  19.6801  19.8209
    19.8210  19.8210  19.9851  19.9851  20.0147  20.0149  20.0149  20.1505
    20.1509  20.1509  20.2716  20.2716  20.2726  20.2729  20.2729  20.3002
    20.3002  20.5433  20.5434  20.5434  20.7737  20.7737  20.7738  20.8365
    20.8365  20.8981  20.8983  20.8983  21.6369  21.6372  21.6372  23.8937
    24.0195  24.0195

          k = 0.2764 0.2764 0.3870 ( 11537 PWs)   bands (ev):

   -67.0937 -67.0717 -67.0544 -67.0542 -67.0427 -67.0425 -67.0331 -67.0263
   -67.0066 -67.0051 -67.0005 -67.0003 -66.9942 -66.9939 -66.9813 -66.9645
   -33.3486 -33.3485 -33.3382 -33.3131 -33.3131 -33.3099 -33.3019 -33.2990
   -33.2830 -33.2829 -33.2801 -33.2717 -33.2435 -33.2132 -33.2130 -33.2050
   -33.1900 -33.1598 -33.1597 -33.1470 -33.1394 -33.1381 -33.1380 -33.1017
   -33.0559 -33.0441 -33.0197 -33.0169 -33.0031 -33.0029 -32.9901 -32.9900
   -32.9841 -32.9840 -32.9707 -32.9485 -32.9452 -32.9451 -32.9337 -32.9257
   -32.9085 -32.8987 -32.8967 -32.8966 -32.8908 -32.8874 -32.8874 -32.8793
    12.7275  13.7245  14.5492  14.5492  15.0724  15.0724  15.5839  16.1212
    16.1213  16.1480  16.1621  16.1850  16.3809  16.3810  16.3864  16.3944
    16.5411  16.5513  16.8941  16.8943  17.0101  17.1174  17.1709  17.1747
    17.2343  17.2704  17.2704  17.4434  17.4434  17.4981  17.5551  17.5552
    17.6918  17.6918  17.7528  17.7529  17.7884  17.8045  17.8165  17.8259
    17.8946  17.8947  17.9060  17.9576  18.0315  18.0317  18.4349  19.0061
    19.4194  19.5974  19.6311  19.6312  19.7323  19.7324  19.7722  19.7722
    19.8757  19.9290  19.9341  19.9385  19.9385  19.9631  20.0670  20.0814
    20.2050  20.2159  20.2760  20.2764  20.2783  20.2784  20.3113  20.3115
    20.3324  20.3667  20.5413  20.6581  20.6714  20.6715  20.8098  20.8099
    20.8753  20.9138  20.9139  20.9207  21.2888  21.2890  22.1699  23.3025
    24.3514  24.3515

          k = 0.2764 0.2764-0.4975 ( 11518 PWs)   bands (ev):

   -67.0837 -67.0835 -67.0493 -67.0489 -67.0486 -67.0485 -67.0300 -67.0298
   -67.0058 -67.0055 -66.9973 -66.9969 -66.9966 -66.9965 -66.9721 -66.9719
   -33.3312 -33.3312 -33.3311 -33.3311 -33.3077 -33.3075 -33.3061 -33.3059
   -33.2926 -33.2925 -33.2485 -33.2485 -33.2481 -33.2480 -33.2191 -33.2189
   -33.1764 -33.1762 -33.1525 -33.1524 -33.1524 -33.1523 -33.0970 -33.0970
   -33.0726 -33.0725 -33.0202 -33.0200 -32.9920 -32.9918 -32.9918 -32.9916
   -32.9664 -32.9663 -32.9659 -32.9657 -32.9371 -32.9369 -32.9277 -32.9276
   -32.9217 -32.9214 -32.8909 -32.8908 -32.8908 -32.8908 -32.8826 -32.8825
    13.1896  13.1899  14.8227  14.8227  14.8229  14.8230  15.9683  15.9686
    16.2762  16.2763  16.2763  16.2765  16.3114  16.3116  16.3295  16.3298
    16.4161  16.4163  17.0588  17.0592  17.1404  17.1407  17.1749  17.1750
    17.1754  17.1754  17.4025  17.4026  17.4029  17.4030  17.4560  17.4561
    17.6677  17.6679  17.7570  17.7573  17.7574  17.7575  17.8071  17.8073
    17.8074  17.8075  17.8359  17.8361  17.8867  17.8869  18.6826  18.6826
    19.6709  19.6712  19.7415  19.7418  19.7484  19.7485  19.7486  19.7486
    19.7998  19.7999  19.8000  19.8000  20.1003  20.1005  20.1333  20.1335
    20.1951  20.1953  20.2295  20.2297  20.2776  20.2778  20.3128  20.3129
    20.3131  20.3131  20.4819  20.4820  20.8728  20.8729  20.8729  20.8730
    20.9300  20.9301  20.9593  20.9597  20.9598  20.9599  22.7294  22.7298
    24.6233  24.6235

          k = 0.2764 0.3870 0.3870 ( 11523 PWs)   bands (ev):

   -67.0863 -67.0663 -67.0661 -67.0514 -67.0502 -67.0395 -67.0392 -67.0311
   -67.0043 -67.0014 -67.0011 -66.9958 -66.9940 -66.9845 -66.9843 -66.9695
   -33.3387 -33.3272 -33.3271 -33.3120 -33.3094 -33.3093 -33.2977 -33.2867
   -33.2866 -33.2860 -33.2760 -33.2490 -33.2401 -33.2356 -33.2139 -33.1918
   -33.1916 -33.1746 -33.1745 -33.1741 -33.1668 -33.1667 -33.1623 -33.0930
   -33.0724 -33.0161 -33.0158 -33.0031 -33.0030 -33.0027 -32.9865 -32.9819
   -32.9692 -32.9662 -32.9575 -32.9539 -32.9537 -32.9366 -32.9365 -32.9308
   -32.9078 -32.9068 -32.9068 -32.9005 -32.8881 -32.8881 -32.8853 -32.8824
    13.0792  14.0222  14.0223  14.7385  14.8208  15.3880  15.3880  16.1384
    16.2573  16.2662  16.3405  16.3515  16.3516  16.4333  16.4333  16.5607
    16.6312  16.7213  16.7214  16.8496  17.0809  17.1448  17.1449  17.2042
    17.2043  17.2558  17.2559  17.3279  17.3485  17.4335  17.4412  17.5970
    17.5971  17.6000  17.6068  17.6068  17.6229  17.6230  17.6545  17.7471
    17.7473  17.7701  17.7910  17.8194  17.8693  18.1238  18.1241  18.6450
    19.6822  19.7352  19.7353  19.7524  19.7949  19.8631  19.9096  19.9335
    19.9336  19.9424  19.9432  19.9433  20.0012  20.0013  20.0669  20.1570
    20.1965  20.1992  20.1994  20.2139  20.2610  20.2732  20.2734  20.3227
    20.3305  20.3306  20.3834  20.4297  20.6762  20.6764  20.7093  20.8841
    20.8841  20.8872  20.9300  20.9485  20.9976  21.7603  21.7604  22.7686
    24.7682  25.3377

          k = 0.2764 0.3870-0.4975 ( 11514 PWs)   bands (ev):

   -67.0772 -67.0769 -67.0594 -67.0591 -67.0453 -67.0450 -67.0356 -67.0353
   -67.0026 -67.0024 -66.9982 -66.9980 -66.9888 -66.9886 -66.9763 -66.9760
   -33.3245 -33.3244 -33.3168 -33.3167 -33.3011 -33.3009 -33.2995 -33.2994
   -33.2919 -33.2918 -33.2610 -33.2609 -33.2195 -33.2193 -33.2118 -33.2117
   -33.1947 -33.1945 -33.1813 -33.1812 -33.1772 -33.1771 -33.1334 -33.1333
   -33.0435 -33.0434 -33.0024 -33.0022 -32.9924 -32.9923 -32.9900 -32.9899
   -32.9653 -32.9651 -32.9511 -32.9510 -32.9317 -32.9316 -32.9315 -32.9314
   -32.9281 -32.9278 -32.9041 -32.9041 -32.8858 -32.8857 -32.8837 -32.8836
    13.5199  13.5202  14.3739  14.3742  15.1193  15.1196  15.7636  15.7639
    16.3674  16.3676  16.3739  16.3741  16.5108  16.5110  16.5370  16.5372
    16.5718  16.5719  17.0146  17.0148  17.0410  17.0412  17.1182  17.1183
    17.1372  17.1375  17.3188  17.3189  17.3298  17.3299  17.4663  17.4664
    17.5100  17.5102  17.5325  17.5328  17.6502  17.6503  17.6911  17.6913
    17.7231  17.7234  17.7981  17.7983  17.8570  17.8571  18.3363  18.3364
    19.8396  19.8398  19.8611  19.8612  19.8657  19.8659  19.8850  19.8851
    19.9228  19.9229  19.9627  19.9630  20.0789  20.0790  20.0940  20.0942
    20.1517  20.1520  20.1805  20.1807  20.2158  20.2161  20.2666  20.2668
    20.2991  20.2994  20.4930  20.4931  20.5971  20.5974  20.6766  20.6767
    20.9081  20.9081  20.9281  20.9281  21.3710  21.3712  22.2572  22.2576
    25.1485  25.1488

          k = 0.2764-0.4975-0.4975 ( 11512 PWs)   bands (ev):

   -67.0690 -67.0690 -67.0688 -67.0685 -67.0408 -67.0407 -67.0406 -67.0403
   -67.0002 -67.0001 -67.0000 -66.9997 -66.9820 -66.9819 -66.9818 -66.9815
   -33.3125 -33.3125 -33.3125 -33.3123 -33.3043 -33.3043 -33.3042 -33.3041
   -33.2762 -33.2762 -33.2761 -33.2761 -33.2049 -33.2049 -33.2047 -33.2047
   -33.1942 -33.1942 -33.1942 -33.1940 -33.1729 -33.1729 -33.1725 -33.1725
   -33.0160 -33.0159 -33.0157 -33.0157 -32.9946 -32.9946 -32.9946 -32.9944
   -32.9437 -32.9436 -32.9434 -32.9432 -32.9395 -32.9395 -32.9393 -32.9393
   -32.9190 -32.9190 -32.9189 -32.9188 -32.8838 -32.8838 -32.8838 -32.8836
    13.9257  13.9258  13.9259  13.9261  15.4558  15.4559  15.4561  15.4562
    16.3950  16.3951  16.3952  16.3954  16.6754  16.6755  16.6756  16.6756
    16.7838  16.7838  16.7840  16.7841  16.9758  16.9758  16.9760  16.9760
    17.2326  17.2328  17.2328  17.2329  17.3636  17.3638  17.3638  17.3641
    17.5341  17.5343  17.5343  17.5345  17.5601  17.5604  17.5604  17.5604
    17.7421  17.7421  17.7422  17.7425  18.0458  18.0460  18.0461  18.0461
    19.8967  19.8968  19.8969  19.8971  19.9852  19.9853  19.9854  19.9855
    20.0220  20.0221  20.0221  20.0224  20.0445  20.0446  20.0446  20.0447
    20.1444  20.1445  20.1446  20.1448  20.2710  20.2715  20.2716  20.2716
    20.2811  20.2812  20.2814  20.2816  20.5445  20.5445  20.5447  20.5449
    20.9319  20.9320  20.9321  20.9321  21.8070  21.8075  21.8075  21.8076
    25.6723  25.6725

          k = 0.3870 0.3870 0.3870 ( 11506 PWs)   bands (ev):

   -67.0795 -67.0612 -67.0612 -67.0609 -67.0474 -67.0474 -67.0471 -67.0369
   -67.0007 -66.9957 -66.9957 -66.9953 -66.9873 -66.9873 -66.9869 -66.9740
   -33.3161 -33.3161 -33.3161 -33.3032 -33.3031 -33.3031 -33.2861 -33.2658
   -33.2658 -33.2598 -33.2596 -33.2596 -33.2527 -33.2527 -33.2090 -33.2090
   -33.2090 -33.2011 -33.2007 -33.2007 -33.1935 -33.1933 -33.1933 -33.1267
   -33.0440 -32.9923 -32.9919 -32.9919 -32.9783 -32.9781 -32.9781 -32.9655
   -32.9655 -32.9537 -32.9537 -32.9537 -32.9518 -32.9515 -32.9515 -32.9334
   -32.9062 -32.9061 -32.9061 -32.9008 -32.9008 -32.8967 -32.8967 -32.8967
    13.4225  14.3284  14.3284  14.3285  15.0607  15.0607  15.0607  15.8378
    16.4415  16.4415  16.5080  16.5081  16.5081  16.6743  16.6744  16.6744
    16.7051  16.7052  16.7052  16.7912  17.1363  17.1363  17.2019  17.2019
    17.2798  17.2799  17.2799  17.2979  17.2980  17.2980  17.3874  17.3876
    17.3876  17.5050  17.5050  17.5051  17.5372  17.5374  17.5374  17.5678
    17.5678  17.5680  17.7171  17.7171  17.8171  17.8174  17.8174  18.2806
    19.8397  19.8398  19.8398  19.9722  20.0021  20.0021  20.0022  20.0054
    20.0054  20.0094  20.0095  20.0095  20.0668  20.0670  20.0670  20.1788
    20.1788  20.2078  20.2080  20.2080  20.2254  20.2255  20.2255  20.3060
    20.3060  20.6066  20.6066  20.6180  20.6184  20.6184  20.6923  20.6925
    20.6925  20.7388  20.7388  20.7389  21.3545  21.3548  21.3548  22.2736
    25.9979  25.9980

          k = 0.3870 0.3870-0.4975 ( 11514 PWs)   bands (ev):

   -67.0712 -67.0709 -67.0551 -67.0548 -67.0545 -67.0543 -67.0426 -67.0423
   -66.9979 -66.9977 -66.9914 -66.9910 -66.9907 -66.9906 -66.9800 -66.9798
   -33.3056 -33.3056 -33.3055 -33.3055 -33.2874 -33.2873 -33.2872 -33.2870
   -33.2725 -33.2724 -33.2398 -33.2396 -33.2305 -33.2304 -33.2300 -33.2298
   -33.2244 -33.2243 -33.2101 -33.2100 -33.2100 -33.2100 -33.1638 -33.1637
   -33.0171 -33.0170 -32.9729 -32.9727 -32.9707 -32.9706 -32.9702 -32.9700
   -32.9610 -32.9609 -32.9609 -32.9608 -32.9406 -32.9405 -32.9333 -32.9330
   -32.9252 -32.9249 -32.9034 -32.9033 -32.9033 -32.9033 -32.8972 -32.8971
    13.8488  13.8492  14.6899  14.6900  14.6902  14.6903  15.4459  15.4462
    16.5658  16.5661  16.6118  16.6120  16.6244  16.6244  16.6245  16.6247
    16.7627  16.7628  16.9897  16.9898  16.9900  16.9901  17.1627  17.1629
    17.2055  17.2058  17.2550  17.2552  17.2782  17.2783  17.3922  17.3922
    17.3925  17.3927  17.5019  17.5022  17.5024  17.5025  17.5613  17.5616
    17.5618  17.5618  17.6099  17.6101  17.6302  17.6304  17.9809  17.9810
    19.9273  19.9275  19.9456  19.9457  19.9458  19.9458  20.0700  20.0702
    20.0702  20.0702  20.0913  20.0915  20.1152  20.1154  20.1772  20.1774
    20.1961  20.1963  20.2012  20.2013  20.2015  20.2015  20.2825  20.2828
    20.3222  20.3224  20.4719  20.4721  20.6893  20.6893  20.6893  20.6895
    20.7086  20.7087  20.9772  20.9777  20.9778  20.9779  21.8058  21.8061
    26.3079  26.3081

          k = 0.3870-0.4975-0.4975 ( 11532 PWs)   bands (ev):

   -67.0637 -67.0636 -67.0635 -67.0632 -67.0492 -67.0491 -67.0490 -67.0487
   -66.9941 -66.9941 -66.9939 -66.9936 -66.9850 -66.9850 -66.9848 -66.9845
   -33.2911 -33.2911 -33.2911 -33.2909 -33.2871 -33.2871 -33.2870 -33.2869
   -33.2513 -33.2512 -33.2511 -33.2511 -33.2356 -33.2356 -33.2354 -33.2354
   -33.2309 -33.2309 -33.2309 -33.2307 -33.1973 -33.1973 -33.1970 -33.1970
   -32.9925 -32.9925 -32.9923 -32.9923 -32.9598 -32.9598 -32.9598 -32.9596
   -32.9536 -32.9535 -32.9534 -32.9533 -32.9362 -32.9362 -32.9361 -32.9359
   -32.9233 -32.9232 -32.9232 -32.9231 -32.9035 -32.9035 -32.9035 -32.9033
    14.2509  14.2510  14.2512  14.2514  15.0647  15.0648  15.0650  15.0651
    16.6289  16.6290  16.6291  16.6293  16.8281  16.8281  16.8283  16.8283
    16.9072  16.9073  16.9074  16.9074  16.9286  16.9287  16.9288  16.9289
    17.3119  17.3121  17.3122  17.3122  17.3252  17.3254  17.3255  17.3256
    17.3292  17.3294  17.3294  17.3297  17.4839  17.4841  17.4842  17.4842
    17.5465  17.5466  17.5466  17.5469  17.6894  17.6896  17.6897  17.6897
    19.9809  19.9809  19.9810  19.9813  20.0345  20.0345  20.0347  20.0348
    20.1174  20.1175  20.1176  20.1178  20.1839  20.1840  20.1841  20.1844
    20.1996  20.1997  20.1997  20.1998  20.2465  20.2465  20.2466  20.2468
    20.5091  20.5091  20.5092  20.5094  20.6197  20.6202  20.6202  20.6202
    20.6650  20.6652  20.6652  20.6652  21.3829  21.3834  21.3834  21.3835
    26.8543  26.8546

          k =-0.4975-0.4975-0.4975 ( 11536 PWs)   bands (ev):

   -67.0572 -67.0571 -67.0571 -67.0565 -67.0565 -67.0565 -67.0563 -67.0563
   -66.9895 -66.9894 -66.9894 -66.9888 -66.9887 -66.9887 -66.9886 -66.9885
   -33.2642 -33.2642 -33.2642 -33.2640 -33.2640 -33.2640 -33.2638 -33.2638
   -33.2636 -33.2636 -33.2636 -33.2634 -33.2634 -33.2634 -33.2634 -33.2634
   -33.2244 -33.2241 -33.2241 -33.2241 -33.2239 -33.2235 -33.2235 -33.2235
   -32.9721 -32.9718 -32.9718 -32.9718 -32.9717 -32.9712 -32.9712 -32.9712
   -32.9293 -32.9293 -32.9293 -32.9291 -32.9290 -32.9290 -32.9290 -32.9289
   -32.9288 -32.9288 -32.9288 -32.9285 -32.9284 -32.9284 -32.9284 -32.9284
    14.6446  14.6447  14.6448  14.6448  14.6450  14.6450  14.6450  14.6453
    16.8779  16.8779  16.8779  16.8781  16.8781  16.8781  16.8781  16.8781
    16.8783  16.8783  16.8783  16.8784  16.8784  16.8785  16.8786  16.8786
    17.3773  17.3779  17.3779  17.3779  17.3781  17.3783  17.3783  17.3783
    17.3979  17.3979  17.3981  17.3981  17.3981  17.3984  17.3984  17.3984
    17.3986  17.3986  17.3986  17.3986  17.3986  17.3986  17.3989  17.3990
    20.0800  20.0801  20.0801  20.0801  20.0801  20.0801  20.0806  20.0806
    20.0806  20.0806  20.0807  20.0808  20.0808  20.0808  20.0808  20.0808
    20.4106  20.4106  20.4106  20.4107  20.4107  20.4109  20.4109  20.4109
    20.4111  20.4111  20.4111  20.4112  20.4112  20.4112  20.4115  20.4115
    20.9918  20.9929  20.9929  20.9929  20.9930  20.9930  20.9930  20.9931
    28.0114  28.0117

     the Fermi energy is    20.1458 ev

!    total energy              =   -5267.71081919 Ry
     Harris-Foulkes estimate   =   -5267.71085001 Ry
     estimated scf accuracy    <       0.00004137 Ry

     total all-electron energy =    -40728.455348 Ry

     The total energy is the sum of the following terms:

     one-electron contribution =   -1642.60551727 Ry
     hartree contribution      =     997.26845180 Ry
     xc contribution           =    -442.79995406 Ry
     ewald contribution        =   -2854.67687157 Ry
     one-center paw contrib.   =   -1324.76162523 Ry
     smearing contrib. (-TS)   =      -0.13530287 Ry

     convergence has been achieved in  10 iterations

     Forces acting on atoms (cartesian axes, Ry/au):

     atom    1 type  1   force =     0.00000000    0.00000000    0.00000000
     atom    2 type  1   force =     0.00013134    0.00013134    0.00013134
     atom    3 type  1   force =     0.00000000    0.00000000    0.00000000
     atom    4 type  1   force =     0.00013134    0.00013134   -0.00013134
     atom    5 type  1   force =     0.00000000    0.00000000    0.00000000
     atom    6 type  1   force =     0.00013134   -0.00013134    0.00013134
     atom    7 type  1   force =     0.00000000    0.00000000   -0.00000000
     atom    8 type  1   force =     0.00013134   -0.00013134   -0.00013134
     atom    9 type  1   force =     0.00000000    0.00000000    0.00000000
     atom   10 type  1   force =    -0.00013134    0.00013134    0.00013134
     atom   11 type  1   force =     0.00000000    0.00000000    0.00000000
     atom   12 type  1   force =    -0.00013134    0.00013134   -0.00013134
     atom   13 type  1   force =     0.00000000    0.00000000    0.00000000
     atom   14 type  1   force =    -0.00013134   -0.00013134    0.00013134
     atom   15 type  1   force =     0.00000000    0.00000000    0.00000000
     atom   16 type  1   force =    -0.00013134   -0.00013134   -0.00013134

     Total force =     0.000643     Total SCF correction =     0.001336
     SCF correction compared to forces is large: reduce conv_thr to get better values


     Computing stress (Cartesian axis) and pressure

          total   stress  (Ry/bohr**3)                   (kbar)     P=   -0.56
  -0.00000382   0.00000000   0.00000000         -0.56      0.00      0.00
   0.00000000  -0.00000382   0.00000000          0.00     -0.56      0.00
   0.00000000   0.00000000  -0.00000382          0.00      0.00     -0.56


     Writing output data file jddjJzSbIYxeaUOy.save/
 
     init_run     :      3.38s CPU      3.53s WALL (       1 calls)
     electrons    :    115.01s CPU    118.73s WALL (       1 calls)
     forces       :      1.07s CPU      1.18s WALL (       1 calls)
     stress       :      2.79s CPU      2.84s WALL (       1 calls)

     Called by init_run:
     wfcinit      :      3.07s CPU      3.18s WALL (       1 calls)
     potinit      :      0.12s CPU      0.13s WALL (       1 calls)
     hinit0       :      0.11s CPU      0.12s WALL (       1 calls)

     Called by electrons:
     c_bands      :    103.01s CPU    106.01s WALL (      11 calls)
     sum_band     :     11.00s CPU     11.58s WALL (      11 calls)
     v_of_rho     :      0.08s CPU      0.08s WALL (      11 calls)
     newd         :      0.16s CPU      0.21s WALL (      11 calls)
     PAW_pot      :      0.77s CPU      0.84s WALL (      11 calls)
     mix_rho      :      0.02s CPU      0.02s WALL (      11 calls)

     Called by c_bands:
     init_us_2    :      0.55s CPU      0.56s WALL (     875 calls)
     cegterg      :    100.33s CPU    103.29s WALL (     385 calls)

     Called by sum_band:
     sum_band:bec :      0.15s CPU      0.16s WALL (     385 calls)
     addusdens    :      0.16s CPU      0.20s WALL (      11 calls)

     Called by *egterg:
     h_psi        :     44.13s CPU     46.00s WALL (    1320 calls)
     s_psi        :      2.31s CPU      2.33s WALL (    1320 calls)
     g_psi        :      0.09s CPU      0.09s WALL (     900 calls)
     cdiaghg      :     45.25s CPU     45.40s WALL (    1250 calls)

     Called by h_psi:
     h_psi:pot    :     43.90s CPU     45.77s WALL (    1320 calls)
     h_psi:calbec :      3.51s CPU      4.06s WALL (    1320 calls)
     vloc_psi     :     38.05s CPU     39.35s WALL (    1320 calls)
     add_vuspsi   :      2.33s CPU      2.35s WALL (    1320 calls)

     General routines
     calbec       :      5.74s CPU      6.67s WALL (    1880 calls)
     fft          :      0.13s CPU      0.14s WALL (     168 calls)
     ffts         :      0.02s CPU      0.06s WALL (      22 calls)
     fftw         :     44.27s CPU     45.73s WALL (  325928 calls)
     interpolate  :      0.02s CPU      0.04s WALL (      11 calls)
 
     Parallel routines
     fft_scatt_xy :      2.83s CPU      2.92s WALL (  326118 calls)
     fft_scatt_yz :     30.38s CPU     31.46s WALL (  326118 calls)
 
     PWSCF        :  2m 5.14s CPU     2m12.44s WALL

 
   This run was terminated on:   6:26:52   5Sep2020            

=------------------------------------------------------------------------------=
   JOB DONE.
=------------------------------------------------------------------------------=
