--------------------------------------------------------------------------
WARNING: There was an error initializing an OpenFabrics device.

  Local host:   bear-pg0211u07b
  Local device: mlx5_0
--------------------------------------------------------------------------

     Program PWSCF v.6.3 starts on  5Sep2020 at  6:13:39 

     This program is part of the open-source Quantum ESPRESSO suite
     for quantum simulation of materials; please cite
         "P. Giannozzi et al., J. Phys.:Condens. Matter 21 395502 (2009);
         "P. Giannozzi et al., J. Phys.:Condens. Matter 29 465901 (2017);
          URL http://www.quantum-espresso.org", 
     in publications or presentations arising from this work. More details at
     http://www.quantum-espresso.org/quote

     Parallel version (MPI & OpenMP), running on      40 processor cores
     Number of MPI processes:                40
     Threads/MPI process:                     1

     MPI processes distributed on     1 nodes
     R & G space division:  proc/nbgrp/npool/nimage =      40
     Reading input from wd/eos/eos_004.in
Warning: card &IONS ignored
Warning: card ION_DYNAMICS = 'BFGS', ignored
Warning: card / ignored
Warning: card &CELL ignored
Warning: card CELL_DYNAMICS = 'BFGS', ignored
Warning: card CELL_FACTOR = 2.0, ignored
Warning: card PRESS = 0.0, ignored
Warning: card / ignored

     Current dimensions of program PWSCF are:
     Max number of different atomic species (ntypx) = 10
     Max number of k-points (npk) =  40000
     Max angular momentum in pseudopotentials (lmaxx) =  3
               file Fe.pbe-spn-kjpaw_psl.1.0.0.UPF: wavefunction(s)  3P 3D renormalized

     Subspace diagonalization in iterative solution of the eigenvalue problem:
     a serial algorithm will be used

 
     Parallelization info
     --------------------
     sticks:   dense  smooth     PW     G-vecs:    dense   smooth      PW
     Min          92      60     17                 4212     2258     334
     Max          93      61     18                 4217     2263     341
     Sum        3705    2433    681               168573    90447   13517
 


     bravais-lattice index     =            0
     lattice parameter (alat)  =      10.3915  a.u.
     unit-cell volume          =    1117.8947 (a.u.)^3
     number of atoms/cell      =           16
     number of atomic types    =            1
     number of electrons       =       256.00
     number of Kohn-Sham states=          154
     kinetic-energy cutoff     =      71.0000  Ry
     charge density cutoff     =     430.0000  Ry
     convergence threshold     =      5.0E-05
     mixing beta               =       0.1000
     number of iterations used =           10  plain     mixing
     Exchange-correlation      = SLA PW PBX PBC ( 1  4  3  4 0 0)

     celldm(1)=  10.391466  celldm(2)=   0.000000  celldm(3)=   0.000000
     celldm(4)=   0.000000  celldm(5)=   0.000000  celldm(6)=   0.000000

     crystal axes: (cart. coord. in units of alat)
               a(1) = (   0.998750   0.000000   0.000000 )  
               a(2) = (   0.000000   0.998750   0.000000 )  
               a(3) = (   0.000000   0.000000   0.998750 )  

     reciprocal axes: (cart. coord. in units 2 pi/alat)
               b(1) = (  1.001252  0.000000  0.000000 )  
               b(2) = (  0.000000  1.001252  0.000000 )  
               b(3) = (  0.000000  0.000000  1.001252 )  


     PseudoPot. # 1 for Fe read from file:
     /rds/homes/b/bxp912/pp/Fe.pbe-spn-kjpaw_psl.1.0.0.UPF
     MD5 check sum: 42f43b795421b414b0dc916aa790dbcb
     Pseudo is Projector augmented-wave + core cor, Zval = 16.0
     Generated using "atomic" code by A. Dal Corso v.6.3
     Shape of augmentation charge: PSQ
     Using radial grid of 1191 points,  6 beta functions with: 
                l(1) =   0
                l(2) =   0
                l(3) =   1
                l(4) =   1
                l(5) =   2
                l(6) =   2
     Q(r) pseudized with 0 coefficients 


     atomic species   valence    mass     pseudopotential
        Fe            16.00    55.84500     Fe( 1.00)

     48 Sym. Ops., with inversion, found



   Cartesian axes

     site n.     atom                  positions (alat units)
         1           Fe  tau(   1) = (   0.0000000   0.0000000   0.0000000  )
         2           Fe  tau(   2) = (   0.2496964   0.2496964   0.2496964  )
         3           Fe  tau(   3) = (   0.0000000   0.0000000   0.4993745  )
         4           Fe  tau(   4) = (   0.2496964   0.2496964   0.7490536  )
         5           Fe  tau(   5) = (   0.0000000   0.4993751   0.0000000  )
         6           Fe  tau(   6) = (   0.2496964   0.7490537   0.2496964  )
         7           Fe  tau(   7) = (   0.0000000   0.4993751   0.4993745  )
         8           Fe  tau(   8) = (   0.2496964   0.7490537   0.7490536  )
         9           Fe  tau(   9) = (   0.4993751   0.0000000   0.0000000  )
        10           Fe  tau(  10) = (   0.7490537   0.2496964   0.2496964  )
        11           Fe  tau(  11) = (   0.4993751   0.0000000   0.4993745  )
        12           Fe  tau(  12) = (   0.7490537   0.2496964   0.7490536  )
        13           Fe  tau(  13) = (   0.4993751   0.4993751   0.0000000  )
        14           Fe  tau(  14) = (   0.7490537   0.7490537   0.2496964  )
        15           Fe  tau(  15) = (   0.4993751   0.4993751   0.4993745  )
        16           Fe  tau(  16) = (   0.7490537   0.7490537   0.7490536  )

     number of k points=    35  Marzari-Vanderbilt smearing, width (Ry)=  0.0400
                       cart. coord. in units 2pi/alat
        k(    1) = (   0.0556251   0.0556251   0.0556251), wk =   0.0219479
        k(    2) = (   0.0556251   0.0556251   0.1668753), wk =   0.0658436
        k(    3) = (   0.0556251   0.0556251   0.2781254), wk =   0.0658436
        k(    4) = (   0.0556251   0.0556251   0.3893756), wk =   0.0658436
        k(    5) = (   0.0556251   0.0556251  -0.5006258), wk =   0.0329218
        k(    6) = (   0.0556251   0.1668753   0.1668753), wk =   0.0658436
        k(    7) = (   0.0556251   0.1668753   0.2781254), wk =   0.1316872
        k(    8) = (   0.0556251   0.1668753   0.3893756), wk =   0.1316872
        k(    9) = (   0.0556251   0.1668753  -0.5006258), wk =   0.0658436
        k(   10) = (   0.0556251   0.2781254   0.2781254), wk =   0.0658436
        k(   11) = (   0.0556251   0.2781254   0.3893756), wk =   0.1316872
        k(   12) = (   0.0556251   0.2781254  -0.5006258), wk =   0.0658436
        k(   13) = (   0.0556251   0.3893756   0.3893756), wk =   0.0658436
        k(   14) = (   0.0556251   0.3893756  -0.5006258), wk =   0.0658436
        k(   15) = (   0.0556251  -0.5006258  -0.5006258), wk =   0.0164609
        k(   16) = (   0.1668753   0.1668753   0.1668753), wk =   0.0219479
        k(   17) = (   0.1668753   0.1668753   0.2781254), wk =   0.0658436
        k(   18) = (   0.1668753   0.1668753   0.3893756), wk =   0.0658436
        k(   19) = (   0.1668753   0.1668753  -0.5006258), wk =   0.0329218
        k(   20) = (   0.1668753   0.2781254   0.2781254), wk =   0.0658436
        k(   21) = (   0.1668753   0.2781254   0.3893756), wk =   0.1316872
        k(   22) = (   0.1668753   0.2781254  -0.5006258), wk =   0.0658436
        k(   23) = (   0.1668753   0.3893756   0.3893756), wk =   0.0658436
        k(   24) = (   0.1668753   0.3893756  -0.5006258), wk =   0.0658436
        k(   25) = (   0.1668753  -0.5006258  -0.5006258), wk =   0.0164609
        k(   26) = (   0.2781254   0.2781254   0.2781254), wk =   0.0219479
        k(   27) = (   0.2781254   0.2781254   0.3893756), wk =   0.0658436
        k(   28) = (   0.2781254   0.2781254  -0.5006258), wk =   0.0329218
        k(   29) = (   0.2781254   0.3893756   0.3893756), wk =   0.0658436
        k(   30) = (   0.2781254   0.3893756  -0.5006258), wk =   0.0658436
        k(   31) = (   0.2781254  -0.5006258  -0.5006258), wk =   0.0164609
        k(   32) = (   0.3893756   0.3893756   0.3893756), wk =   0.0219479
        k(   33) = (   0.3893756   0.3893756  -0.5006258), wk =   0.0329218
        k(   34) = (   0.3893756  -0.5006258  -0.5006258), wk =   0.0164609
        k(   35) = (  -0.5006258  -0.5006258  -0.5006258), wk =   0.0027435

     Dense  grid:   168573 G-vectors     FFT dimensions: (  72,  72,  72)

     Smooth grid:    90447 G-vectors     FFT dimensions: (  60,  60,  60)

     Estimated max dynamical RAM per process >      56.55 MB

     Estimated total dynamical RAM >       2.21 GB

     Check: negative/imaginary core charge=   -0.000006    0.000000

     Initial potential from superposition of free atoms

     starting charge  255.99300, renormalised to  256.00000
     Starting wfcs are  160 randomized atomic wfcs
     Checking if some PAW data can be deallocated... 

     total cpu time spent up to now is        4.2 secs

     Self-consistent Calculation

     iteration #  1     ecut=    71.00 Ry     beta= 0.10
     Davidson diagonalization with overlap
     ethr =  1.00E-02,  avg # of iterations =  3.3

     Threshold (ethr) on eigenvalues was too large:
     Diagonalizing with lowered threshold

     Davidson diagonalization with overlap
     ethr =  2.57E-04,  avg # of iterations =  3.0

     total cpu time spent up to now is       29.3 secs

     total energy              =   -5267.75083298 Ry
     Harris-Foulkes estimate   =   -5267.86736986 Ry
     estimated scf accuracy    <       0.73896365 Ry

     iteration #  2     ecut=    71.00 Ry     beta= 0.10
     Davidson diagonalization with overlap
     ethr =  2.89E-04,  avg # of iterations =  1.0

     total cpu time spent up to now is       37.1 secs

     total energy              =   -5267.61395182 Ry
     Harris-Foulkes estimate   =   -5267.76621641 Ry
     estimated scf accuracy    <       0.36621818 Ry

     iteration #  3     ecut=    71.00 Ry     beta= 0.10
     Davidson diagonalization with overlap
     ethr =  1.43E-04,  avg # of iterations =  3.2

     total cpu time spent up to now is       51.5 secs

     total energy              =   -5267.69908036 Ry
     Harris-Foulkes estimate   =   -5267.71844622 Ry
     estimated scf accuracy    <       0.43929933 Ry

     iteration #  4     ecut=    71.00 Ry     beta= 0.10
     Davidson diagonalization with overlap
     ethr =  1.43E-04,  avg # of iterations =  1.0

     total cpu time spent up to now is       59.4 secs

     total energy              =   -5267.70294667 Ry
     Harris-Foulkes estimate   =   -5267.70922470 Ry
     estimated scf accuracy    <       0.02908616 Ry

     iteration #  5     ecut=    71.00 Ry     beta= 0.10
     Davidson diagonalization with overlap
     ethr =  1.14E-05,  avg # of iterations =  2.2

     total cpu time spent up to now is       69.6 secs

     total energy              =   -5267.70352339 Ry
     Harris-Foulkes estimate   =   -5267.70531929 Ry
     estimated scf accuracy    <       0.02072521 Ry

     iteration #  6     ecut=    71.00 Ry     beta= 0.10
     Davidson diagonalization with overlap
     ethr =  8.10E-06,  avg # of iterations =  2.6

     total cpu time spent up to now is       80.5 secs

     total energy              =   -5267.70601442 Ry
     Harris-Foulkes estimate   =   -5267.70532287 Ry
     estimated scf accuracy    <       0.01098607 Ry

     iteration #  7     ecut=    71.00 Ry     beta= 0.10
     Davidson diagonalization with overlap
     ethr =  4.29E-06,  avg # of iterations =  2.4

     total cpu time spent up to now is       90.5 secs

     total energy              =   -5267.70482390 Ry
     Harris-Foulkes estimate   =   -5267.70652710 Ry
     estimated scf accuracy    <       0.01306965 Ry

     iteration #  8     ecut=    71.00 Ry     beta= 0.10
     Davidson diagonalization with overlap
     ethr =  4.29E-06,  avg # of iterations =  2.1

     total cpu time spent up to now is      100.4 secs

     total energy              =   -5267.70534014 Ry
     Harris-Foulkes estimate   =   -5267.70567485 Ry
     estimated scf accuracy    <       0.00607426 Ry

     iteration #  9     ecut=    71.00 Ry     beta= 0.10
     Davidson diagonalization with overlap
     ethr =  2.37E-06,  avg # of iterations =  2.2

     total cpu time spent up to now is      110.0 secs

     total energy              =   -5267.70559018 Ry
     Harris-Foulkes estimate   =   -5267.70560921 Ry
     estimated scf accuracy    <       0.00033104 Ry

     iteration # 10     ecut=    71.00 Ry     beta= 0.10
     Davidson diagonalization with overlap
     ethr =  1.29E-07,  avg # of iterations =  3.1

     total cpu time spent up to now is      121.6 secs

     End of self-consistent calculation

          k = 0.0556 0.0556 0.0556 ( 11248 PWs)   bands (ev):

   -66.6995 -66.5983 -66.5983 -66.5979 -66.5815 -66.5815 -66.5811 -66.5805
   -66.5805 -66.5800 -66.5797 -66.5796 -66.5793 -66.5723 -66.5718 -66.4945
   -32.9993 -32.9992 -32.9992 -32.9963 -32.9963 -32.9962 -32.8284 -32.8284
   -32.8223 -32.7518 -32.7488 -32.7486 -32.7486 -32.7260 -32.7260 -32.7131
   -32.7126 -32.7126 -32.6747 -32.6747 -32.6499 -32.6334 -32.6333 -32.6333
   -32.6218 -32.6217 -32.6217 -32.6081 -32.6076 -32.6076 -32.6047 -32.6043
   -32.6043 -32.5968 -32.5968 -32.5968 -32.5859 -32.5859 -32.5857 -32.4195
   -32.4177 -32.4177 -32.4177 -32.4147 -32.4146 -32.4146 -32.4128 -32.4128
    11.5361  15.4313  15.4313  15.4314  15.5427  15.5428  15.5428  15.5686
    15.5687  15.5687  15.8080  15.8080  15.9429  15.9429  15.9429  17.3141
    17.4045  17.4045  17.4114  17.4114  17.4114  17.4254  17.4254  17.4255
    17.5476  17.5476  17.5948  17.8462  17.8464  17.8464  18.2433  18.2436
    18.2436  18.7335  18.7335  18.7813  19.0626  19.0626  19.0627  19.1675
    19.1675  19.1675  19.2557  19.2558  19.2558  19.3515  19.3516  19.3516
    20.1039  20.1043  20.1043  20.3291  20.3292  20.3292  20.3562  20.3562
    20.3562  20.4981  20.4983  20.4983  20.4997  20.4999  20.4999  20.5316
    20.5316  20.7867  20.7867  20.7868  20.7963  20.7966  20.7966  20.8432
    20.8432  20.8435  20.8435  21.3349  21.3351  21.3351  21.5618  21.6139
    21.6139  21.6139  21.6414  21.6414  22.0726  22.0726  22.0726  22.0993
    22.0993  22.0993

          k = 0.0556 0.0556 0.1669 ( 11278 PWs)   bands (ev):

   -66.6959 -66.6163 -66.5976 -66.5973 -66.5835 -66.5833 -66.5808 -66.5802
   -66.5799 -66.5792 -66.5787 -66.5784 -66.5729 -66.5723 -66.5631 -66.4972
   -32.9911 -32.9910 -32.9900 -32.9872 -32.9822 -32.9821 -32.8323 -32.8220
   -32.8122 -32.7893 -32.7805 -32.7804 -32.7779 -32.7772 -32.7460 -32.7458
   -32.7101 -32.6819 -32.6714 -32.6697 -32.6574 -32.6333 -32.6331 -32.6248
   -32.6141 -32.6116 -32.6113 -32.6112 -32.6102 -32.6020 -32.6018 -32.5975
   -32.5972 -32.5931 -32.5929 -32.5614 -32.5586 -32.5584 -32.5513 -32.4348
   -32.4274 -32.4273 -32.4258 -32.4229 -32.4185 -32.4177 -32.4176 -32.4154
    11.6745  14.7998  15.4877  15.4878  15.5540  15.5541  15.6339  15.6340
    15.6441  15.6686  15.8712  15.8733  15.9863  15.9863  16.2758  17.2043
    17.3151  17.3253  17.3932  17.4057  17.4399  17.4519  17.4621  17.4622
    17.5040  17.5040  17.7382  17.7498  17.8011  17.8012  18.1441  18.1443
    18.5996  18.7077  18.7289  18.8446  18.8466  18.8468  18.9123  19.0280
    19.0280  19.0715  19.3450  19.3451  19.4624  19.4625  19.4929  19.5941
    19.7912  19.7913  19.8579  20.0873  20.0874  20.0876  20.2496  20.3356
    20.3358  20.4371  20.4372  20.4575  20.5197  20.5217  20.5219  20.5461
    20.5617  20.5809  20.5809  20.6067  20.7996  20.8212  20.8216  20.8407
    20.8412  21.0178  21.1290  21.1291  21.2981  21.3862  21.5009  21.6223
    21.6223  21.6337  21.6716  21.6717  21.9750  21.9750  22.1448  22.1448
    22.2385  22.2385

          k = 0.0556 0.0556 0.2781 ( 11290 PWs)   bands (ev):

   -66.6889 -66.6340 -66.5960 -66.5958 -66.5859 -66.5857 -66.5799 -66.5797
   -66.5794 -66.5784 -66.5783 -66.5779 -66.5740 -66.5732 -66.5471 -66.5025
   -32.9726 -32.9725 -32.9718 -32.9697 -32.9577 -32.9576 -32.8332 -32.8319
   -32.8263 -32.8228 -32.8228 -32.8092 -32.8003 -32.7972 -32.7910 -32.7909
   -32.7046 -32.6946 -32.6918 -32.6765 -32.6311 -32.6308 -32.6262 -32.6254
   -32.6206 -32.6158 -32.6155 -32.6000 -32.5997 -32.5974 -32.5972 -32.5775
   -32.5698 -32.5573 -32.5572 -32.5279 -32.5248 -32.5246 -32.5184 -32.4608
   -32.4431 -32.4430 -32.4416 -32.4399 -32.4303 -32.4274 -32.4273 -32.4251
    11.9473  14.1216  15.5743  15.5743  15.5929  15.5929  15.7332  15.7332
    15.8389  15.8605  15.9885  16.0025  16.0362  16.0362  16.4176  17.0413
    17.0782  17.0887  17.2721  17.3219  17.3606  17.3712  17.5754  17.5754
    17.6445  17.6445  17.7932  17.7934  17.9932  18.0148  18.0761  18.0763
    18.5547  18.5547  18.6911  18.7176  18.7176  18.7221  18.7571  18.8043
    18.9382  19.2048  19.2242  19.2244  19.4432  19.4434  19.6058  19.6059
    19.6247  19.6443  19.6444  19.6527  19.7002  19.7744  19.8858  20.3118
    20.3365  20.3366  20.4353  20.4355  20.5576  20.5718  20.6190  20.6415
    20.6416  20.7809  20.7821  20.8049  20.8357  20.8374  20.8479  20.8763
    20.8763  20.8878  21.0866  21.1210  21.2485  21.3253  21.3254  21.5607
    21.6374  21.6374  21.7255  21.7256  21.8471  21.8471  22.2271  22.2271
    22.3734  22.3734

          k = 0.0556 0.0556 0.3894 ( 11303 PWs)   bands (ev):

   -66.6788 -66.6509 -66.5939 -66.5936 -66.5886 -66.5883 -66.5792 -66.5789
   -66.5785 -66.5782 -66.5780 -66.5771 -66.5754 -66.5744 -66.5328 -66.5103
   -32.9456 -32.9443 -32.9441 -32.9441 -32.9240 -32.9240 -32.8739 -32.8715
   -32.8667 -32.8667 -32.8379 -32.8379 -32.8318 -32.8161 -32.7903 -32.7773
   -32.7372 -32.7239 -32.6775 -32.6654 -32.6413 -32.6347 -32.6280 -32.6277
   -32.6199 -32.6197 -32.5987 -32.5984 -32.5975 -32.5972 -32.5805 -32.5343
   -32.5299 -32.5224 -32.5223 -32.4975 -32.4950 -32.4927 -32.4926 -32.4887
   -32.4647 -32.4647 -32.4643 -32.4642 -32.4479 -32.4432 -32.4431 -32.4412
    12.3460  13.4589  15.6404  15.6404  15.6462  15.6462  15.8528  15.8529
    16.0371  16.0371  16.1106  16.1271  16.1393  16.1928  16.4041  16.7375
    16.7662  16.7743  17.2659  17.2835  17.3216  17.3304  17.7461  17.7462
    17.8411  17.8411  17.9155  17.9157  18.1143  18.1146  18.2921  18.2922
    18.3225  18.3435  18.4069  18.4069  18.6859  18.6901  18.6903  18.7187
    18.7346  18.7458  18.8678  18.8680  19.0642  19.1774  19.1818  19.4110
    19.5173  19.8448  19.8449  19.8727  19.8728  20.0957  20.0996  20.2013
    20.2014  20.2159  20.3004  20.3005  20.6087  20.6180  20.7016  20.7273
    20.7298  20.7952  20.8121  20.8285  20.8346  20.8470  20.9248  20.9305
    20.9452  20.9453  21.0719  21.1661  21.1662  21.3571  21.3572  21.4365
    21.6154  21.6155  21.6560  21.6560  21.7294  21.7295  22.3267  22.3267
    22.4400  22.4400

          k = 0.0556 0.0556-0.5006 ( 11298 PWs)   bands (ev):

   -66.6660 -66.6658 -66.5916 -66.5912 -66.5910 -66.5908 -66.5789 -66.5786
   -66.5783 -66.5781 -66.5772 -66.5769 -66.5759 -66.5756 -66.5206 -66.5204
   -32.9121 -32.9119 -32.9118 -32.9116 -32.9083 -32.9082 -32.9081 -32.9081
   -32.8832 -32.8832 -32.8830 -32.8829 -32.8265 -32.8262 -32.7661 -32.7659
   -32.7529 -32.7528 -32.6596 -32.6593 -32.6508 -32.6505 -32.6243 -32.6240
   -32.6240 -32.6238 -32.5981 -32.5979 -32.5978 -32.5976 -32.5356 -32.5354
   -32.4965 -32.4962 -32.4945 -32.4943 -32.4911 -32.4910 -32.4907 -32.4907
   -32.4704 -32.4702 -32.4653 -32.4651 -32.4650 -32.4650 -32.4626 -32.4625
    12.8565  12.8570  15.6676  15.6677  15.6678  15.6678  15.9667  15.9668
    15.9669  15.9670  16.2924  16.2926  16.4338  16.4341  16.4397  16.4401
    16.4418  16.4421  17.2861  17.2864  17.2956  17.2959  17.9634  17.9634
    17.9636  17.9638  18.0614  18.0614  18.0616  18.0617  18.2721  18.2723
    18.2724  18.2727  18.4341  18.4342  18.4343  18.4345  18.6979  18.6981
    18.7199  18.7199  18.7257  18.7260  18.7335  18.7335  19.2228  19.2231
    19.8296  19.8300  20.0351  20.0351  20.0352  20.0355  20.1104  20.1104
    20.1105  20.1107  20.4432  20.4433  20.5698  20.5700  20.6672  20.6674
    20.6725  20.6727  20.8054  20.8056  20.8202  20.8204  20.8353  20.8355
    21.2050  21.2052  21.2052  21.2053  21.2708  21.2711  21.4192  21.4193
    21.4193  21.4195  21.6776  21.6777  21.6778  21.6779  22.4116  22.4117
    22.4119  22.4119

          k = 0.0556 0.1669 0.1669 ( 11289 PWs)   bands (ev):

   -66.6924 -66.6151 -66.6148 -66.5966 -66.5884 -66.5830 -66.5827 -66.5798
   -66.5784 -66.5781 -66.5747 -66.5737 -66.5725 -66.5635 -66.5632 -66.4998
   -32.9893 -32.9823 -32.9822 -32.9742 -32.9742 -32.9624 -32.8392 -32.8179
   -32.8133 -32.8077 -32.8076 -32.8001 -32.7963 -32.7926 -32.7676 -32.7210
   -32.7055 -32.7050 -32.6703 -32.6688 -32.6685 -32.6390 -32.6280 -32.6277
   -32.6218 -32.6189 -32.6186 -32.6077 -32.6075 -32.6050 -32.6018 -32.5929
   -32.5831 -32.5699 -32.5627 -32.5624 -32.5384 -32.5253 -32.5252 -32.4561
   -32.4430 -32.4337 -32.4337 -32.4258 -32.4257 -32.4236 -32.4143 -32.4128
    11.8114  14.8753  14.8754  15.4985  15.5505  15.6570  15.6571  15.7330
    15.7331  15.7442  15.9337  15.9381  16.0387  16.3177  16.3177  17.1045
    17.2178  17.3965  17.4410  17.4410  17.4420  17.4421  17.4783  17.4784
    17.4846  17.5149  17.6095  17.7224  17.7410  17.7622  18.0379  18.4230
    18.4233  18.6458  18.7095  18.7096  18.7133  18.7588  18.9041  18.9486
    19.2511  19.2514  19.3188  19.3188  19.3664  19.4273  19.5298  19.6321
    19.6321  19.6411  19.6413  19.8342  19.8342  19.9884  20.0907  20.0911
    20.3292  20.4450  20.4590  20.4590  20.5138  20.5173  20.5173  20.5403
    20.5452  20.7234  20.7720  20.8059  20.8063  20.8212  20.8213  20.8315
    20.8329  20.9365  20.9368  21.1559  21.2662  21.2664  21.2840  21.2840
    21.3974  21.6534  21.6605  21.7930  21.8658  22.2204  22.5471  22.5472
    22.7376  22.8981

          k = 0.0556 0.1669 0.2781 ( 11293 PWs)   bands (ev):

   -66.6857 -66.6322 -66.6124 -66.5952 -66.5937 -66.5852 -66.5818 -66.5793
   -66.5779 -66.5774 -66.5751 -66.5731 -66.5713 -66.5639 -66.5479 -66.5048
   -32.9766 -32.9648 -32.9647 -32.9587 -32.9512 -32.9324 -32.8471 -32.8457
   -32.8437 -32.8320 -32.8299 -32.8280 -32.8057 -32.8026 -32.7762 -32.7517
   -32.7092 -32.7029 -32.6666 -32.6645 -32.6622 -32.6605 -32.6408 -32.6320
   -32.6317 -32.6239 -32.6179 -32.6056 -32.6042 -32.5912 -32.5849 -32.5670
   -32.5646 -32.5501 -32.5413 -32.5299 -32.5126 -32.4946 -32.4943 -32.4874
   -32.4641 -32.4465 -32.4462 -32.4414 -32.4351 -32.4334 -32.4177 -32.4167
    12.0808  14.2156  15.0080  15.4528  15.6493  15.6976  15.8320  15.8550
    15.8833  15.9225  16.0493  16.0655  16.1055  16.3528  16.4662  16.9864
    17.0690  17.0929  17.3339  17.4037  17.4229  17.4341  17.4833  17.5460
    17.5691  17.6056  17.7020  17.7760  17.8878  17.9425  17.9523  18.2913
    18.4485  18.5522  18.5688  18.5889  18.6276  18.6740  18.6962  18.8910
    18.9275  19.0817  19.1171  19.2735  19.3335  19.4141  19.4330  19.4356
    19.5158  19.6153  19.6362  19.6877  19.7189  19.8528  19.8784  20.2046
    20.3332  20.3613  20.3999  20.4366  20.4697  20.5030  20.5407  20.5831
    20.7482  20.7641  20.7656  20.8272  20.8326  20.8538  20.8563  20.8712
    20.9209  21.0316  21.0496  21.0623  21.0721  21.1005  21.1543  21.2553
    21.3746  21.5888  21.6436  21.7232  21.8611  22.3613  22.3850  22.9482
    23.0519  23.1729

          k = 0.0556 0.1669 0.3894 ( 11279 PWs)   bands (ev):

   -66.6758 -66.6485 -66.6088 -66.5991 -66.5930 -66.5878 -66.5803 -66.5787
   -66.5779 -66.5768 -66.5763 -66.5740 -66.5685 -66.5649 -66.5340 -66.5123
   -32.9540 -32.9397 -32.9385 -32.9361 -32.9200 -32.8941 -32.8870 -32.8766
   -32.8703 -32.8689 -32.8487 -32.8427 -32.8408 -32.8016 -32.7870 -32.7526
   -32.7348 -32.6947 -32.6907 -32.6584 -32.6580 -32.6497 -32.6414 -32.6387
   -32.6310 -32.6295 -32.6141 -32.6049 -32.6047 -32.5779 -32.5679 -32.5543
   -32.5285 -32.5250 -32.5182 -32.5125 -32.5000 -32.4896 -32.4868 -32.4673
   -32.4664 -32.4651 -32.4644 -32.4642 -32.4521 -32.4463 -32.4275 -32.4274
    12.4741  13.5679  15.1627  15.3941  15.7357  15.7450  15.9511  16.0415
    16.1237  16.1309  16.1837  16.2004  16.2494  16.3152  16.4601  16.7704
    16.7765  16.7926  17.3021  17.3459  17.3591  17.3833  17.6565  17.6969
    17.7117  17.7691  17.7713  17.9215  17.9948  18.1329  18.1795  18.2408
    18.3481  18.3591  18.4204  18.4300  18.5505  18.5510  18.5953  18.6352
    18.6468  18.6786  18.7589  18.8998  18.9623  18.9637  19.2401  19.6272
    19.6609  19.8211  19.8223  19.8797  19.8824  19.9016  20.0730  20.1483
    20.1707  20.2289  20.3011  20.3438  20.5117  20.5642  20.5881  20.6670
    20.7038  20.7094  20.7141  20.8245  20.8308  20.8401  20.8407  20.9021
    20.9161  20.9503  20.9870  21.1117  21.1178  21.2131  21.2565  21.3569
    21.3624  21.3684  21.5647  21.7636  21.8432  22.2019  22.5435  22.8783
    23.2280  23.3745

          k = 0.0556 0.1669-0.5006 ( 11286 PWs)   bands (ev):

   -66.6633 -66.6631 -66.6043 -66.6041 -66.5906 -66.5903 -66.5787 -66.5785
   -66.5782 -66.5780 -66.5754 -66.5751 -66.5665 -66.5663 -66.5223 -66.5220
   -32.9235 -32.9234 -32.9084 -32.9082 -32.9078 -32.9076 -32.9055 -32.9054
   -32.8830 -32.8829 -32.8497 -32.8497 -32.8476 -32.8475 -32.7633 -32.7631
   -32.7254 -32.7253 -32.6706 -32.6704 -32.6505 -32.6503 -32.6457 -32.6454
   -32.6347 -32.6345 -32.6047 -32.6046 -32.5725 -32.5723 -32.5680 -32.5679
   -32.5202 -32.5201 -32.4935 -32.4933 -32.4895 -32.4893 -32.4865 -32.4864
   -32.4740 -32.4738 -32.4643 -32.4642 -32.4447 -32.4446 -32.4437 -32.4436
    12.9768  12.9772  15.2993  15.2995  15.7679  15.7681  16.0624  16.0626
    16.1976  16.1978  16.3526  16.3528  16.4571  16.4573  16.4851  16.4853
    16.4862  16.4865  17.3196  17.3199  17.3442  17.3445  17.8586  17.8587
    17.8785  17.8787  17.9049  17.9051  17.9708  17.9710  18.2917  18.2917
    18.3354  18.3355  18.4033  18.4034  18.5234  18.5236  18.5361  18.5363
    18.5440  18.5440  18.5850  18.5851  18.6634  18.6636  19.4227  19.4229
    19.9152  19.9155  19.9427  19.9430  20.0658  20.0660  20.1124  20.1125
    20.1509  20.1511  20.1589  20.1589  20.5002  20.5004  20.6338  20.6340
    20.6471  20.6473  20.7739  20.7742  20.8242  20.8244  20.8632  20.8633
    20.9750  20.9751  21.0766  21.0767  21.1880  21.1882  21.2660  21.2662
    21.4317  21.4319  21.5950  21.5951  22.0114  22.0116  22.7301  22.7304
    23.3633  23.3636

          k = 0.0556 0.2781 0.2781 ( 11308 PWs)   bands (ev):

   -66.6793 -66.6288 -66.6285 -66.6019 -66.5936 -66.5842 -66.5839 -66.5789
   -66.5773 -66.5770 -66.5766 -66.5735 -66.5651 -66.5496 -66.5493 -66.5096
   -32.9701 -32.9497 -32.9497 -32.9393 -32.9392 -32.8980 -32.8632 -32.8631
   -32.8604 -32.8589 -32.8500 -32.8472 -32.8240 -32.7942 -32.7510 -32.7105
   -32.7076 -32.7071 -32.6971 -32.6967 -32.6618 -32.6499 -32.6475 -32.6392
   -32.6390 -32.6255 -32.6250 -32.6165 -32.6163 -32.6107 -32.5711 -32.5425
   -32.5343 -32.5339 -32.5271 -32.5233 -32.5201 -32.4954 -32.4894 -32.4674
   -32.4674 -32.4543 -32.4542 -32.4460 -32.4457 -32.4457 -32.4142 -32.4135
    12.3433  14.3909  14.3910  15.2952  15.7733  15.8977  15.8977  16.0194
    16.0195  16.0444  16.1515  16.1984  16.2081  16.5078  16.5078  16.9239
    16.9859  17.1727  17.1727  17.3939  17.4684  17.4943  17.4944  17.5389
    17.5390  17.6050  17.6239  17.8057  17.8335  17.9324  17.9670  18.3416
    18.3418  18.4539  18.4723  18.4726  18.4841  18.4991  18.5508  18.6623
    18.9109  18.9109  18.9755  18.9756  19.1398  19.1811  19.1815  19.2611
    19.7027  19.7027  19.7611  19.8024  19.8512  19.8515  20.0697  20.1541
    20.1545  20.3259  20.4121  20.4122  20.4411  20.4599  20.4600  20.5216
    20.5578  20.7202  20.7217  20.7293  20.8254  20.8351  20.8709  20.9248
    20.9358  20.9361  20.9883  21.0144  21.0144  21.1233  21.1236  21.3049
    21.3050  21.3453  21.6964  21.8898  21.9021  22.5974  23.0188  23.0189
    23.6254  23.6255

          k = 0.0556 0.2781 0.3894 ( 11279 PWs)   bands (ev):

   -66.6698 -66.6440 -66.6235 -66.6098 -66.5916 -66.5866 -66.5824 -66.5786
   -66.5782 -66.5772 -66.5761 -66.5742 -66.5597 -66.5520 -66.5366 -66.5164
   -32.9538 -32.9281 -32.9277 -32.9221 -32.9132 -32.8983 -32.8805 -32.8742
   -32.8734 -32.8715 -32.8683 -32.8562 -32.8521 -32.7764 -32.7582 -32.7269
   -32.7227 -32.6985 -32.6876 -32.6622 -32.6602 -32.6589 -32.6585 -32.6544
   -32.6531 -32.6461 -32.6296 -32.6160 -32.6146 -32.5879 -32.5656 -32.5590
   -32.5404 -32.5187 -32.5141 -32.5061 -32.5039 -32.4990 -32.4787 -32.4662
   -32.4659 -32.4638 -32.4615 -32.4532 -32.4448 -32.4444 -32.4173 -32.4171
    12.7251  13.7770  14.6217  15.1026  15.8934  15.9432  16.1356  16.1741
    16.2088  16.2706  16.2739  16.2857  16.3854  16.4719  16.5164  16.7917
    16.7926  16.8795  17.3727  17.3787  17.4174  17.4343  17.4648  17.6000
    17.6133  17.6526  17.7360  17.7387  17.9947  18.0840  18.0908  18.1062
    18.2182  18.3192  18.3274  18.3899  18.4010  18.4313  18.5156  18.5394
    18.5579  18.6233  18.6249  18.6390  18.7771  18.8353  19.4613  19.4768
    19.8439  19.8591  19.9146  19.9520  19.9552  19.9625  19.9653  20.0583
    20.1640  20.2196  20.2880  20.3284  20.3521  20.4687  20.4854  20.5122
    20.6123  20.6325  20.6520  20.6567  20.7617  20.8311  20.8478  20.8531
    20.8735  20.9454  20.9529  20.9747  20.9825  21.0586  21.0804  21.1461
    21.4785  21.5392  21.6847  21.8419  22.1584  22.7457  22.8883  23.4454
    23.6982  24.3221

          k = 0.0556 0.2781-0.5006 ( 11296 PWs)   bands (ev):

   -66.6580 -66.6578 -66.6172 -66.6170 -66.5893 -66.5891 -66.5807 -66.5805
   -66.5777 -66.5775 -66.5753 -66.5750 -66.5556 -66.5553 -66.5256 -66.5254
   -32.9295 -32.9294 -32.9021 -32.9020 -32.9019 -32.9018 -32.9012 -32.9011
   -32.8830 -32.8830 -32.8731 -32.8730 -32.8087 -32.8086 -32.7538 -32.7536
   -32.6916 -32.6915 -32.6800 -32.6798 -32.6761 -32.6759 -32.6513 -32.6512
   -32.6435 -32.6433 -32.6159 -32.6158 -32.6123 -32.6122 -32.5522 -32.5520
   -32.5488 -32.5486 -32.4872 -32.4870 -32.4834 -32.4833 -32.4818 -32.4816
   -32.4808 -32.4808 -32.4646 -32.4646 -32.4278 -32.4277 -32.4275 -32.4274
    13.2105  13.2109  14.8712  14.8714  15.9534  15.9536  16.2373  16.2374
    16.3602  16.3604  16.4233  16.4235  16.4922  16.4925  16.5545  16.5547
    16.6146  16.6148  17.3846  17.3849  17.4112  17.4114  17.6777  17.6779
    17.6991  17.6994  17.7082  17.7083  17.8995  17.8996  18.2830  18.2830
    18.3086  18.3088  18.3168  18.3170  18.3470  18.3472  18.3495  18.3496
    18.5075  18.5076  18.5273  18.5275  18.5836  18.5839  19.6785  19.6788
    19.8087  19.8087  19.8770  19.8773  20.0494  20.0497  20.1353  20.1354
    20.1528  20.1529  20.1865  20.1866  20.3294  20.3296  20.5694  20.5696
    20.5822  20.5824  20.7166  20.7168  20.7618  20.7620  20.8446  20.8448
    20.8748  20.8749  20.8938  20.8939  20.9882  20.9883  21.1171  21.1172
    21.6089  21.6090  21.7224  21.7225  22.4516  22.4519  23.1856  23.1858
    24.3963  24.3967

          k = 0.0556 0.3894 0.3894 ( 11290 PWs)   bands (ev):

   -66.6612 -66.6376 -66.6373 -66.6200 -66.5897 -66.5850 -66.5847 -66.5807
   -66.5775 -66.5765 -66.5762 -66.5747 -66.5521 -66.5406 -66.5403 -66.5225
   -32.9440 -32.9131 -32.9131 -32.9041 -32.9041 -32.9011 -32.9010 -32.8864
   -32.8850 -32.8835 -32.8826 -32.8668 -32.8111 -32.7603 -32.7153 -32.7149
   -32.7108 -32.7103 -32.6962 -32.6898 -32.6819 -32.6659 -32.6657 -32.6639
   -32.6498 -32.6291 -32.6290 -32.6229 -32.6224 -32.6219 -32.6121 -32.5510
   -32.5420 -32.5154 -32.5150 -32.4964 -32.4900 -32.4865 -32.4755 -32.4718
   -32.4701 -32.4700 -32.4642 -32.4642 -32.4275 -32.4274 -32.4140 -32.4137
    13.0878  14.0674  14.0675  14.7674  16.0683  16.2096  16.2097  16.3497
    16.3776  16.3777  16.3817  16.4100  16.5139  16.5140  16.5874  16.7089
    16.7650  17.0997  17.0998  17.4177  17.4351  17.4969  17.5199  17.5199
    17.5300  17.5300  17.6161  17.7422  17.8157  17.9351  18.0452  18.1201
    18.1202  18.2178  18.2728  18.2935  18.3102  18.3102  18.3433  18.3433
    18.4747  18.4782  18.4785  18.5652  18.6068  19.1208  19.1212  19.7009
    19.7998  19.8834  19.9457  19.9460  20.0661  20.0661  20.0848  20.0952
    20.2123  20.2127  20.2520  20.3379  20.3750  20.3750  20.3778  20.3934
    20.3935  20.5729  20.5762  20.5876  20.6788  20.7750  20.7751  20.8016
    20.8470  20.8777  20.9109  20.9113  20.9486  21.0051  21.0054  21.0297
    21.6659  21.6660  21.7452  21.8527  22.5367  23.2870  23.3272  23.3274
    24.0611  24.0613

          k = 0.0556 0.3894-0.5006 ( 11294 PWs)   bands (ev):

   -66.6504 -66.6502 -66.6295 -66.6293 -66.5874 -66.5872 -66.5829 -66.5827
   -66.5770 -66.5768 -66.5755 -66.5753 -66.5458 -66.5456 -66.5307 -66.5305
   -32.9261 -32.9260 -32.8972 -32.8971 -32.8968 -32.8967 -32.8965 -32.8964
   -32.8948 -32.8946 -32.8846 -32.8845 -32.7618 -32.7617 -32.7397 -32.7394
   -32.7000 -32.6998 -32.6841 -32.6840 -32.6683 -32.6682 -32.6613 -32.6612
   -32.6563 -32.6562 -32.6413 -32.6412 -32.6274 -32.6273 -32.5859 -32.5857
   -32.5274 -32.5272 -32.4936 -32.4933 -32.4791 -32.4790 -32.4780 -32.4779
   -32.4770 -32.4769 -32.4667 -32.4666 -32.4174 -32.4173 -32.4172 -32.4171
    13.5439  13.5443  14.4100  14.4103  16.1864  16.1866  16.4470  16.4472
    16.4544  16.4546  16.4697  16.4699  16.4939  16.4941  16.6183  16.6185
    16.8313  16.8316  17.4006  17.4008  17.4464  17.4466  17.4477  17.4479
    17.5121  17.5123  17.5696  17.5698  17.9460  17.9462  18.0754  18.0754
    18.1613  18.1614  18.1684  18.1686  18.1770  18.1772  18.2297  18.2299
    18.4963  18.4965  18.5168  18.5171  18.7813  18.7813  19.4460  19.4460
    19.8799  19.8801  19.9514  19.9517  20.1333  20.1335  20.1856  20.1859
    20.2396  20.2397  20.2400  20.2402  20.2434  20.2435  20.4757  20.4759
    20.4825  20.4827  20.5105  20.5107  20.6518  20.6520  20.7025  20.7028
    20.8715  20.8717  20.9234  20.9235  20.9357  20.9358  21.0174  21.0175
    21.7376  21.7377  21.7935  21.7936  22.9352  22.9355  23.6908  23.6911
    23.9223  23.9226

          k = 0.0556-0.5006-0.5006 ( 11308 PWs)   bands (ev):

   -66.6408 -66.6407 -66.6405 -66.6403 -66.5853 -66.5853 -66.5851 -66.5848
   -66.5763 -66.5762 -66.5761 -66.5758 -66.5376 -66.5376 -66.5374 -66.5371
   -32.9148 -32.9148 -32.9148 -32.9147 -32.8952 -32.8951 -32.8950 -32.8950
   -32.8884 -32.8884 -32.8883 -32.8883 -32.7219 -32.7218 -32.7214 -32.7214
   -32.7123 -32.7122 -32.7117 -32.7117 -32.6801 -32.6801 -32.6801 -32.6799
   -32.6363 -32.6363 -32.6363 -32.6362 -32.6214 -32.6212 -32.6208 -32.6208
   -32.5089 -32.5089 -32.5086 -32.5084 -32.4758 -32.4757 -32.4756 -32.4756
   -32.4717 -32.4716 -32.4715 -32.4715 -32.4137 -32.4137 -32.4137 -32.4136
    13.9543  13.9544  13.9546  13.9548  16.3940  16.3942  16.3943  16.3943
    16.4856  16.4856  16.4858  16.4860  16.6006  16.6008  16.6009  16.6009
    17.1028  17.1029  17.1031  17.1031  17.4398  17.4398  17.4399  17.4400
    17.4874  17.4874  17.4875  17.4876  18.0404  18.0407  18.0407  18.0407
    18.0526  18.0527  18.0527  18.0529  18.1408  18.1409  18.1409  18.1411
    18.4855  18.4855  18.4857  18.4861  19.0976  19.0976  19.0980  19.0980
    19.9695  19.9695  19.9696  19.9701  20.2255  20.2258  20.2261  20.2261
    20.2679  20.2679  20.2680  20.2681  20.3606  20.3607  20.3608  20.3609
    20.3625  20.3625  20.3627  20.3627  20.6289  20.6289  20.6291  20.6293
    20.9006  20.9006  20.9009  20.9010  20.9589  20.9590  20.9593  20.9593
    21.7998  21.7998  21.7999  21.7999  23.4314  23.4319  23.4319  23.4320
    24.2038  24.2040

          k = 0.1669 0.1669 0.1669 ( 11296 PWs)   bands (ev):

   -66.6891 -66.6138 -66.6138 -66.6134 -66.5879 -66.5879 -66.5875 -66.5755
   -66.5745 -66.5745 -66.5741 -66.5719 -66.5637 -66.5637 -66.5633 -66.5023
   -32.9801 -32.9800 -32.9800 -32.9559 -32.9559 -32.9559 -32.8344 -32.8325
   -32.8325 -32.8252 -32.8251 -32.8251 -32.7765 -32.7709 -32.7709 -32.7288
   -32.7283 -32.7283 -32.6762 -32.6761 -32.6761 -32.6308 -32.6304 -32.6304
   -32.6213 -32.6213 -32.6029 -32.6026 -32.6026 -32.5978 -32.5974 -32.5974
   -32.5655 -32.5654 -32.5654 -32.5571 -32.5085 -32.5085 -32.5084 -32.4780
   -32.4466 -32.4466 -32.4466 -32.4229 -32.4228 -32.4228 -32.4188 -32.4188
    11.9468  14.9549  14.9549  14.9550  15.6059  15.6060  15.6060  15.8405
    15.8406  15.8406  15.9989  15.9989  16.3712  16.3713  16.3713  17.0222
    17.3262  17.3262  17.4168  17.4170  17.4170  17.4636  17.4637  17.4637
    17.5743  17.5743  17.5744  17.6076  17.6848  17.6848  18.2707  18.2710
    18.2710  18.6304  18.6304  18.6306  18.6331  18.6331  19.0642  19.0650
    19.0653  19.0653  19.2589  19.2590  19.2590  19.4346  19.4346  19.4347
    19.6636  19.6636  19.6638  19.7183  19.7185  19.7185  20.2918  20.2923
    20.2923  20.3657  20.3658  20.3658  20.4796  20.4796  20.5186  20.5187
    20.5187  20.7748  20.7752  20.7752  20.8061  20.8061  20.8088  20.8088
    20.8776  20.9283  20.9283  20.9285  21.2813  21.2814  21.2814  21.4957
    21.4960  21.4960  21.5212  21.5212  22.2468  22.2469  22.2469  23.0137
    23.0137  23.0137

          k = 0.1669 0.1669 0.2781 ( 11305 PWs)   bands (ev):

   -66.6824 -66.6304 -66.6113 -66.6111 -66.5931 -66.5929 -66.5864 -66.5775
   -66.5738 -66.5718 -66.5713 -66.5709 -66.5643 -66.5640 -66.5487 -66.5071
   -32.9679 -32.9679 -32.9623 -32.9431 -32.9282 -32.9282 -32.8567 -32.8536
   -32.8536 -32.8442 -32.8425 -32.8193 -32.8188 -32.7659 -32.7657 -32.7529
   -32.7473 -32.7120 -32.6847 -32.6774 -32.6774 -32.6471 -32.6427 -32.6425
   -32.6355 -32.6293 -32.6054 -32.5891 -32.5888 -32.5747 -32.5716 -32.5715
   -32.5684 -32.5683 -32.5311 -32.5308 -32.5101 -32.4862 -32.4861 -32.4813
   -32.4643 -32.4643 -32.4546 -32.4392 -32.4309 -32.4254 -32.4253 -32.4196
    12.2133  14.3121  15.0955  15.0956  15.5639  15.5640  15.8134  15.9783
    15.9783  16.0236  16.1188  16.1192  16.4278  16.4278  16.5287  16.9410
    17.0937  17.1648  17.2986  17.4263  17.4290  17.4292  17.5141  17.5372
    17.5440  17.5440  17.7138  17.7216  17.7216  17.9053  18.1264  18.1266
    18.4167  18.4481  18.4482  18.5341  18.5532  18.6098  18.8048  18.8049
    18.8208  18.8209  19.0522  19.1974  19.1975  19.2138  19.2197  19.2643
    19.5584  19.6616  19.6616  19.8092  19.8093  19.9730  20.0576  20.2539
    20.2540  20.3615  20.4319  20.4600  20.4600  20.5379  20.5432  20.5446
    20.5651  20.5653  20.7602  20.7618  20.7808  20.8047  20.8196  20.8222
    20.8223  21.0433  21.0978  21.0978  21.1263  21.1984  21.2725  21.2845
    21.2845  21.5679  21.5778  21.5779  21.9817  21.9818  22.8785  23.2142
    23.2142  23.6478

          k = 0.1669 0.1669 0.3894 ( 11275 PWs)   bands (ev):

   -66.6728 -66.6462 -66.6077 -66.6074 -66.5983 -66.5980 -66.5845 -66.5799
   -66.5731 -66.5719 -66.5687 -66.5683 -66.5652 -66.5649 -66.5352 -66.5143
   -32.9468 -32.9468 -32.9362 -32.9253 -32.8925 -32.8925 -32.8866 -32.8865
   -32.8806 -32.8634 -32.8522 -32.8519 -32.8085 -32.8083 -32.7995 -32.7451
   -32.7269 -32.7214 -32.6729 -32.6728 -32.6693 -32.6671 -32.6544 -32.6542
   -32.6386 -32.6298 -32.6149 -32.5819 -32.5816 -32.5717 -32.5714 -32.5489
   -32.5406 -32.5406 -32.5322 -32.5060 -32.4995 -32.4860 -32.4860 -32.4670
   -32.4645 -32.4643 -32.4633 -32.4582 -32.4488 -32.4332 -32.4331 -32.4265
    12.6017  13.6781  15.2611  15.2611  15.5063  15.5063  16.1043  16.1365
    16.1366  16.2725  16.2729  16.2945  16.4066  16.4067  16.5305  16.7906
    16.7939  16.8251  17.3052  17.3804  17.4208  17.4473  17.5698  17.5699
    17.6756  17.6757  17.8884  17.8884  17.9947  18.0063  18.0064  18.1710
    18.3222  18.3223  18.4041  18.4043  18.4794  18.4950  18.4952  18.5287
    18.5287  18.5787  18.7340  18.7342  18.7621  18.7746  19.3999  19.5225
    19.7601  19.8236  19.9087  19.9087  19.9148  19.9148  20.1352  20.1352
    20.1860  20.1924  20.2778  20.3353  20.3353  20.5164  20.5838  20.6355
    20.6906  20.7042  20.7880  20.8007  20.8051  20.8053  20.8463  20.8773
    20.8932  20.8932  20.9561  21.0097  21.2807  21.2807  21.3044  21.3296
    21.3296  21.5392  21.5483  21.5484  21.7237  21.7238  23.4486  23.4486
    23.5745  23.7463

          k = 0.1669 0.1669-0.5006 ( 11316 PWs)   bands (ev):

   -66.6607 -66.6605 -66.6036 -66.6032 -66.6030 -66.6028 -66.5824 -66.5822
   -66.5726 -66.5724 -66.5670 -66.5666 -66.5664 -66.5662 -66.5239 -66.5236
   -32.9192 -32.9191 -32.9190 -32.9190 -32.9042 -32.9040 -32.9030 -32.9028
   -32.8551 -32.8549 -32.8522 -32.8522 -32.8519 -32.8518 -32.7748 -32.7745
   -32.6981 -32.6980 -32.6952 -32.6950 -32.6651 -32.6650 -32.6650 -32.6648
   -32.6244 -32.6242 -32.5928 -32.5927 -32.5762 -32.5760 -32.5760 -32.5758
   -32.5119 -32.5119 -32.5116 -32.5114 -32.4949 -32.4947 -32.4846 -32.4844
   -32.4723 -32.4720 -32.4463 -32.4461 -32.4461 -32.4461 -32.4397 -32.4396
    13.0971  13.0975  15.4069  15.4070  15.4072  15.4072  16.2929  16.2929
    16.2930  16.2931  16.4260  16.4262  16.4535  16.4538  16.5206  16.5210
    16.5500  16.5502  17.3361  17.3364  17.4016  17.4019  17.8305  17.8306
    17.8308  17.8309  17.8435  17.8435  17.8438  17.8440  18.2983  18.2983
    18.2985  18.2986  18.3497  18.3498  18.4174  18.4177  18.4177  18.4178
    18.4678  18.4680  18.4686  18.4687  18.5421  18.5423  19.6019  19.6021
    19.8365  19.8366  19.9842  19.9845  20.0179  20.0180  20.0181  20.0182
    20.1481  20.1481  20.1483  20.1483  20.6059  20.6061  20.6133  20.6135
    20.6416  20.6418  20.7458  20.7461  20.7947  20.7949  20.9023  20.9024
    20.9113  20.9114  20.9114  20.9115  21.4401  21.4402  21.4402  21.4404
    21.4468  21.4470  21.4838  21.4840  21.4841  21.4842  23.6522  23.6522
    23.6525  23.6525

          k = 0.1669 0.2781 0.2781 ( 11288 PWs)   bands (ev):

   -66.6761 -66.6271 -66.6268 -66.6088 -66.6009 -66.5915 -66.5912 -66.5803
   -66.5710 -66.5709 -66.5706 -66.5652 -66.5645 -66.5503 -66.5500 -66.5116
   -32.9612 -32.9511 -32.9510 -32.9199 -32.9199 -32.8962 -32.8693 -32.8674
   -32.8667 -32.8666 -32.8515 -32.8289 -32.8156 -32.7906 -32.7588 -32.7258
   -32.7233 -32.7229 -32.7127 -32.7125 -32.6884 -32.6625 -32.6623 -32.6609
   -32.6138 -32.6031 -32.6028 -32.5955 -32.5953 -32.5737 -32.5727 -32.5571
   -32.5467 -32.5444 -32.5347 -32.5345 -32.5118 -32.4856 -32.4740 -32.4664
   -32.4664 -32.4631 -32.4631 -32.4404 -32.4404 -32.4385 -32.4223 -32.4197
    12.4735  14.4921  14.4922  15.2527  15.4119  15.7787  15.7787  16.1381
    16.1576  16.1576  16.2219  16.2500  16.5333  16.5944  16.5945  16.9119
    17.1014  17.1487  17.1487  17.3582  17.3766  17.4992  17.4993  17.5809
    17.5914  17.5987  17.6300  17.6300  17.8828  17.8880  17.9692  18.2390
    18.2392  18.3411  18.3879  18.3881  18.4531  18.4614  18.5515  18.6179
    18.6821  18.6821  18.8351  18.8351  18.9071  18.9645  18.9648  19.4087
    19.7650  19.7650  19.7995  19.9272  20.0013  20.0015  20.1452  20.1854
    20.3415  20.3415  20.3469  20.3473  20.3652  20.4420  20.4803  20.4804
    20.5173  20.7287  20.7311  20.7318  20.7591  20.7907  20.7994  20.7997
    20.8164  21.0080  21.0081  21.1203  21.1494  21.2687  21.2688  21.2874
    21.2877  21.3808  21.5588  21.6589  21.6639  22.5340  22.5341  23.4877
    24.2711  24.2714

          k = 0.1669 0.2781 0.3894 ( 11291 PWs)   bands (ev):

   -66.6669 -66.6418 -66.6219 -66.6085 -66.6053 -66.5963 -66.5891 -66.5834
   -66.5706 -66.5704 -66.5685 -66.5654 -66.5601 -66.5526 -66.5377 -66.5183
   -32.9457 -32.9329 -32.9268 -32.9086 -32.8954 -32.8902 -32.8873 -32.8825
   -32.8723 -32.8629 -32.8613 -32.8573 -32.8222 -32.7986 -32.7679 -32.7453
   -32.7414 -32.7059 -32.6968 -32.6914 -32.6879 -32.6788 -32.6774 -32.6762
   -32.6347 -32.6123 -32.6027 -32.5875 -32.5854 -32.5770 -32.5704 -32.5602
   -32.5406 -32.5238 -32.5222 -32.5111 -32.5038 -32.4949 -32.4815 -32.4717
   -32.4624 -32.4618 -32.4548 -32.4457 -32.4445 -32.4440 -32.4246 -32.4223
    12.8515  13.8894  14.7295  15.2207  15.4415  15.7213  16.0804  16.3035
    16.3146  16.3624  16.3971  16.4270  16.5644  16.5700  16.6084  16.8151
    16.8372  16.8805  17.3402  17.3603  17.4394  17.4444  17.4881  17.5305
    17.6127  17.7061  17.7290  17.7767  17.8526  17.9994  18.0404  18.0449
    18.1599  18.2225  18.2799  18.3195  18.3424  18.3708  18.4011  18.4150
    18.4475  18.4640  18.4871  18.5022  18.5897  18.6630  19.1855  19.6225
    19.8194  19.9218  19.9905  19.9921  19.9968  20.0390  20.0583  20.1029
    20.2433  20.2575  20.2594  20.3565  20.3599  20.4500  20.5301  20.5849
    20.6411  20.6595  20.6664  20.7488  20.7894  20.7923  20.8299  20.8464
    20.8524  20.8641  20.8712  20.9758  21.0715  21.1783  21.2964  21.3596
    21.4143  21.4323  21.5651  21.5922  21.6550  22.2069  23.1474  23.8066
    24.3041  24.4279

          k = 0.1669 0.2781-0.5006 ( 11308 PWs)   bands (ev):

   -66.6556 -66.6553 -66.6158 -66.6156 -66.6011 -66.6009 -66.5864 -66.5862
   -66.5705 -66.5703 -66.5668 -66.5666 -66.5560 -66.5557 -66.5271 -66.5269
   -32.9229 -32.9228 -32.9107 -32.9106 -32.8962 -32.8960 -32.8957 -32.8955
   -32.8707 -32.8705 -32.8566 -32.8566 -32.8137 -32.8136 -32.7747 -32.7745
   -32.7157 -32.7155 -32.6941 -32.6940 -32.6868 -32.6867 -32.6661 -32.6660
   -32.6311 -32.6310 -32.6090 -32.6088 -32.5816 -32.5815 -32.5493 -32.5491
   -32.5395 -32.5394 -32.5003 -32.5002 -32.4908 -32.4906 -32.4814 -32.4813
   -32.4774 -32.4771 -32.4516 -32.4515 -32.4326 -32.4326 -32.4307 -32.4307
    13.3312  13.3315  14.9856  14.9858  15.6101  15.6103  16.4413  16.4416
    16.4574  16.4576  16.4688  16.4689  16.5100  16.5102  16.6381  16.6384
    16.6503  16.6505  17.3922  17.3925  17.4642  17.4645  17.6377  17.6379
    17.6541  17.6543  17.7422  17.7423  17.8590  17.8591  18.0849  18.0850
    18.2376  18.2378  18.2600  18.2602  18.2616  18.2618  18.3095  18.3097
    18.3799  18.3800  18.3816  18.3818  18.4499  18.4502  19.4766  19.4767
    19.8541  19.8544  20.0085  20.0087  20.0994  20.0997  20.1425  20.1427
    20.1898  20.1900  20.1969  20.1970  20.5575  20.5577  20.5607  20.5609
    20.5962  20.5964  20.6950  20.6952  20.7832  20.7834  20.7901  20.7903
    20.8784  20.8786  20.9320  20.9321  21.0826  21.0828  21.2487  21.2488
    21.5172  21.5173  21.5711  21.5712  21.8865  21.8867  23.7837  23.7841
    24.1043  24.1046

          k = 0.1669 0.3894 0.3894 ( 11307 PWs)   bands (ev):

   -66.6585 -66.6357 -66.6354 -66.6185 -66.6021 -66.5939 -66.5936 -66.5870
   -66.5694 -66.5687 -66.5684 -66.5660 -66.5527 -66.5416 -66.5413 -66.5242
   -32.9358 -32.9137 -32.9137 -32.8962 -32.8962 -32.8914 -32.8873 -32.8872
   -32.8836 -32.8775 -32.8713 -32.8415 -32.8155 -32.7849 -32.7423 -32.7366
   -32.7364 -32.7228 -32.7223 -32.7048 -32.7022 -32.7020 -32.7015 -32.6651
   -32.6290 -32.6045 -32.6018 -32.6014 -32.5942 -32.5940 -32.5827 -32.5414
   -32.5390 -32.5128 -32.5125 -32.5046 -32.5044 -32.4858 -32.4793 -32.4792
   -32.4689 -32.4613 -32.4612 -32.4602 -32.4319 -32.4319 -32.4216 -32.4202
    13.2120  14.1829  14.1830  14.8874  15.6673  16.0188  16.0188  16.4453
    16.4619  16.5460  16.5461  16.6108  16.6109  16.6249  16.6609  16.7033
    16.8612  17.0985  17.0986  17.3640  17.4257  17.4745  17.5377  17.5377
    17.5684  17.5684  17.7171  17.7248  17.7337  17.7863  18.0020  18.0809
    18.0810  18.0950  18.1631  18.1632  18.2318  18.2319  18.2432  18.2815
    18.3036  18.3413  18.3415  18.4331  18.4383  18.8573  18.8576  19.4555
    19.8706  20.0318  20.1008  20.1009  20.1255  20.1615  20.1617  20.1700
    20.2897  20.3522  20.3718  20.3718  20.4071  20.4075  20.4222  20.4223
    20.5660  20.5939  20.5957  20.6478  20.6781  20.7677  20.7678  20.7955
    20.8227  20.8231  20.8726  20.8822  21.0388  21.0932  21.0935  21.1152
    21.5447  21.5448  21.6068  21.6851  21.9488  22.7408  22.7409  23.8566
    24.2200  24.9423

          k = 0.1669 0.3894-0.5006 ( 11280 PWs)   bands (ev):

   -66.6480 -66.6478 -66.6277 -66.6275 -66.5982 -66.5980 -66.5906 -66.5904
   -66.5689 -66.5687 -66.5672 -66.5669 -66.5466 -66.5463 -66.5320 -66.5318
   -32.9185 -32.9184 -32.9007 -32.9006 -32.8914 -32.8912 -32.8897 -32.8895
   -32.8851 -32.8849 -32.8639 -32.8638 -32.7695 -32.7695 -32.7634 -32.7632
   -32.7263 -32.7262 -32.7211 -32.7210 -32.7085 -32.7085 -32.6756 -32.6755
   -32.6331 -32.6330 -32.5997 -32.5995 -32.5879 -32.5878 -32.5694 -32.5693
   -32.5253 -32.5251 -32.4902 -32.4901 -32.4885 -32.4883 -32.4820 -32.4819
   -32.4803 -32.4802 -32.4600 -32.4599 -32.4240 -32.4239 -32.4234 -32.4233
    13.6647  13.6650  14.5285  14.5288  15.8790  15.8792  16.3582  16.3585
    16.5510  16.5512  16.5582  16.5585  16.6817  16.6818  16.7649  16.7651
    16.8555  16.8558  17.3997  17.4000  17.4604  17.4606  17.4644  17.4645
    17.4710  17.4712  17.6325  17.6327  17.8901  17.8901  17.9131  17.9132
    18.0386  18.0389  18.0986  18.0987  18.1442  18.1444  18.1788  18.1790
    18.3450  18.3452  18.3825  18.3827  18.5591  18.5592  19.1259  19.1260
    20.0706  20.0708  20.1295  20.1297  20.2260  20.2262  20.2604  20.2605
    20.2794  20.2795  20.2806  20.2808  20.3910  20.3911  20.4958  20.4960
    20.5065  20.5066  20.6376  20.6378  20.6721  20.6722  20.7510  20.7511
    20.8073  20.8075  20.8542  20.8544  20.9579  20.9580  21.0961  21.0962
    21.6047  21.6047  21.6445  21.6445  22.3405  22.3408  23.2948  23.2952
    24.6231  24.6234

          k = 0.1669-0.5006-0.5006 ( 11280 PWs)   bands (ev):

   -66.6387 -66.6386 -66.6384 -66.6382 -66.5947 -66.5947 -66.5945 -66.5942
   -66.5679 -66.5679 -66.5677 -66.5674 -66.5387 -66.5386 -66.5384 -66.5381
   -32.9068 -32.9068 -32.9068 -32.9066 -32.8930 -32.8930 -32.8929 -32.8929
   -32.8738 -32.8738 -32.8737 -32.8737 -32.7450 -32.7449 -32.7447 -32.7446
   -32.7236 -32.7236 -32.7236 -32.7234 -32.7229 -32.7228 -32.7223 -32.7223
   -32.6010 -32.6009 -32.6006 -32.6006 -32.5935 -32.5935 -32.5935 -32.5933
   -32.5048 -32.5048 -32.5045 -32.5043 -32.4835 -32.4835 -32.4833 -32.4833
   -32.4709 -32.4708 -32.4707 -32.4707 -32.4208 -32.4208 -32.4208 -32.4206
    14.0746  14.0748  14.0749  14.0752  16.1563  16.1564  16.1566  16.1566
    16.5783  16.5783  16.5785  16.5787  16.8139  16.8141  16.8142  16.8142
    17.1211  17.1211  17.1213  17.1214  17.3965  17.3965  17.3966  17.3967
    17.5446  17.5447  17.5448  17.5448  17.8887  17.8888  17.8888  17.8891
    18.0088  18.0091  18.0091  18.0092  18.0950  18.0952  18.0952  18.0954
    18.3436  18.3436  18.3436  18.3440  18.8127  18.8128  18.8130  18.8130
    20.2078  20.2078  20.2079  20.2082  20.2853  20.2853  20.2854  20.2856
    20.3934  20.3934  20.3936  20.3936  20.4031  20.4031  20.4032  20.4033
    20.4313  20.4317  20.4319  20.4319  20.6207  20.6207  20.6209  20.6211
    20.8308  20.8309  20.8312  20.8313  21.0029  21.0029  21.0031  21.0033
    21.6544  21.6545  21.6546  21.6546  22.8142  22.8147  22.8147  22.8148
    25.1460  25.1464

          k = 0.2781 0.2781 0.2781 ( 11299 PWs)   bands (ev):

   -66.6702 -66.6237 -66.6237 -66.6233 -66.5989 -66.5989 -66.5985 -66.5843
   -66.5688 -66.5655 -66.5655 -66.5650 -66.5517 -66.5517 -66.5513 -66.5157
   -32.9439 -32.9439 -32.9439 -32.8927 -32.8926 -32.8926 -32.8761 -32.8760
   -32.8760 -32.8755 -32.8375 -32.8375 -32.8052 -32.8052 -32.7512 -32.7507
   -32.7507 -32.7255 -32.7255 -32.7255 -32.6968 -32.6855 -32.6852 -32.6852
   -32.5781 -32.5770 -32.5768 -32.5768 -32.5754 -32.5751 -32.5751 -32.5689
   -32.5689 -32.5368 -32.5367 -32.5367 -32.4987 -32.4818 -32.4816 -32.4816
   -32.4559 -32.4559 -32.4558 -32.4384 -32.4383 -32.4383 -32.4325 -32.4325
    12.7287  14.6818  14.6818  14.6819  15.6382  15.6382  15.6382  16.3143
    16.3145  16.3145  16.3511  16.3511  16.7238  16.7239  16.7239  16.9299
    17.1361  17.1363  17.1363  17.1563  17.3578  17.3578  17.5530  17.5531
    17.5531  17.7261  17.7261  17.7569  17.7569  17.7569  18.0971  18.0973
    18.0973  18.2522  18.2522  18.2524  18.3615  18.3616  18.3616  18.4176
    18.4176  18.5619  18.5619  18.5620  18.6951  18.6954  18.6954  19.6201
    19.8077  19.9011  19.9012  19.9012  20.1268  20.1270  20.1270  20.2713
    20.2713  20.2713  20.4383  20.4383  20.4709  20.4710  20.4710  20.6107
    20.6111  20.6111  20.7356  20.7356  20.7357  20.7360  20.7360  20.7643
    20.7643  21.0161  21.0162  21.0162  21.2511  21.2511  21.2513  21.3153
    21.3153  21.3796  21.3799  21.3799  22.1363  22.1365  22.1365  24.4398
    24.5676  24.5677

          k = 0.2781 0.2781 0.3894 ( 11312 PWs)   bands (ev):

   -66.6614 -66.6377 -66.6190 -66.6187 -66.6062 -66.6060 -66.5960 -66.5885
   -66.5674 -66.5656 -66.5608 -66.5605 -66.5539 -66.5536 -66.5400 -66.5219
   -32.9299 -32.9299 -32.9187 -32.8916 -32.8916 -32.8888 -32.8802 -32.8768
   -32.8598 -32.8597 -32.8564 -32.8485 -32.8172 -32.7858 -32.7856 -32.7773
   -32.7602 -32.7282 -32.7282 -32.7145 -32.7073 -32.7053 -32.7052 -32.6662
   -32.6181 -32.6048 -32.5798 -32.5771 -32.5616 -32.5614 -32.5478 -32.5477
   -32.5418 -32.5417 -32.5279 -32.5038 -32.5005 -32.5004 -32.4882 -32.4798
   -32.4617 -32.4509 -32.4486 -32.4485 -32.4424 -32.4392 -32.4391 -32.4304
    13.0986  14.1051  14.9333  14.9333  15.4491  15.4491  15.9589  16.4819
    16.4820  16.4977  16.5144  16.5478  16.7512  16.7513  16.7613  16.7766
    16.9004  16.9202  17.2668  17.2669  17.3868  17.4954  17.5583  17.5593
    17.6163  17.6520  17.6521  17.8317  17.8317  17.8934  17.9435  17.9437
    18.0883  18.0884  18.1498  18.1499  18.1956  18.1991  18.2137  18.2292
    18.3023  18.3024  18.3051  18.3577  18.4338  18.4340  18.8485  19.4354
    19.8602  20.0397  20.0749  20.0749  20.1804  20.1805  20.2212  20.2212
    20.3259  20.3836  20.3881  20.3922  20.3922  20.4179  20.5244  20.5379
    20.6666  20.6775  20.7397  20.7403  20.7421  20.7421  20.7765  20.7766
    20.7981  20.8328  21.0117  21.1332  21.1469  21.1471  21.2889  21.2890
    21.3559  21.3954  21.3956  21.4018  21.7802  21.7804  22.6818  23.8381
    24.9036  24.9036

          k = 0.2781 0.2781-0.5006 ( 11298 PWs)   bands (ev):

   -66.6506 -66.6504 -66.6133 -66.6129 -66.6127 -66.6125 -66.5925 -66.5923
   -66.5664 -66.5662 -66.5572 -66.5568 -66.5566 -66.5564 -66.5301 -66.5299
   -32.9111 -32.9110 -32.9110 -32.9110 -32.8868 -32.8866 -32.8842 -32.8840
   -32.8699 -32.8697 -32.8234 -32.8233 -32.8230 -32.8228 -32.7912 -32.7910
   -32.7466 -32.7465 -32.7206 -32.7205 -32.7205 -32.7204 -32.6624 -32.6623
   -32.6353 -32.6352 -32.5803 -32.5801 -32.5499 -32.5497 -32.5497 -32.5496
   -32.5229 -32.5228 -32.5225 -32.5223 -32.4919 -32.4917 -32.4820 -32.4819
   -32.4749 -32.4747 -32.4426 -32.4425 -32.4425 -32.4424 -32.4339 -32.4338
    13.5656  13.5659  15.2046  15.2047  15.2049  15.2050  16.3504  16.3507
    16.6410  16.6410  16.6411  16.6413  16.6710  16.6712  16.6835  16.6838
    16.7836  16.7838  17.4362  17.4365  17.5215  17.5218  17.5579  17.5580
    17.5583  17.5584  17.7876  17.7877  17.7879  17.7881  17.8534  17.8535
    18.0671  18.0673  18.1569  18.1572  18.1573  18.1573  18.2039  18.2041
    18.2042  18.2042  18.2327  18.2330  18.2845  18.2847  19.1033  19.1033
    20.1186  20.1189  20.1883  20.1885  20.1967  20.1968  20.1969  20.1970
    20.2489  20.2489  20.2490  20.2491  20.5585  20.5587  20.5930  20.5932
    20.6556  20.6558  20.6912  20.6914  20.7415  20.7417  20.7779  20.7780
    20.7782  20.7782  20.9514  20.9515  21.3535  21.3535  21.3535  21.3537
    21.4117  21.4117  21.4421  21.4425  21.4426  21.4427  23.2540  23.2544
    25.1765  25.1767

          k = 0.2781 0.3894 0.3894 ( 11321 PWs)   bands (ev):

   -66.6535 -66.6318 -66.6315 -66.6156 -66.6144 -66.6028 -66.6025 -66.5935
   -66.5648 -66.5617 -66.5614 -66.5556 -66.5538 -66.5436 -66.5433 -66.5274
   -32.9195 -32.9071 -32.9070 -32.8907 -32.8880 -32.8879 -32.8749 -32.8638
   -32.8637 -32.8626 -32.8530 -32.8237 -32.8138 -32.8094 -32.7867 -32.7623
   -32.7622 -32.7445 -32.7443 -32.7440 -32.7361 -32.7360 -32.7312 -32.6579
   -32.6349 -32.5755 -32.5753 -32.5622 -32.5621 -32.5615 -32.5446 -32.5392
   -32.5256 -32.5226 -32.5138 -32.5097 -32.5095 -32.4915 -32.4914 -32.4850
   -32.4605 -32.4600 -32.4600 -32.4525 -32.4397 -32.4396 -32.4370 -32.4337
    13.4543  14.4049  14.4050  15.1200  15.2070  15.7704  15.7704  16.5324
    16.6109  16.6275  16.6977  16.7176  16.7177  16.7971  16.7972  16.9370
    17.0021  17.0902  17.0903  17.2198  17.4598  17.5278  17.5283  17.5843
    17.5844  17.6391  17.6392  17.7154  17.7321  17.8260  17.8268  17.9932
    17.9952  17.9953  18.0021  18.0022  18.0137  18.0139  18.0471  18.1422
    18.1424  18.1709  18.1867  18.2168  18.2667  18.5290  18.5292  19.0651
    20.1302  20.1818  20.1818  20.1997  20.2446  20.3144  20.3614  20.3873
    20.3875  20.3961  20.3971  20.3971  20.4562  20.4564  20.5228  20.6170
    20.6574  20.6609  20.6611  20.6753  20.7245  20.7367  20.7369  20.7885
    20.7962  20.7964  20.8500  20.8972  21.1515  21.1517  21.1857  21.3647
    21.3648  21.3673  21.4121  21.4309  21.4816  22.2632  22.2634  23.2948
    25.3265  25.8980

          k = 0.2781 0.3894-0.5006 ( 11310 PWs)   bands (ev):

   -66.6435 -66.6433 -66.6243 -66.6241 -66.6090 -66.6088 -66.5985 -66.5983
   -66.5630 -66.5628 -66.5583 -66.5581 -66.5481 -66.5479 -66.5346 -66.5344
   -32.9040 -32.9039 -32.8961 -32.8960 -32.8793 -32.8792 -32.8772 -32.8771
   -32.8691 -32.8689 -32.8367 -32.8366 -32.7918 -32.7916 -32.7842 -32.7842
   -32.7659 -32.7657 -32.7514 -32.7513 -32.7472 -32.7471 -32.7009 -32.7008
   -32.6045 -32.6044 -32.5614 -32.5613 -32.5507 -32.5506 -32.5477 -32.5476
   -32.5216 -32.5214 -32.5068 -32.5067 -32.4862 -32.4862 -32.4861 -32.4860
   -32.4820 -32.4817 -32.4567 -32.4566 -32.4373 -32.4373 -32.4350 -32.4349
    13.8991  13.8994  14.7573  14.7576  15.5055  15.5058  16.1526  16.1529
    16.7252  16.7255  16.7362  16.7364  16.8817  16.8819  16.9007  16.9009
    16.9426  16.9427  17.3930  17.3932  17.4196  17.4198  17.4989  17.4991
    17.5163  17.5165  17.7018  17.7019  17.7192  17.7192  17.8531  17.8533
    17.9037  17.9039  17.9254  17.9256  18.0439  18.0441  18.0843  18.0845
    18.1194  18.1196  18.1938  18.1940  18.2552  18.2553  18.7479  18.7480
    20.2892  20.2895  20.3127  20.3129  20.3166  20.3167  20.3364  20.3365
    20.3759  20.3760  20.4185  20.4188  20.5363  20.5365  20.5520  20.5522
    20.6108  20.6110  20.6414  20.6416  20.6775  20.6777  20.7302  20.7304
    20.7639  20.7641  20.9633  20.9633  21.0704  21.0706  21.1517  21.1518
    21.3890  21.3890  21.4100  21.4101  21.8644  21.8647  22.7720  22.7724
    25.7104  25.7107

          k = 0.2781-0.5006-0.5006 ( 11324 PWs)   bands (ev):

   -66.6347 -66.6346 -66.6344 -66.6342 -66.6042 -66.6041 -66.6039 -66.6037
   -66.5604 -66.5604 -66.5602 -66.5599 -66.5408 -66.5408 -66.5406 -66.5403
   -32.8912 -32.8912 -32.8912 -32.8911 -32.8828 -32.8828 -32.8826 -32.8826
   -32.8526 -32.8526 -32.8525 -32.8524 -32.7767 -32.7767 -32.7765 -32.7765
   -32.7655 -32.7655 -32.7655 -32.7653 -32.7427 -32.7426 -32.7423 -32.7423
   -32.5753 -32.5752 -32.5750 -32.5750 -32.5529 -32.5529 -32.5529 -32.5527
   -32.4985 -32.4985 -32.4982 -32.4981 -32.4945 -32.4945 -32.4944 -32.4943
   -32.4727 -32.4727 -32.4726 -32.4726 -32.4354 -32.4354 -32.4353 -32.4352
    14.3078  14.3079  14.3081  14.3083  15.8454  15.8456  15.8457  15.8458
    16.7548  16.7548  16.7550  16.7552  17.0505  17.0506  17.0507  17.0507
    17.1550  17.1550  17.1552  17.1553  17.3521  17.3521  17.3523  17.3523
    17.6140  17.6142  17.6142  17.6143  17.7514  17.7516  17.7516  17.7519
    17.9262  17.9263  17.9263  17.9265  17.9494  17.9497  17.9497  17.9497
    18.1372  18.1372  18.1373  18.1376  18.4496  18.4497  18.4499  18.4499
    20.3485  20.3486  20.3487  20.3489  20.4398  20.4399  20.4400  20.4401
    20.4781  20.4782  20.4782  20.4785  20.5010  20.5011  20.5011  20.5012
    20.6032  20.6033  20.6034  20.6036  20.7356  20.7361  20.7362  20.7362
    20.7455  20.7456  20.7458  20.7460  21.0163  21.0163  21.0165  21.0167
    21.4137  21.4139  21.4139  21.4139  22.3113  22.3118  22.3118  22.3119
    26.2410  26.2412

          k = 0.3894 0.3894 0.3894 ( 11323 PWs)   bands (ev):

   -66.6462 -66.6263 -66.6263 -66.6259 -66.6115 -66.6115 -66.6110 -66.6000
   -66.5610 -66.5556 -66.5556 -66.5552 -66.5465 -66.5465 -66.5461 -66.5321
   -32.8953 -32.8953 -32.8953 -32.8813 -32.8812 -32.8812 -32.8631 -32.8410
   -32.8410 -32.8355 -32.8354 -32.8354 -32.8277 -32.8277 -32.7808 -32.7807
   -32.7807 -32.7729 -32.7725 -32.7725 -32.7644 -32.7643 -32.7643 -32.6942
   -32.6046 -32.5499 -32.5495 -32.5495 -32.5358 -32.5357 -32.5357 -32.5224
   -32.5224 -32.5096 -32.5095 -32.5095 -32.5074 -32.5072 -32.5072 -32.4883
   -32.4591 -32.4590 -32.4590 -32.4535 -32.4535 -32.4489 -32.4489 -32.4489
    13.8014  14.7142  14.7142  14.7143  15.4476  15.4476  15.4477  16.2354
    16.8012  16.8012  16.8756  16.8757  16.8757  17.0473  17.0474  17.0474
    17.0715  17.0716  17.0716  17.1647  17.5154  17.5154  17.5871  17.5871
    17.6618  17.6619  17.6619  17.6849  17.6850  17.6850  17.7736  17.7738
    17.7738  17.8968  17.8968  17.8970  17.9253  17.9255  17.9255  17.9585
    17.9585  17.9587  18.1102  18.1102  18.2147  18.2150  18.2150  18.6916
    20.2893  20.2894  20.2894  20.4282  20.4576  20.4576  20.4577  20.4595
    20.4595  20.4647  20.4648  20.4648  20.5245  20.5248  20.5248  20.6393
    20.6393  20.6688  20.6691  20.6691  20.6871  20.6872  20.6872  20.7701
    20.7701  21.0793  21.0793  21.0921  21.0924  21.0924  21.1679  21.1682
    21.1682  21.2157  21.2157  21.2159  21.8474  21.8478  21.8478  22.7888
    26.5718  26.5718

          k = 0.3894 0.3894-0.5006 ( 11344 PWs)   bands (ev):

   -66.6371 -66.6369 -66.6197 -66.6194 -66.6191 -66.6190 -66.6062 -66.6060
   -66.5580 -66.5578 -66.5508 -66.5504 -66.5502 -66.5500 -66.5386 -66.5384
   -32.8838 -32.8838 -32.8837 -32.8837 -32.8647 -32.8645 -32.8643 -32.8642
   -32.8491 -32.8490 -32.8136 -32.8134 -32.8042 -32.8041 -32.8038 -32.8036
   -32.7976 -32.7975 -32.7818 -32.7818 -32.7817 -32.7817 -32.7333 -32.7333
   -32.5763 -32.5762 -32.5300 -32.5298 -32.5270 -32.5268 -32.5265 -32.5263
   -32.5176 -32.5176 -32.5175 -32.5174 -32.4957 -32.4956 -32.4882 -32.4880
   -32.4793 -32.4790 -32.4563 -32.4563 -32.4562 -32.4562 -32.4496 -32.4495
    14.2318  14.2321  15.0777  15.0778  15.0780  15.0782  15.8389  15.8392
    16.9286  16.9289  16.9785  16.9787  16.9934  16.9934  16.9935  16.9937
    17.1365  17.1367  17.3678  17.3679  17.3681  17.3682  17.5439  17.5441
    17.5857  17.5860  17.6412  17.6414  17.6622  17.6623  17.7768  17.7769
    17.7771  17.7773  17.8912  17.8915  17.8917  17.8917  17.9527  17.9530
    17.9531  17.9531  18.0005  18.0007  18.0208  18.0211  18.3836  18.3837
    20.3793  20.3796  20.3986  20.3986  20.3988  20.3988  20.5277  20.5278
    20.5278  20.5279  20.5492  20.5494  20.5730  20.5732  20.6379  20.6380
    20.6569  20.6571  20.6622  20.6623  20.6625  20.6625  20.7475  20.7478
    20.7868  20.7870  20.9411  20.9412  21.1648  21.1648  21.1648  21.1650
    21.1844  21.1845  21.4606  21.4611  21.4612  21.4612  22.3099  22.3103
    26.8835  26.8837

          k = 0.3894-0.5006-0.5006 ( 11300 PWs)   bands (ev):

   -66.6289 -66.6289 -66.6287 -66.6284 -66.6133 -66.6133 -66.6131 -66.6128
   -66.5538 -66.5538 -66.5536 -66.5533 -66.5440 -66.5439 -66.5437 -66.5435
   -32.8681 -32.8681 -32.8681 -32.8680 -32.8642 -32.8642 -32.8641 -32.8640
   -32.8265 -32.8264 -32.8263 -32.8263 -32.8087 -32.8087 -32.8085 -32.8085
   -32.8042 -32.8042 -32.8042 -32.8040 -32.7686 -32.7685 -32.7682 -32.7682
   -32.5503 -32.5502 -32.5500 -32.5500 -32.5161 -32.5161 -32.5161 -32.5159
   -32.5092 -32.5092 -32.5090 -32.5090 -32.4909 -32.4908 -32.4907 -32.4905
   -32.4772 -32.4772 -32.4771 -32.4770 -32.4563 -32.4563 -32.4563 -32.4561
    14.6373  14.6374  14.6376  14.6378  15.4566  15.4567  15.4569  15.4570
    16.9955  16.9955  16.9957  16.9959  17.2006  17.2006  17.2008  17.2009
    17.2852  17.2853  17.2854  17.2854  17.3038  17.3039  17.3040  17.3041
    17.6949  17.6951  17.6951  17.6952  17.7109  17.7112  17.7112  17.7113
    17.7134  17.7135  17.7135  17.7138  17.8711  17.8713  17.8714  17.8714
    17.9357  17.9358  17.9358  17.9361  18.0846  18.0848  18.0849  18.0849
    20.4349  20.4349  20.4351  20.4353  20.4904  20.4905  20.4906  20.4907
    20.5756  20.5756  20.5758  20.5760  20.6446  20.6447  20.6449  20.6451
    20.6607  20.6609  20.6609  20.6610  20.7096  20.7096  20.7096  20.7099
    20.9798  20.9798  20.9799  20.9801  21.0942  21.0947  21.0948  21.0948
    21.1394  21.1395  21.1395  21.1396  21.8769  21.8774  21.8774  21.8775
    27.4370  27.4374

          k =-0.5006-0.5006-0.5006 ( 11296 PWs)   bands (ev):

   -66.6221 -66.6220 -66.6220 -66.6214 -66.6214 -66.6214 -66.6211 -66.6211
   -66.5485 -66.5485 -66.5485 -66.5479 -66.5479 -66.5479 -66.5476 -66.5476
   -32.8390 -32.8390 -32.8389 -32.8388 -32.8388 -32.8388 -32.8386 -32.8386
   -32.8384 -32.8384 -32.8384 -32.8382 -32.8382 -32.8382 -32.8382 -32.8382
   -32.7982 -32.7978 -32.7978 -32.7978 -32.7977 -32.7973 -32.7973 -32.7973
   -32.5279 -32.5275 -32.5275 -32.5275 -32.5275 -32.5270 -32.5270 -32.5270
   -32.4841 -32.4841 -32.4841 -32.4838 -32.4838 -32.4838 -32.4838 -32.4838
   -32.4836 -32.4836 -32.4836 -32.4833 -32.4833 -32.4833 -32.4833 -32.4833
    15.0346  15.0348  15.0348  15.0349  15.0350  15.0351  15.0351  15.0354
    17.2519  17.2519  17.2519  17.2521  17.2521  17.2521  17.2521  17.2521
    17.2522  17.2522  17.2523  17.2524  17.2524  17.2524  17.2527  17.2527
    17.7656  17.7663  17.7663  17.7663  17.7664  17.7666  17.7666  17.7666
    17.7826  17.7826  17.7828  17.7828  17.7828  17.7831  17.7831  17.7832
    17.7832  17.7832  17.7832  17.7833  17.7833  17.7833  17.7836  17.7836
    20.5368  20.5368  20.5368  20.5369  20.5369  20.5369  20.5373  20.5374
    20.5374  20.5374  20.5375  20.5375  20.5375  20.5376  20.5376  20.5376
    20.8788  20.8788  20.8788  20.8789  20.8789  20.8791  20.8791  20.8791
    20.8792  20.8792  20.8792  20.8794  20.8794  20.8794  20.8796  20.8797
    21.4754  21.4765  21.4765  21.4765  21.4766  21.4766  21.4766  21.4767
    28.6083  28.6084

     the Fermi energy is    20.6044 ev

!    total energy              =   -5267.70558788 Ry
     Harris-Foulkes estimate   =   -5267.70562140 Ry
     estimated scf accuracy    <       0.00004422 Ry

     total all-electron energy =    -40728.450117 Ry

     The total energy is the sum of the following terms:

     one-electron contribution =   -1614.59290820 Ry
     hartree contribution      =     987.38599435 Ry
     xc contribution           =    -443.06571297 Ry
     ewald contribution        =   -2872.54093209 Ry
     one-center paw contrib.   =   -1324.76228149 Ry
     smearing contrib. (-TS)   =      -0.12974747 Ry

     convergence has been achieved in  10 iterations

     Forces acting on atoms (cartesian axes, Ry/au):

     atom    1 type  1   force =     0.00000000    0.00000000    0.00000000
     atom    2 type  1   force =     0.00011526    0.00011526    0.00011526
     atom    3 type  1   force =     0.00000000    0.00000000    0.00000000
     atom    4 type  1   force =     0.00011526    0.00011526   -0.00011526
     atom    5 type  1   force =     0.00000000    0.00000000    0.00000000
     atom    6 type  1   force =     0.00011526   -0.00011526    0.00011526
     atom    7 type  1   force =     0.00000000    0.00000000    0.00000000
     atom    8 type  1   force =     0.00011526   -0.00011526   -0.00011526
     atom    9 type  1   force =     0.00000000    0.00000000    0.00000000
     atom   10 type  1   force =    -0.00011526    0.00011526    0.00011526
     atom   11 type  1   force =     0.00000000    0.00000000    0.00000000
     atom   12 type  1   force =    -0.00011526    0.00011526   -0.00011526
     atom   13 type  1   force =     0.00000000    0.00000000    0.00000000
     atom   14 type  1   force =    -0.00011526   -0.00011526    0.00011526
     atom   15 type  1   force =     0.00000000   -0.00000000    0.00000000
     atom   16 type  1   force =    -0.00011526   -0.00011526   -0.00011526

     Total force =     0.000565     Total SCF correction =     0.000578
     SCF correction compared to forces is large: reduce conv_thr to get better values


     Computing stress (Cartesian axis) and pressure

          total   stress  (Ry/bohr**3)                   (kbar)     P=   53.66
   0.00036479   0.00000000   0.00000000         53.66      0.00      0.00
   0.00000000   0.00036479   0.00000000          0.00     53.66      0.00
   0.00000000   0.00000000   0.00036479          0.00      0.00     53.66


     Writing output data file kNetSnDNTygriMhY.save/
 
     init_run     :      3.23s CPU      3.43s WALL (       1 calls)
     electrons    :    113.52s CPU    117.49s WALL (       1 calls)
     forces       :      1.13s CPU      1.25s WALL (       1 calls)
     stress       :      2.76s CPU      2.79s WALL (       1 calls)

     Called by init_run:
     wfcinit      :      2.94s CPU      3.05s WALL (       1 calls)
     potinit      :      0.09s CPU      0.12s WALL (       1 calls)
     hinit0       :      0.13s CPU      0.15s WALL (       1 calls)

     Called by electrons:
     c_bands      :    101.93s CPU    105.01s WALL (      11 calls)
     sum_band     :     10.64s CPU     11.27s WALL (      11 calls)
     v_of_rho     :      0.08s CPU      0.17s WALL (      11 calls)
     newd         :      0.15s CPU      0.20s WALL (      11 calls)
     PAW_pot      :      0.76s CPU      0.83s WALL (      11 calls)
     mix_rho      :      0.02s CPU      0.05s WALL (      11 calls)

     Called by c_bands:
     init_us_2    :      0.56s CPU      0.57s WALL (     875 calls)
     cegterg      :     99.26s CPU    102.31s WALL (     385 calls)

     Called by sum_band:
     sum_band:bec :      0.15s CPU      0.16s WALL (     385 calls)
     addusdens    :      0.15s CPU      0.20s WALL (      11 calls)

     Called by *egterg:
     h_psi        :     42.52s CPU     44.46s WALL (    1335 calls)
     s_psi        :      2.30s CPU      2.31s WALL (    1335 calls)
     g_psi        :      0.09s CPU      0.09s WALL (     915 calls)
     cdiaghg      :     45.92s CPU     46.06s WALL (    1265 calls)

     Called by h_psi:
     h_psi:pot    :     42.31s CPU     44.24s WALL (    1335 calls)
     h_psi:calbec :      3.48s CPU      4.05s WALL (    1335 calls)
     vloc_psi     :     36.48s CPU     37.83s WALL (    1335 calls)
     add_vuspsi   :      2.34s CPU      2.36s WALL (    1335 calls)

     General routines
     calbec       :      5.74s CPU      6.69s WALL (    1895 calls)
     fft          :      0.09s CPU      0.25s WALL (     168 calls)
     ffts         :      0.01s CPU      0.04s WALL (      22 calls)
     fftw         :     42.39s CPU     43.92s WALL (  327092 calls)
     interpolate  :      0.01s CPU      0.03s WALL (      11 calls)
 
     Parallel routines
     fft_scatt_xy :      2.83s CPU      2.91s WALL (  327282 calls)
     fft_scatt_yz :     28.47s CPU     29.75s WALL (  327282 calls)
 
     PWSCF        :  2m 3.47s CPU     2m10.98s WALL

 
   This run was terminated on:   6:15:50   5Sep2020            

=------------------------------------------------------------------------------=
   JOB DONE.
=------------------------------------------------------------------------------=
