--------------------------------------------------------------------------
WARNING: There was an error initializing an OpenFabrics device.

  Local host:   bear-pg0211u07b
  Local device: mlx5_0
--------------------------------------------------------------------------

     Program PWSCF v.6.3 starts on  5Sep2020 at  6:11:28 

     This program is part of the open-source Quantum ESPRESSO suite
     for quantum simulation of materials; please cite
         "P. Giannozzi et al., J. Phys.:Condens. Matter 21 395502 (2009);
         "P. Giannozzi et al., J. Phys.:Condens. Matter 29 465901 (2017);
          URL http://www.quantum-espresso.org", 
     in publications or presentations arising from this work. More details at
     http://www.quantum-espresso.org/quote

     Parallel version (MPI & OpenMP), running on      40 processor cores
     Number of MPI processes:                40
     Threads/MPI process:                     1

     MPI processes distributed on     1 nodes
     R & G space division:  proc/nbgrp/npool/nimage =      40
     Reading input from wd/eos/eos_003.in
Warning: card &IONS ignored
Warning: card ION_DYNAMICS = 'BFGS', ignored
Warning: card / ignored
Warning: card &CELL ignored
Warning: card CELL_DYNAMICS = 'BFGS', ignored
Warning: card CELL_FACTOR = 2.0, ignored
Warning: card PRESS = 0.0, ignored
Warning: card / ignored

     Current dimensions of program PWSCF are:
     Max number of different atomic species (ntypx) = 10
     Max number of k-points (npk) =  40000
     Max angular momentum in pseudopotentials (lmaxx) =  3
               file Fe.pbe-spn-kjpaw_psl.1.0.0.UPF: wavefunction(s)  3P 3D renormalized

     Subspace diagonalization in iterative solution of the eigenvalue problem:
     a serial algorithm will be used

 
     Parallelization info
     --------------------
     sticks:   dense  smooth     PW     G-vecs:    dense   smooth      PW
     Min          92      60     17                 4196     2243     334
     Max          93      62     18                 4199     2247     341
     Sum        3697    2425    681               167901    89775   13517
 


     bravais-lattice index     =            0
     lattice parameter (alat)  =      10.3915  a.u.
     unit-cell volume          =    1113.7026 (a.u.)^3
     number of atoms/cell      =           16
     number of atomic types    =            1
     number of electrons       =       256.00
     number of Kohn-Sham states=          154
     kinetic-energy cutoff     =      71.0000  Ry
     charge density cutoff     =     430.0000  Ry
     convergence threshold     =      5.0E-05
     mixing beta               =       0.1000
     number of iterations used =           10  plain     mixing
     Exchange-correlation      = SLA PW PBX PBC ( 1  4  3  4 0 0)

     celldm(1)=  10.391466  celldm(2)=   0.000000  celldm(3)=   0.000000
     celldm(4)=   0.000000  celldm(5)=   0.000000  celldm(6)=   0.000000

     crystal axes: (cart. coord. in units of alat)
               a(1) = (   0.997500   0.000000   0.000000 )  
               a(2) = (   0.000000   0.997500   0.000000 )  
               a(3) = (   0.000000   0.000000   0.997500 )  

     reciprocal axes: (cart. coord. in units 2 pi/alat)
               b(1) = (  1.002506  0.000000  0.000000 )  
               b(2) = (  0.000000  1.002506  0.000000 )  
               b(3) = (  0.000000  0.000000  1.002506 )  


     PseudoPot. # 1 for Fe read from file:
     /rds/homes/b/bxp912/pp/Fe.pbe-spn-kjpaw_psl.1.0.0.UPF
     MD5 check sum: 42f43b795421b414b0dc916aa790dbcb
     Pseudo is Projector augmented-wave + core cor, Zval = 16.0
     Generated using "atomic" code by A. Dal Corso v.6.3
     Shape of augmentation charge: PSQ
     Using radial grid of 1191 points,  6 beta functions with: 
                l(1) =   0
                l(2) =   0
                l(3) =   1
                l(4) =   1
                l(5) =   2
                l(6) =   2
     Q(r) pseudized with 0 coefficients 


     atomic species   valence    mass     pseudopotential
        Fe            16.00    55.84500     Fe( 1.00)

     48 Sym. Ops., with inversion, found



   Cartesian axes

     site n.     atom                  positions (alat units)
         1           Fe  tau(   1) = (   0.0000000   0.0000000   0.0000000  )
         2           Fe  tau(   2) = (   0.2493839   0.2493839   0.2493839  )
         3           Fe  tau(   3) = (   0.0000000   0.0000000   0.4987495  )
         4           Fe  tau(   4) = (   0.2493839   0.2493839   0.7481161  )
         5           Fe  tau(   5) = (   0.0000000   0.4987501   0.0000000  )
         6           Fe  tau(   6) = (   0.2493839   0.7481162   0.2493839  )
         7           Fe  tau(   7) = (   0.0000000   0.4987501   0.4987495  )
         8           Fe  tau(   8) = (   0.2493839   0.7481162   0.7481161  )
         9           Fe  tau(   9) = (   0.4987501   0.0000000   0.0000000  )
        10           Fe  tau(  10) = (   0.7481162   0.2493839   0.2493839  )
        11           Fe  tau(  11) = (   0.4987501   0.0000000   0.4987495  )
        12           Fe  tau(  12) = (   0.7481162   0.2493839   0.7481161  )
        13           Fe  tau(  13) = (   0.4987501   0.4987501   0.0000000  )
        14           Fe  tau(  14) = (   0.7481162   0.7481162   0.2493839  )
        15           Fe  tau(  15) = (   0.4987501   0.4987501   0.4987495  )
        16           Fe  tau(  16) = (   0.7481162   0.7481162   0.7481161  )

     number of k points=    35  Marzari-Vanderbilt smearing, width (Ry)=  0.0400
                       cart. coord. in units 2pi/alat
        k(    1) = (   0.0556948   0.0556948   0.0556948), wk =   0.0219479
        k(    2) = (   0.0556948   0.0556948   0.1670844), wk =   0.0658436
        k(    3) = (   0.0556948   0.0556948   0.2784740), wk =   0.0658436
        k(    4) = (   0.0556948   0.0556948   0.3898635), wk =   0.0658436
        k(    5) = (   0.0556948   0.0556948  -0.5012531), wk =   0.0329218
        k(    6) = (   0.0556948   0.1670844   0.1670844), wk =   0.0658436
        k(    7) = (   0.0556948   0.1670844   0.2784740), wk =   0.1316872
        k(    8) = (   0.0556948   0.1670844   0.3898635), wk =   0.1316872
        k(    9) = (   0.0556948   0.1670844  -0.5012531), wk =   0.0658436
        k(   10) = (   0.0556948   0.2784740   0.2784740), wk =   0.0658436
        k(   11) = (   0.0556948   0.2784740   0.3898635), wk =   0.1316872
        k(   12) = (   0.0556948   0.2784740  -0.5012531), wk =   0.0658436
        k(   13) = (   0.0556948   0.3898635   0.3898635), wk =   0.0658436
        k(   14) = (   0.0556948   0.3898635  -0.5012531), wk =   0.0658436
        k(   15) = (   0.0556948  -0.5012531  -0.5012531), wk =   0.0164609
        k(   16) = (   0.1670844   0.1670844   0.1670844), wk =   0.0219479
        k(   17) = (   0.1670844   0.1670844   0.2784740), wk =   0.0658436
        k(   18) = (   0.1670844   0.1670844   0.3898635), wk =   0.0658436
        k(   19) = (   0.1670844   0.1670844  -0.5012531), wk =   0.0329218
        k(   20) = (   0.1670844   0.2784740   0.2784740), wk =   0.0658436
        k(   21) = (   0.1670844   0.2784740   0.3898635), wk =   0.1316872
        k(   22) = (   0.1670844   0.2784740  -0.5012531), wk =   0.0658436
        k(   23) = (   0.1670844   0.3898635   0.3898635), wk =   0.0658436
        k(   24) = (   0.1670844   0.3898635  -0.5012531), wk =   0.0658436
        k(   25) = (   0.1670844  -0.5012531  -0.5012531), wk =   0.0164609
        k(   26) = (   0.2784740   0.2784740   0.2784740), wk =   0.0219479
        k(   27) = (   0.2784740   0.2784740   0.3898635), wk =   0.0658436
        k(   28) = (   0.2784740   0.2784740  -0.5012531), wk =   0.0329218
        k(   29) = (   0.2784740   0.3898635   0.3898635), wk =   0.0658436
        k(   30) = (   0.2784740   0.3898635  -0.5012531), wk =   0.0658436
        k(   31) = (   0.2784740  -0.5012531  -0.5012531), wk =   0.0164609
        k(   32) = (   0.3898635   0.3898635   0.3898635), wk =   0.0219479
        k(   33) = (   0.3898635   0.3898635  -0.5012531), wk =   0.0329218
        k(   34) = (   0.3898635  -0.5012531  -0.5012531), wk =   0.0164609
        k(   35) = (  -0.5012531  -0.5012531  -0.5012531), wk =   0.0027435

     Dense  grid:   167901 G-vectors     FFT dimensions: (  72,  72,  72)

     Smooth grid:    89775 G-vectors     FFT dimensions: (  60,  60,  60)

     Estimated max dynamical RAM per process >      56.43 MB

     Estimated total dynamical RAM >       2.20 GB

     Check: negative/imaginary core charge=   -0.000006    0.000000

     Initial potential from superposition of free atoms

     starting charge  255.99300, renormalised to  256.00000
     Starting wfcs are  160 randomized atomic wfcs
     Checking if some PAW data can be deallocated... 

     total cpu time spent up to now is        4.1 secs

     Self-consistent Calculation

     iteration #  1     ecut=    71.00 Ry     beta= 0.10
     Davidson diagonalization with overlap
     ethr =  1.00E-02,  avg # of iterations =  3.4

     Threshold (ethr) on eigenvalues was too large:
     Diagonalizing with lowered threshold

     Davidson diagonalization with overlap
     ethr =  2.59E-04,  avg # of iterations =  2.9

     total cpu time spent up to now is       29.0 secs

     total energy              =   -5267.74953125 Ry
     Harris-Foulkes estimate   =   -5267.86677465 Ry
     estimated scf accuracy    <       0.74353558 Ry

     iteration #  2     ecut=    71.00 Ry     beta= 0.10
     Davidson diagonalization with overlap
     ethr =  2.90E-04,  avg # of iterations =  1.0

     total cpu time spent up to now is       36.6 secs

     total energy              =   -5267.61106154 Ry
     Harris-Foulkes estimate   =   -5267.76494858 Ry
     estimated scf accuracy    <       0.36884028 Ry

     iteration #  3     ecut=    71.00 Ry     beta= 0.10
     Davidson diagonalization with overlap
     ethr =  1.44E-04,  avg # of iterations =  3.2

     total cpu time spent up to now is       50.8 secs

     total energy              =   -5267.69746067 Ry
     Harris-Foulkes estimate   =   -5267.71620965 Ry
     estimated scf accuracy    <       0.42053129 Ry

     iteration #  4     ecut=    71.00 Ry     beta= 0.10
     Davidson diagonalization with overlap
     ethr =  1.44E-04,  avg # of iterations =  1.0

     total cpu time spent up to now is       58.6 secs

     total energy              =   -5267.70081661 Ry
     Harris-Foulkes estimate   =   -5267.70724383 Ry
     estimated scf accuracy    <       0.02889520 Ry

     iteration #  5     ecut=    71.00 Ry     beta= 0.10
     Davidson diagonalization with overlap
     ethr =  1.13E-05,  avg # of iterations =  2.2

     total cpu time spent up to now is       68.6 secs

     total energy              =   -5267.70165628 Ry
     Harris-Foulkes estimate   =   -5267.70329334 Ry
     estimated scf accuracy    <       0.02041940 Ry

     iteration #  6     ecut=    71.00 Ry     beta= 0.10
     Davidson diagonalization with overlap
     ethr =  7.98E-06,  avg # of iterations =  2.6

     total cpu time spent up to now is       79.3 secs

     total energy              =   -5267.70402240 Ry
     Harris-Foulkes estimate   =   -5267.70335300 Ry
     estimated scf accuracy    <       0.01099538 Ry

     iteration #  7     ecut=    71.00 Ry     beta= 0.10
     Davidson diagonalization with overlap
     ethr =  4.30E-06,  avg # of iterations =  2.4

     total cpu time spent up to now is       89.5 secs

     total energy              =   -5267.70284792 Ry
     Harris-Foulkes estimate   =   -5267.70455455 Ry
     estimated scf accuracy    <       0.01310573 Ry

     iteration #  8     ecut=    71.00 Ry     beta= 0.10
     Davidson diagonalization with overlap
     ethr =  4.30E-06,  avg # of iterations =  2.2

     total cpu time spent up to now is       99.3 secs

     total energy              =   -5267.70336305 Ry
     Harris-Foulkes estimate   =   -5267.70369391 Ry
     estimated scf accuracy    <       0.00598026 Ry

     iteration #  9     ecut=    71.00 Ry     beta= 0.10
     Davidson diagonalization with overlap
     ethr =  2.34E-06,  avg # of iterations =  2.2

     total cpu time spent up to now is      109.5 secs

     total energy              =   -5267.70359997 Ry
     Harris-Foulkes estimate   =   -5267.70362031 Ry
     estimated scf accuracy    <       0.00032293 Ry

     iteration # 10     ecut=    71.00 Ry     beta= 0.10
     Davidson diagonalization with overlap
     ethr =  1.26E-07,  avg # of iterations =  3.1

     total cpu time spent up to now is      121.5 secs

     End of self-consistent calculation

          k = 0.0557 0.0557 0.0557 ( 11200 PWs)   bands (ev):

   -66.6121 -66.5094 -66.5094 -66.5090 -66.4922 -66.4922 -66.4918 -66.4912
   -66.4912 -66.4907 -66.4904 -66.4904 -66.4900 -66.4829 -66.4823 -66.4039
   -32.9150 -32.9150 -32.9150 -32.9119 -32.9119 -32.9118 -32.7417 -32.7417
   -32.7351 -32.6645 -32.6615 -32.6612 -32.6612 -32.6382 -32.6382 -32.6254
   -32.6249 -32.6249 -32.5865 -32.5865 -32.5612 -32.5444 -32.5443 -32.5443
   -32.5326 -32.5325 -32.5325 -32.5187 -32.5182 -32.5182 -32.5151 -32.5147
   -32.5147 -32.5075 -32.5074 -32.5074 -32.4964 -32.4964 -32.4963 -32.3280
   -32.3262 -32.3262 -32.3262 -32.3228 -32.3227 -32.3227 -32.3212 -32.3212
    11.6073  15.5099  15.5099  15.5100  15.6128  15.6129  15.6129  15.6387
    15.6387  15.6387  15.8751  15.8751  16.0208  16.0208  16.0208  17.3913
    17.4822  17.4822  17.4879  17.4880  17.4880  17.5018  17.5018  17.5019
    17.6265  17.6265  17.6741  17.9233  17.9235  17.9235  18.3224  18.3228
    18.3228  18.8170  18.8170  18.8650  19.1477  19.1477  19.1479  19.2531
    19.2531  19.2532  19.3419  19.3420  19.3420  19.4383  19.4384  19.4384
    20.1945  20.1949  20.1949  20.4211  20.4213  20.4213  20.4481  20.4482
    20.4482  20.5915  20.5916  20.5916  20.5929  20.5931  20.5931  20.6243
    20.6243  20.8807  20.8807  20.8808  20.8913  20.8916  20.8916  20.9382
    20.9382  20.9386  20.9386  21.4317  21.4319  21.4319  21.6612  21.7140
    21.7141  21.7141  21.7407  21.7407  22.1742  22.1742  22.1742  22.2021
    22.2021  22.2021

          k = 0.0557 0.0557 0.1671 ( 11243 PWs)   bands (ev):

   -66.6085 -66.5276 -66.5086 -66.5083 -66.4943 -66.4940 -66.4915 -66.4909
   -66.4907 -66.4899 -66.4894 -66.4891 -66.4835 -66.4829 -66.4735 -66.4068
   -32.9067 -32.9067 -32.9057 -32.9029 -32.8978 -32.8977 -32.7458 -32.7353
   -32.7255 -32.7025 -32.6935 -32.6934 -32.6907 -32.6900 -32.6586 -32.6584
   -32.6222 -32.5937 -32.5830 -32.5810 -32.5688 -32.5442 -32.5440 -32.5359
   -32.5248 -32.5223 -32.5221 -32.5219 -32.5207 -32.5127 -32.5124 -32.5081
   -32.5079 -32.5035 -32.5034 -32.4715 -32.4687 -32.4684 -32.4612 -32.3435
   -32.3358 -32.3358 -32.3343 -32.3315 -32.3271 -32.3261 -32.3261 -32.3238
    11.7462  14.8784  15.5662  15.5662  15.6246  15.6247  15.7043  15.7044
    15.7146  15.7391  15.9387  15.9406  16.0641  16.0641  16.3525  17.2809
    17.3920  17.4027  17.4694  17.4820  17.5179  17.5269  17.5387  17.5388
    17.5808  17.5808  17.8183  17.8299  17.8781  17.8783  18.2231  18.2233
    18.6810  18.7911  18.8123  18.9286  18.9307  18.9308  18.9967  19.1130
    19.1130  19.1566  19.4315  19.4316  19.5497  19.5498  19.5804  19.6824
    19.8808  19.8809  19.9472  20.1785  20.1787  20.1789  20.3418  20.4277
    20.4279  20.5299  20.5300  20.5498  20.6131  20.6149  20.6151  20.6397
    20.6546  20.6743  20.6743  20.7000  20.8943  20.9161  20.9165  20.9357
    20.9363  21.1138  21.2253  21.2254  21.3964  21.4840  21.5993  21.7225
    21.7225  21.7328  21.7707  21.7708  22.0758  22.0759  22.2477  22.2477
    22.3398  22.3398

          k = 0.0557 0.0557 0.2785 ( 11249 PWs)   bands (ev):

   -66.6014 -66.5456 -66.5070 -66.5067 -66.4967 -66.4965 -66.4906 -66.4905
   -66.4901 -66.4891 -66.4890 -66.4886 -66.4846 -66.4837 -66.4573 -66.4121
   -32.8878 -32.8878 -32.8872 -32.8852 -32.8728 -32.8728 -32.7467 -32.7456
   -32.7396 -32.7364 -32.7363 -32.7222 -32.7133 -32.7102 -32.7042 -32.7041
   -32.6165 -32.6063 -32.6034 -32.5883 -32.5420 -32.5418 -32.5374 -32.5364
   -32.5316 -32.5265 -32.5263 -32.5106 -32.5103 -32.5080 -32.5077 -32.4881
   -32.4798 -32.4674 -32.4673 -32.4377 -32.4345 -32.4343 -32.4281 -32.3697
   -32.3517 -32.3517 -32.3502 -32.3487 -32.3389 -32.3359 -32.3358 -32.3337
    12.0198  14.1993  15.6522  15.6522  15.6646  15.6646  15.8044  15.8044
    15.9102  15.9317  16.0570  16.0705  16.1134  16.1134  16.4925  17.1176
    17.1512  17.1653  17.3485  17.3990  17.4367  17.4474  17.6526  17.6526
    17.7220  17.7220  17.8708  17.8710  18.0748  18.0965  18.1553  18.1555
    18.6370  18.6371  18.7744  18.8009  18.8009  18.8056  18.8403  18.8881
    19.0228  19.2896  19.3113  19.3115  19.5318  19.5320  19.6937  19.6938
    19.7128  19.7324  19.7325  19.7422  19.7901  19.8636  19.9754  20.4032
    20.4287  20.4288  20.5281  20.5283  20.6511  20.6653  20.7123  20.7352
    20.7354  20.8758  20.8767  20.8996  20.9306  20.9328  20.9426  20.9713
    20.9713  20.9832  21.1833  21.2173  21.3456  21.4229  21.4230  21.6595
    21.7376  21.7376  21.8254  21.8254  21.9473  21.9473  22.3303  22.3303
    22.4753  22.4753

          k = 0.0557 0.0557 0.3899 ( 11238 PWs)   bands (ev):

   -66.5911 -66.5627 -66.5048 -66.5045 -66.4994 -66.4992 -66.4899 -66.4896
   -66.4892 -66.4889 -66.4887 -66.4877 -66.4860 -66.4850 -66.4428 -66.4199
   -32.8604 -32.8594 -32.8591 -32.8591 -32.8387 -32.8387 -32.7879 -32.7854
   -32.7806 -32.7806 -32.7516 -32.7516 -32.7449 -32.7293 -32.7030 -32.6900
   -32.6494 -32.6359 -32.5891 -32.5765 -32.5523 -32.5457 -32.5388 -32.5386
   -32.5308 -32.5306 -32.5093 -32.5090 -32.5081 -32.5078 -32.4910 -32.4441
   -32.4397 -32.4321 -32.4320 -32.4067 -32.4043 -32.4020 -32.4019 -32.3979
   -32.3737 -32.3735 -32.3733 -32.3733 -32.3566 -32.3520 -32.3519 -32.3498
    12.4196  13.5352  15.7135  15.7136  15.7229  15.7229  15.9253  15.9254
    16.1130  16.1131  16.1831  16.1997  16.2092  16.2617  16.4771  16.8090
    16.8414  16.8498  17.3424  17.3599  17.3978  17.4066  17.8242  17.8242
    17.9196  17.9196  17.9947  17.9948  18.1945  18.1947  18.3734  18.3735
    18.4060  18.4269  18.4886  18.4886  18.7693  18.7744  18.7746  18.8023
    18.8181  18.8294  18.9535  18.9537  19.1497  19.2650  19.2694  19.4982
    19.6039  19.9340  19.9341  19.9621  19.9622  20.1865  20.1897  20.2925
    20.2926  20.3073  20.3922  20.3924  20.7025  20.7118  20.7955  20.8217
    20.8243  20.8897  20.9070  20.9234  20.9297  20.9422  21.0201  21.0260
    21.0407  21.0408  21.1681  21.2628  21.2628  21.4553  21.4553  21.5348
    21.7146  21.7147  21.7561  21.7561  21.8292  21.8292  22.4300  22.4300
    22.5426  22.5427

          k = 0.0557 0.0557-0.5013 ( 11270 PWs)   bands (ev):

   -66.5781 -66.5779 -66.5025 -66.5021 -66.5019 -66.5018 -66.4896 -66.4893
   -66.4890 -66.4888 -66.4878 -66.4876 -66.4865 -66.4863 -66.4304 -66.4302
   -32.8268 -32.8266 -32.8263 -32.8261 -32.8228 -32.8227 -32.8226 -32.8225
   -32.7975 -32.7975 -32.7973 -32.7973 -32.7399 -32.7397 -32.6787 -32.6785
   -32.6654 -32.6652 -32.5709 -32.5707 -32.5622 -32.5619 -32.5351 -32.5349
   -32.5348 -32.5346 -32.5087 -32.5085 -32.5084 -32.5082 -32.4456 -32.4454
   -32.4060 -32.4058 -32.4040 -32.4037 -32.4005 -32.4003 -32.4001 -32.4001
   -32.3796 -32.3793 -32.3744 -32.3742 -32.3741 -32.3741 -32.3716 -32.3715
    12.9315  12.9319  15.7425  15.7425  15.7427  15.7427  16.0408  16.0408
    16.0409  16.0410  16.3637  16.3639  16.5076  16.5079  16.5096  16.5100
    16.5157  16.5160  17.3621  17.3624  17.3718  17.3722  18.0426  18.0426
    18.0428  18.0429  18.1412  18.1413  18.1414  18.1415  18.3539  18.3540
    18.3541  18.3544  18.5170  18.5171  18.5172  18.5174  18.7811  18.7813
    18.8053  18.8053  18.8091  18.8093  18.8189  18.8189  19.3088  19.3091
    19.9179  19.9182  20.1254  20.1254  20.1255  20.1257  20.2011  20.2011
    20.2012  20.2014  20.5357  20.5359  20.6632  20.6634  20.7612  20.7614
    20.7665  20.7667  20.9000  20.9002  20.9150  20.9153  20.9304  20.9306
    21.3020  21.3022  21.3022  21.3022  21.3679  21.3682  21.5174  21.5175
    21.5176  21.5177  21.7775  21.7776  21.7777  21.7778  22.5149  22.5150
    22.5152  22.5152

          k = 0.0557 0.1671 0.1671 ( 11255 PWs)   bands (ev):

   -66.6049 -66.5264 -66.5261 -66.5076 -66.4993 -66.4937 -66.4934 -66.4905
   -66.4891 -66.4888 -66.4853 -66.4844 -66.4831 -66.4739 -66.4737 -66.4093
   -32.9050 -32.8977 -32.8977 -32.8896 -32.8896 -32.8777 -32.7526 -32.7312
   -32.7268 -32.7210 -32.7209 -32.7131 -32.7093 -32.7058 -32.6803 -32.6333
   -32.6176 -32.6171 -32.5820 -32.5802 -32.5799 -32.5502 -32.5390 -32.5386
   -32.5327 -32.5296 -32.5293 -32.5183 -32.5180 -32.5159 -32.5125 -32.5033
   -32.4936 -32.4803 -32.4729 -32.4726 -32.4483 -32.4351 -32.4350 -32.3647
   -32.3519 -32.3423 -32.3423 -32.3342 -32.3342 -32.3321 -32.3228 -32.3213
    11.8835  14.9537  14.9538  15.5698  15.6290  15.7281  15.7282  15.8039
    15.8039  15.8147  16.0014  16.0060  16.1166  16.3943  16.3943  17.1805
    17.2944  17.4740  17.5171  17.5172  17.5175  17.5176  17.5551  17.5551
    17.5613  17.5933  17.6867  17.8029  17.8178  17.8424  18.1165  18.5038
    18.5041  18.7288  18.7927  18.7928  18.7968  18.8424  18.9885  19.0335
    19.3372  19.3375  19.4048  19.4049  19.4538  19.5141  19.6173  19.7212
    19.7212  19.7293  19.7295  19.9247  19.9247  20.0802  20.1813  20.1818
    20.4212  20.5372  20.5519  20.5519  20.6069  20.6106  20.6107  20.6330
    20.6386  20.8175  20.8664  20.9006  20.9010  20.9160  20.9161  20.9264
    20.9278  21.0321  21.0324  21.2523  21.3636  21.3638  21.3821  21.3821
    21.4954  21.7537  21.7599  21.8931  21.9663  22.3236  22.6500  22.6501
    22.8398  23.0042

          k = 0.0557 0.1671 0.2785 ( 11258 PWs)   bands (ev):

   -66.5981 -66.5438 -66.5236 -66.5061 -66.5047 -66.4960 -66.4925 -66.4900
   -66.4886 -66.4881 -66.4857 -66.4836 -66.4819 -66.4744 -66.4581 -66.4145
   -32.8920 -32.8802 -32.8801 -32.8739 -32.8664 -32.8473 -32.7607 -32.7593
   -32.7575 -32.7456 -32.7434 -32.7414 -32.7189 -32.7159 -32.6890 -32.6644
   -32.6212 -32.6148 -32.5780 -32.5759 -32.5735 -32.5721 -32.5520 -32.5429
   -32.5426 -32.5348 -32.5286 -32.5163 -32.5147 -32.5016 -32.4952 -32.4773
   -32.4748 -32.4601 -32.4513 -32.4396 -32.4220 -32.4040 -32.4037 -32.3966
   -32.3729 -32.3554 -32.3549 -32.3502 -32.3437 -32.3422 -32.3262 -32.3252
    12.1537  14.2933  15.0860  15.5252  15.7273  15.7695  15.9035  15.9269
    15.9545  15.9941  16.1178  16.1341  16.1830  16.4289  16.5412  17.0620
    17.1453  17.1662  17.4109  17.4801  17.5006  17.5107  17.5593  17.6230
    17.6462  17.6829  17.7791  17.8542  17.9691  18.0210  18.0336  18.3719
    18.5304  18.6350  18.6510  18.6716  18.7103  18.7571  18.7795  18.9761
    19.0119  19.1671  19.2037  19.3614  19.4215  19.5030  19.5193  19.5250
    19.6034  19.7031  19.7242  19.7760  19.8076  19.9422  19.9679  20.2960
    20.4246  20.4534  20.4923  20.5293  20.5626  20.5961  20.6341  20.6762
    20.8425  20.8587  20.8602  20.9222  20.9278  20.9486  20.9514  20.9664
    21.0163  21.1276  21.1454  21.1588  21.1684  21.1967  21.2508  21.3531
    21.4726  21.6879  21.7430  21.8238  21.9616  22.4649  22.4875  23.0525
    23.1584  23.2772

          k = 0.0557 0.1671 0.3899 ( 11238 PWs)   bands (ev):

   -66.5880 -66.5603 -66.5199 -66.5101 -66.5039 -66.4986 -66.4910 -66.4894
   -66.4885 -66.4874 -66.4870 -66.4847 -66.4791 -66.4754 -66.4441 -66.4221
   -32.8692 -32.8547 -32.8534 -32.8511 -32.8346 -32.8085 -32.8011 -32.7908
   -32.7845 -32.7828 -32.7625 -32.7564 -32.7544 -32.7148 -32.6999 -32.6651
   -32.6471 -32.6065 -32.6026 -32.5696 -32.5692 -32.5610 -32.5524 -32.5499
   -32.5420 -32.5404 -32.5250 -32.5156 -32.5154 -32.4883 -32.4781 -32.4644
   -32.4383 -32.4347 -32.4279 -32.4221 -32.4094 -32.3990 -32.3961 -32.3763
   -32.3752 -32.3739 -32.3733 -32.3731 -32.3608 -32.3551 -32.3359 -32.3359
    12.5481  13.6444  15.2400  15.4682  15.8127  15.8185  16.0239  16.1136
    16.1999  16.2038  16.2564  16.2702  16.3187  16.3901  16.5333  16.8422
    16.8515  16.8681  17.3786  17.4227  17.4354  17.4598  17.7343  17.7747
    17.7896  17.8473  17.8495  18.0004  18.0742  18.2130  18.2624  18.3236
    18.4299  18.4410  18.5030  18.5120  18.6331  18.6334  18.6780  18.7195
    18.7296  18.7618  18.8442  18.9861  19.0486  19.0504  19.3264  19.7154
    19.7485  19.9103  19.9115  19.9690  19.9717  19.9911  20.1635  20.2387
    20.2618  20.3203  20.3929  20.4359  20.6046  20.6577  20.6817  20.7609
    20.7980  20.8037  20.8083  20.9194  20.9258  20.9349  20.9357  20.9974
    21.0117  21.0459  21.0831  21.2082  21.2145  21.3108  21.3536  21.4546
    21.4606  21.4664  21.6635  21.8637  21.9441  22.3040  22.6476  22.9828
    23.3348  23.4802

          k = 0.0557 0.1671-0.5013 ( 11248 PWs)   bands (ev):

   -66.5753 -66.5751 -66.5154 -66.5152 -66.5015 -66.5012 -66.4894 -66.4892
   -66.4889 -66.4887 -66.4860 -66.4858 -66.4771 -66.4768 -66.4321 -66.4319
   -32.8382 -32.8381 -32.8230 -32.8228 -32.8224 -32.8222 -32.8199 -32.8199
   -32.7972 -32.7971 -32.7635 -32.7635 -32.7614 -32.7612 -32.6759 -32.6757
   -32.6375 -32.6374 -32.5821 -32.5819 -32.5618 -32.5616 -32.5569 -32.5566
   -32.5457 -32.5455 -32.5155 -32.5153 -32.4828 -32.4826 -32.4783 -32.4781
   -32.4298 -32.4297 -32.4030 -32.4028 -32.3988 -32.3986 -32.3958 -32.3957
   -32.3831 -32.3829 -32.3734 -32.3733 -32.3533 -32.3532 -32.3525 -32.3524
    13.0520  13.0524  15.3751  15.3753  15.8431  15.8433  16.1370  16.1371
    16.2709  16.2711  16.4240  16.4242  16.5313  16.5316  16.5566  16.5570
    16.5590  16.5592  17.3959  17.3962  17.4208  17.4211  17.9372  17.9373
    17.9576  17.9577  17.9838  17.9839  18.0509  18.0511  18.3727  18.3728
    18.4174  18.4176  18.4861  18.4863  18.6070  18.6072  18.6184  18.6187
    18.6287  18.6288  18.6696  18.6697  18.7466  18.7468  19.5098  19.5101
    20.0043  20.0046  20.0325  20.0327  20.1561  20.1563  20.2030  20.2032
    20.2418  20.2420  20.2499  20.2500  20.5931  20.5933  20.7276  20.7278
    20.7410  20.7412  20.8684  20.8686  20.9190  20.9192  20.9584  20.9585
    21.0707  21.0708  21.1730  21.1731  21.2852  21.2854  21.3635  21.3636
    21.5297  21.5299  21.6941  21.6942  22.1127  22.1129  22.8347  22.8349
    23.4700  23.4703

          k = 0.0557 0.2785 0.2785 ( 11249 PWs)   bands (ev):

   -66.5915 -66.5402 -66.5400 -66.5129 -66.5046 -66.4950 -66.4947 -66.4895
   -66.4879 -66.4877 -66.4873 -66.4841 -66.4756 -66.4599 -66.4596 -66.4192
   -32.8854 -32.8648 -32.8647 -32.8542 -32.8542 -32.8123 -32.7771 -32.7770
   -32.7744 -32.7725 -32.7636 -32.7609 -32.7373 -32.7070 -32.6634 -32.6226
   -32.6197 -32.6192 -32.6087 -32.6084 -32.5731 -32.5611 -32.5586 -32.5503
   -32.5501 -32.5363 -32.5358 -32.5274 -32.5272 -32.5215 -32.4814 -32.4525
   -32.4440 -32.4436 -32.4368 -32.4329 -32.4296 -32.4048 -32.3986 -32.3764
   -32.3764 -32.3631 -32.3630 -32.3546 -32.3546 -32.3545 -32.3224 -32.3217
    12.4169  14.4686  14.4687  15.3690  15.8513  15.9705  15.9706  16.0919
    16.0919  16.1159  16.2206  16.2680  16.2857  16.5824  16.5824  16.9993
    17.0620  17.2472  17.2472  17.4712  17.5463  17.5711  17.5711  17.6161
    17.6161  17.6818  17.7012  17.8837  17.9149  18.0137  18.0463  18.4229
    18.4231  18.5362  18.5542  18.5545  18.5663  18.5822  18.6336  18.7454
    18.9968  18.9968  19.0622  19.0623  19.2281  19.2669  19.2673  19.3477
    19.7907  19.7908  19.8496  19.8914  19.9406  19.9409  20.1602  20.2452
    20.2456  20.4175  20.5046  20.5046  20.5339  20.5526  20.5527  20.6146
    20.6510  20.8146  20.8162  20.8237  20.9203  20.9302  20.9662  21.0203
    21.0314  21.0317  21.0842  21.1105  21.1106  21.2200  21.2203  21.4024
    21.4025  21.4429  21.7963  21.9906  22.0034  22.7020  23.1238  23.1239
    23.7322  23.7323

          k = 0.0557 0.2785 0.3899 ( 11251 PWs)   bands (ev):

   -66.5820 -66.5557 -66.5349 -66.5210 -66.5025 -66.4974 -66.4932 -66.4893
   -66.4888 -66.4879 -66.4868 -66.4848 -66.4702 -66.4623 -66.4466 -66.4262
   -32.8690 -32.8430 -32.8425 -32.8369 -32.8277 -32.8127 -32.7948 -32.7882
   -32.7876 -32.7856 -32.7822 -32.7701 -32.7660 -32.6892 -32.6708 -32.6390
   -32.6348 -32.6105 -32.5993 -32.5736 -32.5718 -32.5702 -32.5699 -32.5659
   -32.5643 -32.5573 -32.5405 -32.5268 -32.5254 -32.4984 -32.4759 -32.4691
   -32.4502 -32.4285 -32.4237 -32.4157 -32.4135 -32.4084 -32.3880 -32.3753
   -32.3748 -32.3729 -32.3704 -32.3622 -32.3536 -32.3532 -32.3258 -32.3255
    12.7997  13.8538  14.6991  15.1778  15.9707  16.0175  16.2091  16.2480
    16.2808  16.3473  16.3473  16.3556  16.4561  16.5456  16.5893  16.8675
    16.8676  16.9525  17.4495  17.4550  17.4946  17.5109  17.5416  17.6772
    17.6907  17.7304  17.8140  17.8165  18.0767  18.1646  18.1729  18.1861
    18.2987  18.4010  18.4086  18.4719  18.4827  18.5134  18.5993  18.6217
    18.6423  18.7061  18.7101  18.7237  18.8629  18.9192  19.5488  19.5642
    19.9332  19.9479  20.0043  20.0416  20.0450  20.0522  20.0551  20.1489
    20.2550  20.3105  20.3798  20.4203  20.4442  20.5616  20.5783  20.6053
    20.7056  20.7262  20.7458  20.7505  20.8562  20.9261  20.9428  20.9481
    20.9687  21.0412  21.0485  21.0705  21.0785  21.1550  21.1766  21.2429
    21.5769  21.6379  21.7843  21.9424  22.2605  22.8501  22.9938  23.5524
    23.8059  24.4323

          k = 0.0557 0.2785-0.5013 ( 11254 PWs)   bands (ev):

   -66.5700 -66.5698 -66.5285 -66.5283 -66.5001 -66.4999 -66.4914 -66.4912
   -66.4884 -66.4882 -66.4859 -66.4857 -66.4659 -66.4657 -66.4355 -66.4353
   -32.8442 -32.8441 -32.8166 -32.8165 -32.8164 -32.8164 -32.8157 -32.8156
   -32.7973 -32.7972 -32.7872 -32.7870 -32.7221 -32.7221 -32.6662 -32.6660
   -32.6033 -32.6032 -32.5916 -32.5914 -32.5875 -32.5873 -32.5625 -32.5624
   -32.5548 -32.5546 -32.5268 -32.5267 -32.5230 -32.5230 -32.4621 -32.4620
   -32.4588 -32.4586 -32.3964 -32.3963 -32.3926 -32.3925 -32.3910 -32.3908
   -32.3900 -32.3900 -32.3734 -32.3734 -32.3363 -32.3363 -32.3360 -32.3359
    13.2862  13.2866  14.9477  14.9480  16.0293  16.0295  16.3124  16.3126
    16.4330  16.4332  16.4945  16.4947  16.5671  16.5674  16.6289  16.6291
    16.6864  16.6867  17.4613  17.4615  17.4881  17.4883  17.7556  17.7558
    17.7778  17.7780  17.7861  17.7863  17.9784  17.9785  18.3664  18.3665
    18.3912  18.3913  18.3989  18.3991  18.4283  18.4285  18.4329  18.4329
    18.5897  18.5898  18.6108  18.6109  18.6663  18.6665  19.7672  19.7674
    19.8978  19.8979  19.9665  19.9667  20.1393  20.1395  20.2261  20.2263
    20.2436  20.2438  20.2776  20.2777  20.4215  20.4217  20.6628  20.6630
    20.6757  20.6758  20.8107  20.8109  20.8562  20.8564  20.9396  20.9398
    20.9699  20.9701  20.9892  20.9894  21.0843  21.0844  21.2139  21.2140
    21.7080  21.7081  21.8225  21.8225  22.5549  22.5551  23.2919  23.2921
    24.5066  24.5070

          k = 0.0557 0.3899 0.3899 ( 11255 PWs)   bands (ev):

   -66.5732 -66.5493 -66.5490 -66.5314 -66.5005 -66.4958 -66.4955 -66.4914
   -66.4882 -66.4872 -66.4869 -66.4853 -66.4624 -66.4508 -66.4505 -66.4324
   -32.8590 -32.8276 -32.8276 -32.8187 -32.8186 -32.8156 -32.8155 -32.8006
   -32.7991 -32.7977 -32.7969 -32.7805 -32.7246 -32.6728 -32.6272 -32.6268
   -32.6230 -32.6225 -32.6082 -32.6016 -32.5936 -32.5773 -32.5771 -32.5754
   -32.5611 -32.5402 -32.5401 -32.5336 -32.5333 -32.5327 -32.5230 -32.4612
   -32.4519 -32.4251 -32.4247 -32.4057 -32.3993 -32.3957 -32.3845 -32.3807
   -32.3791 -32.3790 -32.3733 -32.3732 -32.3361 -32.3361 -32.3223 -32.3221
    13.1632  14.1444  14.1445  14.8437  16.1457  16.2847  16.2848  16.4217
    16.4521  16.4522  16.4522  16.4868  16.5863  16.5864  16.6595  16.7850
    16.8402  17.1746  17.1747  17.4948  17.5124  17.5735  17.5969  17.5970
    17.6073  17.6073  17.6938  17.8211  17.8943  18.0167  18.1269  18.2000
    18.2002  18.2997  18.3538  18.3753  18.3934  18.3934  18.4263  18.4264
    18.5566  18.5604  18.5608  18.6477  18.6911  19.2062  19.2066  19.7897
    19.8888  19.9729  20.0357  20.0361  20.1562  20.1562  20.1752  20.1856
    20.3037  20.3041  20.3431  20.4298  20.4672  20.4672  20.4701  20.4856
    20.4857  20.6662  20.6696  20.6808  20.7725  20.8694  20.8696  20.8962
    20.9424  20.9730  21.0065  21.0068  21.0446  21.1012  21.1016  21.1260
    21.7654  21.7655  21.8453  21.9531  22.6407  23.3939  23.4339  23.4341
    24.1703  24.1704

          k = 0.0557 0.3899-0.5013 ( 11242 PWs)   bands (ev):

   -66.5622 -66.5620 -66.5410 -66.5407 -66.4983 -66.4981 -66.4937 -66.4934
   -66.4877 -66.4875 -66.4862 -66.4859 -66.4560 -66.4557 -66.4407 -66.4405
   -32.8407 -32.8407 -32.8114 -32.8114 -32.8113 -32.8111 -32.8108 -32.8107
   -32.8090 -32.8088 -32.7989 -32.7988 -32.6746 -32.6745 -32.6520 -32.6518
   -32.6116 -32.6114 -32.5957 -32.5956 -32.5798 -32.5797 -32.5728 -32.5728
   -32.5676 -32.5675 -32.5523 -32.5522 -32.5384 -32.5383 -32.4962 -32.4961
   -32.4371 -32.4369 -32.4028 -32.4026 -32.3883 -32.3882 -32.3873 -32.3871
   -32.3860 -32.3859 -32.3757 -32.3756 -32.3256 -32.3256 -32.3256 -32.3254
    13.6201  13.6205  14.4868  14.4871  16.2630  16.2632  16.5229  16.5231
    16.5266  16.5268  16.5410  16.5413  16.5698  16.5701  16.6935  16.6937
    16.9048  16.9050  17.4776  17.4778  17.5236  17.5238  17.5248  17.5250
    17.5893  17.5894  17.6469  17.6471  18.0253  18.0255  18.1575  18.1576
    18.2435  18.2436  18.2503  18.2505  18.2574  18.2576  18.3116  18.3118
    18.5793  18.5795  18.5992  18.5994  18.8651  18.8651  19.5332  19.5332
    19.9694  19.9696  20.0415  20.0417  20.2243  20.2245  20.2765  20.2767
    20.3309  20.3310  20.3314  20.3316  20.3348  20.3349  20.5684  20.5686
    20.5753  20.5755  20.6035  20.6037  20.7454  20.7456  20.7966  20.7969
    20.9669  20.9671  21.0189  21.0190  21.0315  21.0316  21.1138  21.1139
    21.8375  21.8376  21.8939  21.8939  23.0406  23.0408  23.7990  23.7993
    24.0314  24.0317

          k = 0.0557-0.5013-0.5013 ( 11276 PWs)   bands (ev):

   -66.5525 -66.5524 -66.5522 -66.5520 -66.4962 -66.4961 -66.4959 -66.4957
   -66.4870 -66.4869 -66.4867 -66.4865 -66.4477 -66.4476 -66.4474 -66.4472
   -32.8294 -32.8294 -32.8294 -32.8292 -32.8096 -32.8096 -32.8095 -32.8095
   -32.8028 -32.8028 -32.8027 -32.8027 -32.6336 -32.6336 -32.6332 -32.6331
   -32.6245 -32.6244 -32.6239 -32.6239 -32.5919 -32.5919 -32.5918 -32.5917
   -32.5475 -32.5475 -32.5475 -32.5474 -32.5321 -32.5319 -32.5315 -32.5315
   -32.4184 -32.4184 -32.4181 -32.4179 -32.3850 -32.3850 -32.3848 -32.3848
   -32.3809 -32.3808 -32.3807 -32.3807 -32.3221 -32.3221 -32.3220 -32.3219
    14.0310  14.0311  14.0313  14.0315  16.4706  16.4708  16.4709  16.4710
    16.5573  16.5573  16.5575  16.5577  16.6765  16.6767  16.6768  16.6768
    17.1780  17.1781  17.1783  17.1784  17.5166  17.5167  17.5168  17.5168
    17.5643  17.5644  17.5645  17.5646  18.1201  18.1204  18.1204  18.1205
    18.1340  18.1341  18.1341  18.1344  18.2224  18.2225  18.2225  18.2228
    18.5680  18.5680  18.5682  18.5685  19.1833  19.1833  19.1837  19.1837
    20.0596  20.0596  20.0598  20.0602  20.3169  20.3173  20.3175  20.3175
    20.3593  20.3594  20.3594  20.3595  20.4526  20.4527  20.4528  20.4529
    20.4545  20.4545  20.4547  20.4547  20.7223  20.7223  20.7225  20.7227
    20.9960  20.9960  20.9963  20.9964  21.0547  21.0547  21.0550  21.0551
    21.9001  21.9001  21.9003  21.9003  23.5387  23.5392  23.5392  23.5393
    24.3137  24.3140

          k = 0.1671 0.1671 0.1671 ( 11260 PWs)   bands (ev):

   -66.6015 -66.5251 -66.5251 -66.5247 -66.4987 -66.4987 -66.4983 -66.4861
   -66.4852 -66.4852 -66.4847 -66.4824 -66.4742 -66.4742 -66.4738 -66.4119
   -32.8956 -32.8955 -32.8955 -32.8710 -32.8710 -32.8709 -32.7481 -32.7460
   -32.7460 -32.7385 -32.7384 -32.7384 -32.6893 -32.6838 -32.6838 -32.6412
   -32.6407 -32.6407 -32.5878 -32.5877 -32.5877 -32.5418 -32.5414 -32.5414
   -32.5324 -32.5324 -32.5132 -32.5130 -32.5130 -32.5081 -32.5077 -32.5077
   -32.4757 -32.4757 -32.4757 -32.4671 -32.4181 -32.4181 -32.4180 -32.3870
   -32.3555 -32.3555 -32.3555 -32.3315 -32.3314 -32.3314 -32.3273 -32.3273
    12.0193  15.0333  15.0333  15.0334  15.6778  15.6779  15.6779  15.9115
    15.9116  15.9116  16.0670  16.0670  16.4481  16.4481  16.4481  17.0976
    17.4031  17.4031  17.4919  17.4920  17.4920  17.5401  17.5402  17.5402
    17.6515  17.6515  17.6515  17.6883  17.7643  17.7643  18.3507  18.3511
    18.3511  18.7133  18.7133  18.7136  18.7161  18.7161  19.1496  19.1504
    19.1507  19.1507  19.3459  19.3460  19.3460  19.5212  19.5212  19.5212
    19.7541  19.7541  19.7543  19.8069  19.8070  19.8070  20.3836  20.3841
    20.3841  20.4579  20.4580  20.4580  20.5721  20.5721  20.6120  20.6121
    20.6121  20.8694  20.8697  20.8697  20.9009  20.9009  20.9038  20.9038
    20.9724  21.0238  21.0238  21.0239  21.3793  21.3793  21.3793  21.5942
    21.5945  21.5945  21.6198  21.6198  22.3488  22.3489  22.3489  23.1203
    23.1203  23.1203

          k = 0.1671 0.1671 0.2785 ( 11234 PWs)   bands (ev):

   -66.5948 -66.5419 -66.5225 -66.5222 -66.5040 -66.5037 -66.4972 -66.4882
   -66.4844 -66.4822 -66.4818 -66.4815 -66.4748 -66.4745 -66.4588 -66.4168
   -32.8833 -32.8832 -32.8775 -32.8582 -32.8429 -32.8429 -32.7707 -32.7675
   -32.7675 -32.7579 -32.7557 -32.7325 -32.7320 -32.6784 -32.6782 -32.6654
   -32.6594 -32.6237 -32.5964 -32.5890 -32.5889 -32.5583 -32.5538 -32.5536
   -32.5463 -32.5405 -32.5162 -32.4991 -32.4988 -32.4850 -32.4819 -32.4818
   -32.4786 -32.4785 -32.4409 -32.4403 -32.4195 -32.3952 -32.3951 -32.3905
   -32.3732 -32.3732 -32.3632 -32.3481 -32.3395 -32.3338 -32.3337 -32.3280
    12.2865  14.3898  15.1738  15.1739  15.6369  15.6369  15.8859  16.0498
    16.0499  16.0954  16.1875  16.1883  16.5042  16.5043  16.6042  17.0165
    17.1673  17.2419  17.3752  17.5027  17.5046  17.5047  17.5912  17.6158
    17.6211  17.6212  17.7948  17.7995  17.7995  17.9864  18.2061  18.2063
    18.4979  18.5303  18.5304  18.6164  18.6358  18.6925  18.8885  18.8886
    18.9056  18.9057  19.1385  19.2858  19.2859  19.3021  19.3059  19.3506
    19.6455  19.7496  19.7496  19.8984  19.8984  20.0635  20.1483  20.3456
    20.3456  20.4531  20.5247  20.5532  20.5533  20.6312  20.6362  20.6376
    20.6586  20.6588  20.8550  20.8562  20.8753  20.8994  20.9147  20.9171
    20.9172  21.1396  21.1940  21.1941  21.2229  21.2956  21.3696  21.3828
    21.3828  21.6667  21.6769  21.6771  22.0827  22.0828  22.9829  23.3213
    23.3213  23.7539

          k = 0.1671 0.1671 0.3899 ( 11238 PWs)   bands (ev):

   -66.5850 -66.5580 -66.5189 -66.5186 -66.5093 -66.5090 -66.4953 -66.4906
   -66.4837 -66.4826 -66.4792 -66.4789 -66.4757 -66.4755 -66.4453 -66.4241
   -32.8619 -32.8618 -32.8511 -32.8402 -32.8070 -32.8070 -32.8009 -32.8009
   -32.7948 -32.7775 -32.7658 -32.7656 -32.7218 -32.7217 -32.7125 -32.6574
   -32.6390 -32.6337 -32.5845 -32.5844 -32.5806 -32.5786 -32.5656 -32.5654
   -32.5499 -32.5409 -32.5258 -32.4922 -32.4919 -32.4819 -32.4817 -32.4589
   -32.4506 -32.4505 -32.4420 -32.4156 -32.4088 -32.3952 -32.3952 -32.3758
   -32.3734 -32.3732 -32.3722 -32.3671 -32.3577 -32.3418 -32.3417 -32.3351
    12.6760  13.7548  15.3386  15.3386  15.5807  15.5807  16.1780  16.2091
    16.2091  16.3434  16.3454  16.3641  16.4819  16.4819  16.6041  16.8625
    16.8687  16.9014  17.3814  17.4568  17.4981  17.5244  17.6470  17.6472
    17.7533  17.7534  17.9674  17.9674  18.0769  18.0856  18.0857  18.2532
    18.4039  18.4040  18.4868  18.4869  18.5615  18.5770  18.5772  18.6109
    18.6110  18.6613  18.8196  18.8197  18.8482  18.8598  19.4871  19.6101
    19.8484  19.9129  19.9982  19.9983  20.0044  20.0044  20.2261  20.2262
    20.2772  20.2831  20.3695  20.4274  20.4274  20.6095  20.6773  20.7290
    20.7846  20.7985  20.8826  20.8955  20.8999  20.9001  20.9413  20.9725
    20.9885  20.9886  21.0515  21.1057  21.3780  21.3781  21.4018  21.4277
    21.4277  21.6381  21.6471  21.6472  21.8234  21.8234  23.5561  23.5562
    23.6817  23.8536

          k = 0.1671 0.1671-0.5013 ( 11226 PWs)   bands (ev):

   -66.5725 -66.5723 -66.5147 -66.5143 -66.5141 -66.5139 -66.4931 -66.4929
   -66.4832 -66.4830 -66.4774 -66.4770 -66.4768 -66.4766 -66.4338 -66.4335
   -32.8334 -32.8333 -32.8332 -32.8332 -32.8184 -32.8182 -32.8176 -32.8174
   -32.7690 -32.7688 -32.7661 -32.7661 -32.7659 -32.7658 -32.6876 -32.6873
   -32.6099 -32.6098 -32.6072 -32.6070 -32.5762 -32.5760 -32.5760 -32.5759
   -32.5351 -32.5348 -32.5030 -32.5029 -32.4866 -32.4864 -32.4864 -32.4862
   -32.4213 -32.4213 -32.4210 -32.4208 -32.4040 -32.4038 -32.3939 -32.3937
   -32.3807 -32.3805 -32.3552 -32.3550 -32.3550 -32.3549 -32.3479 -32.3478
    13.1727  13.1731  15.4831  15.4831  15.4833  15.4834  16.3668  16.3668
    16.3669  16.3671  16.4979  16.4981  16.5285  16.5288  16.5912  16.5916
    16.6239  16.6242  17.4124  17.4127  17.4783  17.4786  17.9098  17.9099
    17.9102  17.9103  17.9220  17.9220  17.9223  17.9225  18.3797  18.3797
    18.3799  18.3800  18.4340  18.4341  18.5004  18.5007  18.5007  18.5008
    18.5502  18.5504  18.5523  18.5524  18.6249  18.6251  19.6904  19.6906
    19.9258  19.9258  20.0740  20.0743  20.1083  20.1084  20.1085  20.1086
    20.2389  20.2389  20.2390  20.2391  20.6995  20.6997  20.7068  20.7070
    20.7359  20.7362  20.8405  20.8407  20.8897  20.8899  20.9976  20.9977
    21.0067  21.0068  21.0068  21.0069  21.5389  21.5389  21.5389  21.5391
    21.5450  21.5451  21.5824  21.5826  21.5826  21.5827  23.7602  23.7603
    23.7605  23.7605

          k = 0.1671 0.2785 0.2785 ( 11244 PWs)   bands (ev):

   -66.5883 -66.5385 -66.5383 -66.5200 -66.5119 -66.5024 -66.5021 -66.4910
   -66.4816 -66.4814 -66.4812 -66.4757 -66.4750 -66.4605 -66.4602 -66.4213
   -32.8765 -32.8662 -32.8662 -32.8345 -32.8345 -32.8105 -32.7835 -32.7813
   -32.7807 -32.7806 -32.7652 -32.7425 -32.7288 -32.7038 -32.6716 -32.6380
   -32.6356 -32.6352 -32.6246 -32.6244 -32.6000 -32.5739 -32.5737 -32.5724
   -32.5248 -32.5136 -32.5133 -32.5060 -32.5058 -32.4835 -32.4831 -32.4674
   -32.4567 -32.4543 -32.4446 -32.4443 -32.4213 -32.3949 -32.3831 -32.3753
   -32.3752 -32.3721 -32.3721 -32.3491 -32.3491 -32.3471 -32.3309 -32.3280
    12.5474  14.5700  14.5700  15.3310  15.4861  15.8524  15.8524  16.2100
    16.2299  16.2300  16.2913  16.3198  16.6102  16.6696  16.6696  16.9868
    17.1787  17.2230  17.2231  17.4350  17.4521  17.5760  17.5761  17.6595
    17.6717  17.6761  17.7076  17.7076  17.9634  17.9668  18.0480  18.3194
    18.3196  18.4228  18.4695  18.4697  18.5359  18.5433  18.6341  18.7008
    18.7664  18.7664  18.9216  18.9216  18.9942  19.0491  19.0493  19.4959
    19.8534  19.8534  19.8883  20.0169  20.0916  20.0918  20.2361  20.2766
    20.4337  20.4337  20.4390  20.4394  20.4571  20.5349  20.5731  20.5732
    20.6103  20.8229  20.8255  20.8260  20.8536  20.8854  20.8942  20.8945
    20.9112  21.1042  21.1043  21.2171  21.2459  21.3660  21.3661  21.3850
    21.3853  21.4792  21.6578  21.7584  21.7633  22.6374  22.6376  23.5957
    24.3816  24.3820

          k = 0.1671 0.2785 0.3899 ( 11252 PWs)   bands (ev):

   -66.5791 -66.5535 -66.5333 -66.5197 -66.5164 -66.5073 -66.4999 -66.4942
   -66.4812 -66.4809 -66.4790 -66.4760 -66.4705 -66.4629 -66.4478 -66.4281
   -32.8608 -32.8478 -32.8416 -32.8230 -32.8097 -32.8045 -32.8015 -32.7968
   -32.7864 -32.7769 -32.7753 -32.7711 -32.7357 -32.7116 -32.6807 -32.6578
   -32.6539 -32.6178 -32.6086 -32.6032 -32.5995 -32.5903 -32.5892 -32.5878
   -32.5456 -32.5233 -32.5132 -32.4980 -32.4960 -32.4873 -32.4807 -32.4701
   -32.4505 -32.4336 -32.4318 -32.4206 -32.4132 -32.4041 -32.3907 -32.3806
   -32.3714 -32.3705 -32.3638 -32.3544 -32.3532 -32.3528 -32.3331 -32.3309
    12.9264  13.9664  14.8071  15.2964  15.5194  15.7966  16.1553  16.3759
    16.3879  16.4327  16.4706  16.4979  16.6405  16.6443  16.6819  16.8922
    16.9120  16.9536  17.4164  17.4369  17.5158  17.5210  17.5658  17.6078
    17.6901  17.7841  17.8072  17.8576  17.9311  18.0794  18.1219  18.1245
    18.2407  18.3039  18.3607  18.4010  18.4248  18.4522  18.4827  18.4968
    18.5320  18.5481  18.5706  18.5842  18.6745  18.7460  19.2714  19.7108
    19.9087  20.0111  20.0802  20.0820  20.0870  20.1293  20.1487  20.1938
    20.3348  20.3491  20.3505  20.4488  20.4519  20.5428  20.6233  20.6780
    20.7348  20.7534  20.7603  20.8432  20.8840  20.8871  20.9249  20.9417
    20.9475  20.9594  20.9662  21.0717  21.1679  21.2753  21.3940  21.4574
    21.5123  21.5304  21.6639  21.6915  21.7545  22.3088  23.2536  23.9154
    24.4135  24.5388

          k = 0.1671 0.2785-0.5013 ( 11224 PWs)   bands (ev):

   -66.5674 -66.5671 -66.5270 -66.5268 -66.5122 -66.5119 -66.4973 -66.4970
   -66.4810 -66.4808 -66.4773 -66.4771 -66.4663 -66.4661 -66.4371 -66.4368
   -32.8377 -32.8376 -32.8251 -32.8250 -32.8106 -32.8104 -32.8101 -32.8099
   -32.7847 -32.7845 -32.7704 -32.7703 -32.7268 -32.7267 -32.6874 -32.6872
   -32.6276 -32.6274 -32.6059 -32.6057 -32.5984 -32.5983 -32.5774 -32.5774
   -32.5419 -32.5418 -32.5198 -32.5196 -32.4919 -32.4918 -32.4591 -32.4589
   -32.4493 -32.4492 -32.4095 -32.4095 -32.4002 -32.4000 -32.3901 -32.3899
   -32.3861 -32.3859 -32.3603 -32.3603 -32.3412 -32.3411 -32.3390 -32.3389
    13.4072  13.4076  15.0626  15.0629  15.6870  15.6872  16.5173  16.5176
    16.5306  16.5308  16.5434  16.5436  16.5818  16.5820  16.7100  16.7103
    16.7248  16.7250  17.4687  17.4690  17.5415  17.5418  17.7158  17.7160
    17.7324  17.7326  17.8203  17.8205  17.9377  17.9378  18.1675  18.1676
    18.3198  18.3200  18.3414  18.3416  18.3442  18.3443  18.3909  18.3911
    18.4614  18.4615  18.4645  18.4647  18.5320  18.5322  19.5641  19.5641
    19.9440  19.9442  20.0987  20.0989  20.1899  20.1902  20.2334  20.2336
    20.2809  20.2810  20.2880  20.2881  20.6509  20.6510  20.6544  20.6546
    20.6897  20.6899  20.7892  20.7895  20.8780  20.8781  20.8848  20.8850
    20.9738  20.9740  21.0277  21.0278  21.1790  21.1792  21.3462  21.3463
    21.6158  21.6159  21.6701  21.6702  21.9872  21.9874  23.8922  23.8926
    24.2139  24.2142

          k = 0.1671 0.3899 0.3899 ( 11272 PWs)   bands (ev):

   -66.5705 -66.5473 -66.5470 -66.5298 -66.5131 -66.5048 -66.5045 -66.4978
   -66.4800 -66.4793 -66.4790 -66.4766 -66.4630 -66.4518 -66.4515 -66.4341
   -32.8506 -32.8284 -32.8284 -32.8106 -32.8105 -32.8058 -32.8016 -32.8016
   -32.7977 -32.7916 -32.7855 -32.7550 -32.7288 -32.6979 -32.6549 -32.6490
   -32.6487 -32.6351 -32.6346 -32.6168 -32.6140 -32.6139 -32.6131 -32.5766
   -32.5401 -32.5151 -32.5124 -32.5121 -32.5047 -32.5046 -32.4930 -32.4509
   -32.4489 -32.4223 -32.4220 -32.4142 -32.4140 -32.3951 -32.3885 -32.3884
   -32.3780 -32.3702 -32.3701 -32.3689 -32.3405 -32.3404 -32.3302 -32.3287
    13.2877  14.2602  14.2602  14.9642  15.7455  16.0951  16.0951  16.5178
    16.5327  16.6202  16.6203  16.6837  16.6838  16.6971  16.7387  16.7799
    16.9363  17.1735  17.1736  17.4399  17.5029  17.5521  17.6148  17.6148
    17.6458  17.6459  17.7972  17.8027  17.8127  17.8646  18.0830  18.1608
    18.1609  18.1760  18.2456  18.2457  18.3138  18.3138  18.3239  18.3628
    18.3849  18.4228  18.4230  18.5165  18.5200  18.9414  18.9417  19.5428
    19.9602  20.1222  20.1912  20.1913  20.2162  20.2525  20.2528  20.2609
    20.3811  20.4445  20.4640  20.4640  20.4997  20.5001  20.5148  20.5149
    20.6589  20.6873  20.6891  20.7415  20.7719  20.8622  20.8623  20.8902
    20.9177  20.9180  20.9679  20.9775  21.1348  21.1897  21.1899  21.2118
    21.6435  21.6436  21.7058  21.7847  22.0499  22.8452  22.8454  23.9656
    24.3302  25.0539

          k = 0.1671 0.3899-0.5013 ( 11254 PWs)   bands (ev):

   -66.5598 -66.5596 -66.5392 -66.5389 -66.5092 -66.5090 -66.5015 -66.5013
   -66.4794 -66.4792 -66.4777 -66.4775 -66.4568 -66.4565 -66.4420 -66.4418
   -32.8330 -32.8329 -32.8153 -32.8152 -32.8057 -32.8056 -32.8039 -32.8038
   -32.7993 -32.7992 -32.7780 -32.7779 -32.6824 -32.6824 -32.6761 -32.6759
   -32.6386 -32.6385 -32.6332 -32.6331 -32.6206 -32.6205 -32.5873 -32.5873
   -32.5441 -32.5440 -32.5103 -32.5102 -32.4983 -32.4983 -32.4796 -32.4795
   -32.4349 -32.4347 -32.3995 -32.3995 -32.3978 -32.3976 -32.3913 -32.3912
   -32.3896 -32.3895 -32.3690 -32.3690 -32.3325 -32.3324 -32.3319 -32.3318
    13.7413  13.7416  14.6057  14.6061  15.9566  15.9569  16.4356  16.4358
    16.6237  16.6239  16.6300  16.6302  16.7572  16.7574  16.8400  16.8402
    16.9291  16.9294  17.4767  17.4769  17.5373  17.5375  17.5416  17.5417
    17.5480  17.5482  17.7101  17.7102  17.9709  17.9710  17.9922  17.9923
    18.1196  18.1199  18.1800  18.1802  18.2244  18.2246  18.2599  18.2601
    18.4271  18.4273  18.4640  18.4642  18.6416  18.6417  19.2115  19.2115
    20.1611  20.1613  20.2205  20.2207  20.3170  20.3172  20.3518  20.3520
    20.3710  20.3711  20.3722  20.3723  20.4834  20.4835  20.5887  20.5888
    20.5994  20.5995  20.7311  20.7313  20.7659  20.7660  20.8454  20.8455
    20.9021  20.9023  20.9493  20.9495  21.0535  21.0536  21.1926  21.1927
    21.7037  21.7038  21.7439  21.7439  22.4432  22.4435  23.4016  23.4020
    24.7343  24.7346

          k = 0.1671-0.5013-0.5013 ( 11280 PWs)   bands (ev):

   -66.5504 -66.5503 -66.5501 -66.5499 -66.5057 -66.5056 -66.5054 -66.5052
   -66.4785 -66.4784 -66.4782 -66.4780 -66.4488 -66.4487 -66.4485 -66.4483
   -32.8214 -32.8214 -32.8213 -32.8212 -32.8075 -32.8075 -32.8073 -32.8073
   -32.7880 -32.7880 -32.7879 -32.7879 -32.6574 -32.6574 -32.6571 -32.6571
   -32.6359 -32.6359 -32.6359 -32.6357 -32.6352 -32.6352 -32.6347 -32.6347
   -32.5117 -32.5116 -32.5113 -32.5113 -32.5041 -32.5041 -32.5041 -32.5040
   -32.4144 -32.4143 -32.4140 -32.4139 -32.3927 -32.3927 -32.3926 -32.3926
   -32.3800 -32.3800 -32.3799 -32.3799 -32.3294 -32.3294 -32.3293 -32.3292
    14.1517  14.1518  14.1520  14.1522  16.2342  16.2344  16.2345  16.2346
    16.6504  16.6505  16.6506  16.6509  16.8898  16.8899  16.8900  16.8900
    17.1963  17.1963  17.1966  17.1966  17.4731  17.4732  17.4733  17.4733
    17.6218  17.6219  17.6220  17.6220  17.9690  17.9691  17.9691  17.9694
    18.0882  18.0885  18.0885  18.0885  18.1760  18.1762  18.1762  18.1764
    18.4251  18.4251  18.4252  18.4256  18.8965  18.8966  18.8969  18.8969
    20.2991  20.2992  20.2992  20.2995  20.3767  20.3768  20.3768  20.3771
    20.4856  20.4856  20.4857  20.4858  20.4953  20.4954  20.4954  20.4955
    20.5240  20.5244  20.5246  20.5246  20.7140  20.7141  20.7142  20.7144
    20.9258  20.9258  20.9261  20.9262  21.0988  21.0988  21.0991  21.0992
    21.7538  21.7538  21.7539  21.7539  22.9190  22.9195  22.9195  22.9196
    25.2589  25.2592

          k = 0.2785 0.2785 0.2785 ( 11269 PWs)   bands (ev):

   -66.5822 -66.5352 -66.5352 -66.5347 -66.5100 -66.5100 -66.5096 -66.4951
   -66.4794 -66.4759 -66.4759 -66.4755 -66.4620 -66.4620 -66.4616 -66.4255
   -32.8589 -32.8588 -32.8588 -32.8071 -32.8071 -32.8071 -32.7903 -32.7902
   -32.7902 -32.7897 -32.7511 -32.7511 -32.7185 -32.7185 -32.6639 -32.6634
   -32.6634 -32.6377 -32.6376 -32.6376 -32.6086 -32.5969 -32.5966 -32.5966
   -32.4883 -32.4874 -32.4872 -32.4872 -32.4856 -32.4853 -32.4853 -32.4793
   -32.4793 -32.4468 -32.4467 -32.4467 -32.4082 -32.3910 -32.3909 -32.3909
   -32.3649 -32.3649 -32.3648 -32.3472 -32.3471 -32.3471 -32.3406 -32.3406
    12.8034  14.7599  14.7599  14.7600  15.7132  15.7132  15.7132  16.3870
    16.3872  16.3872  16.4213  16.4213  16.7997  16.7998  16.7998  17.0047
    17.2103  17.2104  17.2104  17.2375  17.4344  17.4344  17.6300  17.6301
    17.6301  17.8056  17.8056  17.8352  17.8353  17.8353  18.1766  18.1769
    18.1769  18.3332  18.3332  18.3334  18.4440  18.4441  18.4441  18.4996
    18.4996  18.6468  18.6468  18.6470  18.7783  18.7786  18.7786  19.7085
    19.8969  19.9902  19.9903  19.9903  20.2177  20.2179  20.2179  20.3630
    20.3630  20.3630  20.5310  20.5310  20.5637  20.5638  20.5638  20.7043
    20.7047  20.7047  20.8298  20.8299  20.8300  20.8302  20.8302  20.8588
    20.8588  21.1122  21.1123  21.1123  21.3483  21.3483  21.3485  21.4127
    21.4127  21.4777  21.4780  21.4780  22.2379  22.2381  22.2381  24.5508
    24.6791  24.6791

          k = 0.2785 0.2785 0.3899 ( 11262 PWs)   bands (ev):

   -66.5734 -66.5493 -66.5303 -66.5300 -66.5174 -66.5171 -66.5069 -66.4993
   -66.4778 -66.4762 -66.4712 -66.4709 -66.4642 -66.4639 -66.4501 -66.4318
   -32.8447 -32.8446 -32.8335 -32.8058 -32.8058 -32.8031 -32.7942 -32.7908
   -32.7737 -32.7737 -32.7701 -32.7622 -32.7305 -32.6988 -32.6986 -32.6903
   -32.6726 -32.6405 -32.6405 -32.6267 -32.6195 -32.6172 -32.6171 -32.5773
   -32.5291 -32.5155 -32.4902 -32.4872 -32.4718 -32.4716 -32.4578 -32.4576
   -32.4516 -32.4515 -32.4378 -32.4133 -32.4099 -32.4097 -32.3974 -32.3891
   -32.3706 -32.3595 -32.3574 -32.3573 -32.3511 -32.3479 -32.3478 -32.3390
    13.1741  14.1826  15.0114  15.0115  15.5256  15.5256  16.0352  16.5552
    16.5553  16.5687  16.5861  16.6216  16.8266  16.8267  16.8359  16.8560
    16.9734  16.9954  17.3425  17.3427  17.4634  17.5723  17.6373  17.6375
    17.6939  17.7296  17.7297  17.9107  17.9107  17.9738  18.0226  18.0227
    18.1690  18.1690  18.2306  18.2307  18.2787  18.2794  18.2945  18.3112
    18.3852  18.3854  18.3861  18.4391  18.5156  18.5158  18.9326  19.5228
    19.9499  20.1296  20.1651  20.1652  20.2715  20.2715  20.3126  20.3126
    20.4177  20.4761  20.4806  20.4844  20.4845  20.5104  20.6175  20.6309
    20.7606  20.7715  20.8340  20.8346  20.8365  20.8365  20.8710  20.8712
    20.8927  20.9277  21.1074  21.2298  21.2438  21.2440  21.3864  21.3865
    21.4536  21.4937  21.4939  21.4997  21.8802  21.8804  22.7860  23.9473
    25.0158  25.0159

          k = 0.2785 0.2785-0.5013 ( 11252 PWs)   bands (ev):

   -66.5624 -66.5622 -66.5245 -66.5242 -66.5240 -66.5238 -66.5034 -66.5031
   -66.4769 -66.4767 -66.4676 -66.4672 -66.4670 -66.4668 -66.4401 -66.4399
   -32.8257 -32.8256 -32.8256 -32.8256 -32.8011 -32.8009 -32.7983 -32.7981
   -32.7837 -32.7836 -32.7369 -32.7368 -32.7366 -32.7364 -32.7041 -32.7039
   -32.6589 -32.6587 -32.6328 -32.6327 -32.6326 -32.6325 -32.5739 -32.5739
   -32.5463 -32.5462 -32.4907 -32.4905 -32.4599 -32.4598 -32.4597 -32.4596
   -32.4325 -32.4324 -32.4321 -32.4319 -32.4013 -32.4011 -32.3909 -32.3908
   -32.3839 -32.3837 -32.3514 -32.3513 -32.3513 -32.3513 -32.3425 -32.3424
    13.6421  13.6425  15.2823  15.2823  15.2825  15.2826  16.4282  16.4285
    16.7151  16.7152  16.7153  16.7154  16.7440  16.7442  16.7555  16.7559
    16.8584  16.8586  17.5128  17.5131  17.5992  17.5994  17.6358  17.6359
    17.6361  17.6362  17.8659  17.8659  17.8661  17.8663  17.9344  17.9345
    18.1484  18.1486  18.2381  18.2385  18.2385  18.2386  18.2845  18.2848
    18.2849  18.2849  18.3136  18.3138  18.3654  18.3656  19.1888  19.1888
    20.2097  20.2100  20.2790  20.2792  20.2879  20.2880  20.2881  20.2882
    20.3402  20.3402  20.3403  20.3404  20.6521  20.6522  20.6864  20.6866
    20.7493  20.7495  20.7852  20.7853  20.8360  20.8362  20.8725  20.8726
    20.8727  20.8728  21.0470  21.0471  21.4514  21.4515  21.4515  21.4516
    21.5098  21.5099  21.5404  21.5408  21.5409  21.5409  23.3607  23.3610
    25.2890  25.2891

          k = 0.2785 0.3899 0.3899 ( 11259 PWs)   bands (ev):

   -66.5654 -66.5434 -66.5431 -66.5268 -66.5256 -66.5139 -66.5136 -66.5044
   -66.4753 -66.4721 -66.4718 -66.4659 -66.4641 -66.4537 -66.4534 -66.4373
   -32.8340 -32.8216 -32.8215 -32.8048 -32.8022 -32.8021 -32.7888 -32.7778
   -32.7777 -32.7764 -32.7669 -32.7370 -32.7270 -32.7227 -32.6997 -32.6749
   -32.6748 -32.6570 -32.6568 -32.6565 -32.6482 -32.6481 -32.6433 -32.5694
   -32.5459 -32.4857 -32.4855 -32.4724 -32.4723 -32.4717 -32.4544 -32.4490
   -32.4352 -32.4322 -32.4231 -32.4192 -32.4190 -32.4008 -32.4007 -32.3941
   -32.3694 -32.3689 -32.3689 -32.3612 -32.3482 -32.3482 -32.3454 -32.3423
    13.5306  14.4828  14.4829  15.1976  15.2856  15.8481  15.8481  16.6126
    16.6827  16.7010  16.7703  16.7920  16.7921  16.8710  16.8711  17.0137
    17.0776  17.1652  17.1653  17.2950  17.5368  17.6058  17.6063  17.6616
    17.6617  17.7172  17.7172  17.7943  17.8101  17.9052  17.9058  18.0735
    18.0762  18.0763  18.0826  18.0826  18.0932  18.0933  18.1270  18.2226
    18.2228  18.2524  18.2672  18.2975  18.3475  18.6115  18.6117  19.1505
    20.2214  20.2726  20.2727  20.2907  20.3362  20.4065  20.4531  20.4796
    20.4798  20.4886  20.4895  20.4895  20.5488  20.5490  20.6156  20.7107
    20.7512  20.7549  20.7551  20.7696  20.8187  20.8311  20.8314  20.8832
    20.8909  20.8911  20.9450  20.9923  21.2483  21.2485  21.2826  21.4627
    21.4629  21.4651  21.5103  21.5292  21.5802  22.3655  22.3657  23.4019
    25.4401  26.0120

          k = 0.2785 0.3899-0.5013 ( 11276 PWs)   bands (ev):

   -66.5552 -66.5550 -66.5357 -66.5355 -66.5202 -66.5200 -66.5095 -66.5093
   -66.4735 -66.4733 -66.4687 -66.4685 -66.4583 -66.4581 -66.4447 -66.4445
   -32.8183 -32.8182 -32.8104 -32.8103 -32.7935 -32.7933 -32.7914 -32.7913
   -32.7831 -32.7830 -32.7503 -32.7502 -32.7048 -32.7046 -32.6973 -32.6973
   -32.6786 -32.6785 -32.6639 -32.6637 -32.6596 -32.6595 -32.6130 -32.6129
   -32.5152 -32.5151 -32.4716 -32.4715 -32.4608 -32.4607 -32.4574 -32.4573
   -32.4313 -32.4312 -32.4163 -32.4163 -32.3955 -32.3954 -32.3953 -32.3953
   -32.3911 -32.3909 -32.3655 -32.3654 -32.3460 -32.3459 -32.3437 -32.3436
    13.9763  13.9766  14.8353  14.8356  15.5841  15.5844  16.2316  16.2319
    16.7979  16.7981  16.8098  16.8100  16.9572  16.9573  16.9746  16.9748
    17.0179  17.0181  17.4699  17.4702  17.4967  17.4969  17.5763  17.5765
    17.5934  17.5936  17.7797  17.7798  17.7984  17.7985  17.9318  17.9319
    17.9838  17.9840  18.0053  18.0056  18.1240  18.1242  18.1641  18.1643
    18.2000  18.2002  18.2743  18.2745  18.3363  18.3364  18.8316  18.8316
    20.3807  20.3809  20.4047  20.4048  20.4083  20.4084  20.4282  20.4283
    20.4680  20.4682  20.5113  20.5116  20.6294  20.6296  20.6453  20.6455
    20.7041  20.7043  20.7351  20.7353  20.7713  20.7715  20.8245  20.8247
    20.8585  20.8587  21.0590  21.0591  21.1666  21.1669  21.2484  21.2485
    21.4868  21.4869  21.5084  21.5084  21.9649  21.9651  22.8767  22.8770
    25.8247  25.8250

          k = 0.2785-0.5013-0.5013 ( 11260 PWs)   bands (ev):

   -66.5463 -66.5463 -66.5460 -66.5458 -66.5152 -66.5152 -66.5150 -66.5148
   -66.4708 -66.4708 -66.4706 -66.4703 -66.4509 -66.4508 -66.4506 -66.4504
   -32.8054 -32.8054 -32.8054 -32.8052 -32.7969 -32.7969 -32.7968 -32.7967
   -32.7663 -32.7663 -32.7662 -32.7662 -32.6891 -32.6891 -32.6889 -32.6889
   -32.6782 -32.6782 -32.6782 -32.6780 -32.6553 -32.6552 -32.6549 -32.6549
   -32.4854 -32.4853 -32.4850 -32.4850 -32.4629 -32.4629 -32.4629 -32.4627
   -32.4080 -32.4079 -32.4077 -32.4075 -32.4038 -32.4037 -32.4036 -32.4035
   -32.3819 -32.3818 -32.3817 -32.3817 -32.3441 -32.3441 -32.3441 -32.3439
    14.3855  14.3856  14.3858  14.3861  15.9247  15.9248  15.9250  15.9251
    16.8281  16.8282  16.8283  16.8285  17.1267  17.1269  17.1270  17.1270
    17.2305  17.2306  17.2308  17.2308  17.4286  17.4286  17.4288  17.4288
    17.6916  17.6918  17.6918  17.6919  17.8303  17.8304  17.8304  17.8307
    18.0059  18.0061  18.0061  18.0063  18.0285  18.0288  18.0288  18.0288
    18.2175  18.2175  18.2175  18.2179  18.5318  18.5320  18.5321  18.5321
    20.4403  20.4404  20.4405  20.4407  20.5324  20.5324  20.5326  20.5326
    20.5713  20.5713  20.5714  20.5717  20.5940  20.5941  20.5942  20.5943
    20.6965  20.6966  20.6967  20.6969  20.8300  20.8306  20.8306  20.8306
    20.8399  20.8399  20.8402  20.8403  21.1126  21.1126  21.1127  21.1129
    21.5118  21.5119  21.5120  21.5120  22.4142  22.4147  22.4147  22.4148
    26.3569  26.3571

          k = 0.3899 0.3899 0.3899 ( 11281 PWs)   bands (ev):

   -66.5580 -66.5378 -66.5378 -66.5374 -66.5226 -66.5226 -66.5222 -66.5110
   -66.4714 -66.4659 -66.4659 -66.4655 -66.4567 -66.4567 -66.4563 -66.4421
   -32.8097 -32.8096 -32.8096 -32.7954 -32.7954 -32.7954 -32.7766 -32.7544
   -32.7544 -32.7490 -32.7488 -32.7488 -32.7413 -32.7413 -32.6936 -32.6936
   -32.6936 -32.6856 -32.6852 -32.6852 -32.6771 -32.6770 -32.6770 -32.6062
   -32.5151 -32.4598 -32.4595 -32.4595 -32.4457 -32.4455 -32.4455 -32.4322
   -32.4321 -32.4192 -32.4191 -32.4191 -32.4169 -32.4166 -32.4166 -32.3977
   -32.3680 -32.3679 -32.3679 -32.3624 -32.3624 -32.3578 -32.3578 -32.3578
    13.8785  14.7928  14.7928  14.7929  15.5264  15.5264  15.5264  16.3163
    16.8744  16.8744  16.9503  16.9504  16.9504  17.1232  17.1233  17.1233
    17.1459  17.1460  17.1460  17.2406  17.5926  17.5926  17.6654  17.6654
    17.7394  17.7396  17.7396  17.7636  17.7637  17.7637  17.8521  17.8522
    17.8522  17.9767  17.9767  17.9768  18.0042  18.0044  18.0044  18.0379
    18.0379  18.0380  18.1901  18.1901  18.2955  18.2958  18.2958  18.7750
    20.3808  20.3809  20.3809  20.5210  20.5504  20.5504  20.5505  20.5519
    20.5519  20.5574  20.5575  20.5575  20.6178  20.6180  20.6180  20.7330
    20.7330  20.7629  20.7632  20.7632  20.7810  20.7811  20.7811  20.8646
    20.8646  21.1755  21.1755  21.1886  21.1890  21.1890  21.2649  21.2651
    21.2651  21.3128  21.3128  21.3129  21.9478  21.9481  21.9481  22.8942
    26.6885  26.6886

          k = 0.3899 0.3899-0.5013 ( 11306 PWs)   bands (ev):

   -66.5487 -66.5485 -66.5311 -66.5307 -66.5305 -66.5303 -66.5173 -66.5171
   -66.4683 -66.4681 -66.4611 -66.4607 -66.4605 -66.4603 -66.4487 -66.4485
   -32.7981 -32.7980 -32.7980 -32.7980 -32.7785 -32.7783 -32.7782 -32.7780
   -32.7629 -32.7628 -32.7268 -32.7266 -32.7175 -32.7174 -32.7172 -32.7169
   -32.7107 -32.7106 -32.6947 -32.6947 -32.6946 -32.6946 -32.6457 -32.6457
   -32.4864 -32.4863 -32.4398 -32.4396 -32.4367 -32.4366 -32.4363 -32.4361
   -32.4273 -32.4272 -32.4271 -32.4271 -32.4050 -32.4049 -32.3974 -32.3971
   -32.3885 -32.3883 -32.3653 -32.3652 -32.3652 -32.3652 -32.3584 -32.3583
    14.3097  14.3101  15.1566  15.1567  15.1569  15.1570  15.9189  15.9192
    17.0023  17.0026  17.0531  17.0533  17.0684  17.0684  17.0685  17.0687
    17.2126  17.2128  17.4446  17.4447  17.4449  17.4450  17.6214  17.6216
    17.6632  17.6635  17.7198  17.7200  17.7403  17.7404  17.8551  17.8551
    17.8554  17.8556  17.9703  17.9706  17.9708  17.9708  18.0322  18.0325
    18.0326  18.0326  18.0799  18.0801  18.1003  18.1005  18.4656  18.4656
    20.4713  20.4715  20.4907  20.4908  20.4909  20.4909  20.6208  20.6209
    20.6209  20.6210  20.6424  20.6426  20.6663  20.6665  20.7317  20.7318
    20.7508  20.7510  20.7560  20.7560  20.7562  20.7562  20.8421  20.8423
    20.8817  20.8819  21.0368  21.0369  21.2614  21.2615  21.2615  21.2617
    21.2812  21.2813  21.5590  21.5595  21.5595  21.5596  22.4126  22.4130
    27.0005  27.0007

          k = 0.3899-0.5013-0.5013 ( 11264 PWs)   bands (ev):

   -66.5404 -66.5404 -66.5402 -66.5399 -66.5246 -66.5245 -66.5243 -66.5241
   -66.4642 -66.4641 -66.4639 -66.4637 -66.4541 -66.4540 -66.4538 -66.4536
   -32.7820 -32.7820 -32.7820 -32.7818 -32.7783 -32.7782 -32.7781 -32.7781
   -32.7400 -32.7400 -32.7399 -32.7399 -32.7219 -32.7219 -32.7217 -32.7217
   -32.7175 -32.7175 -32.7175 -32.7173 -32.6814 -32.6813 -32.6810 -32.6810
   -32.4599 -32.4599 -32.4596 -32.4596 -32.4256 -32.4256 -32.4256 -32.4254
   -32.4188 -32.4187 -32.4186 -32.4185 -32.4003 -32.4002 -32.4001 -32.3999
   -32.3865 -32.3864 -32.3864 -32.3863 -32.3653 -32.3653 -32.3653 -32.3651
    14.7159  14.7160  14.7162  14.7164  15.5363  15.5364  15.5366  15.5367
    17.0700  17.0700  17.0701  17.0704  17.2763  17.2764  17.2766  17.2766
    17.3620  17.3621  17.3622  17.3623  17.3801  17.3801  17.3803  17.3803
    17.7728  17.7730  17.7730  17.7730  17.7893  17.7895  17.7895  17.7897
    17.7915  17.7916  17.7916  17.7919  17.9497  17.9500  17.9500  17.9500
    18.0148  18.0149  18.0149  18.0152  18.1653  18.1655  18.1656  18.1656
    20.5272  20.5273  20.5274  20.5276  20.5832  20.5832  20.5834  20.5835
    20.6687  20.6688  20.6689  20.6691  20.7384  20.7384  20.7386  20.7388
    20.7545  20.7547  20.7547  20.7548  20.8038  20.8038  20.8038  20.8041
    21.0754  21.0754  21.0755  21.0758  21.1907  21.1912  21.1912  21.1913
    21.2360  21.2362  21.2362  21.2362  21.9774  21.9779  21.9779  21.9780
    27.5556  27.5558

          k =-0.5013-0.5013-0.5013 ( 11296 PWs)   bands (ev):

   -66.5334 -66.5334 -66.5334 -66.5329 -66.5328 -66.5328 -66.5325 -66.5325
   -66.4588 -66.4587 -66.4587 -66.4582 -66.4581 -66.4581 -66.4579 -66.4578
   -32.7526 -32.7526 -32.7526 -32.7525 -32.7525 -32.7525 -32.7523 -32.7523
   -32.7521 -32.7521 -32.7521 -32.7520 -32.7520 -32.7520 -32.7520 -32.7520
   -32.7114 -32.7111 -32.7111 -32.7111 -32.7110 -32.7106 -32.7106 -32.7106
   -32.4377 -32.4373 -32.4373 -32.4373 -32.4373 -32.4369 -32.4368 -32.4368
   -32.3934 -32.3934 -32.3934 -32.3932 -32.3932 -32.3931 -32.3931 -32.3931
   -32.3930 -32.3929 -32.3929 -32.3927 -32.3927 -32.3927 -32.3926 -32.3926
    15.1140  15.1142  15.1142  15.1142  15.1144  15.1144  15.1145  15.1148
    17.3278  17.3279  17.3279  17.3280  17.3280  17.3281  17.3281  17.3281
    17.3282  17.3282  17.3282  17.3283  17.3283  17.3283  17.3286  17.3286
    17.8445  17.8451  17.8451  17.8451  17.8453  17.8454  17.8454  17.8454
    17.8608  17.8609  17.8610  17.8610  17.8611  17.8614  17.8614  17.8614
    17.8614  17.8614  17.8614  17.8615  17.8615  17.8615  17.8618  17.8618
    20.6298  20.6298  20.6298  20.6298  20.6299  20.6299  20.6303  20.6303
    20.6303  20.6304  20.6304  20.6304  20.6305  20.6305  20.6306  20.6306
    20.9739  20.9739  20.9739  20.9739  20.9739  20.9742  20.9742  20.9742
    20.9742  20.9742  20.9742  20.9744  20.9744  20.9744  20.9747  20.9747
    21.5739  21.5750  21.5750  21.5750  21.5750  21.5750  21.5750  21.5751
    28.7295  28.7296

     the Fermi energy is    20.6977 ev

!    total energy              =   -5267.70360172 Ry
     Harris-Foulkes estimate   =   -5267.70363290 Ry
     estimated scf accuracy    <       0.00004168 Ry

     total all-electron energy =    -40728.448131 Ry

     The total energy is the sum of the following terms:

     one-electron contribution =   -1608.94871913 Ry
     hartree contribution      =     985.39535355 Ry
     xc contribution           =    -443.11873451 Ry
     ewald contribution        =   -2876.14060744 Ry
     one-center paw contrib.   =   -1324.76226312 Ry
     smearing contrib. (-TS)   =      -0.12863107 Ry

     convergence has been achieved in  10 iterations

     Forces acting on atoms (cartesian axes, Ry/au):

     atom    1 type  1   force =     0.00000000    0.00000000    0.00000000
     atom    2 type  1   force =     0.00010005    0.00010005    0.00010005
     atom    3 type  1   force =     0.00000000    0.00000000    0.00000000
     atom    4 type  1   force =     0.00010005    0.00010005   -0.00010005
     atom    5 type  1   force =     0.00000000    0.00000000    0.00000000
     atom    6 type  1   force =     0.00010005   -0.00010005    0.00010005
     atom    7 type  1   force =     0.00000000    0.00000000    0.00000000
     atom    8 type  1   force =     0.00010005   -0.00010005   -0.00010005
     atom    9 type  1   force =     0.00000000    0.00000000   -0.00000000
     atom   10 type  1   force =    -0.00010005    0.00010005    0.00010005
     atom   11 type  1   force =     0.00000000    0.00000000    0.00000000
     atom   12 type  1   force =    -0.00010005    0.00010005   -0.00010005
     atom   13 type  1   force =     0.00000000    0.00000000    0.00000000
     atom   14 type  1   force =    -0.00010005   -0.00010005    0.00010005
     atom   15 type  1   force =     0.00000000    0.00000000    0.00000000
     atom   16 type  1   force =    -0.00010005   -0.00010005   -0.00010005

     Total force =     0.000490     Total SCF correction =     0.000278
     SCF correction compared to forces is large: reduce conv_thr to get better values


     Computing stress (Cartesian axis) and pressure

          total   stress  (Ry/bohr**3)                   (kbar)     P=   63.31
   0.00043039   0.00000000   0.00000000         63.31      0.00      0.00
   0.00000000   0.00043039   0.00000000          0.00     63.31      0.00
   0.00000000   0.00000000   0.00043039          0.00      0.00     63.31


     Writing output data file EoIUgdRpeuSlzReS.save/
 
     init_run     :      3.10s CPU      3.30s WALL (       1 calls)
     electrons    :    113.61s CPU    117.38s WALL (       1 calls)
     forces       :      1.08s CPU      1.19s WALL (       1 calls)
     stress       :      2.71s CPU      2.76s WALL (       1 calls)

     Called by init_run:
     wfcinit      :      2.81s CPU      2.96s WALL (       1 calls)
     potinit      :      0.09s CPU      0.11s WALL (       1 calls)
     hinit0       :      0.12s CPU      0.13s WALL (       1 calls)

     Called by electrons:
     c_bands      :    101.99s CPU    104.92s WALL (      11 calls)
     sum_band     :     10.59s CPU     11.20s WALL (      11 calls)
     v_of_rho     :      0.10s CPU      0.19s WALL (      11 calls)
     newd         :      0.14s CPU      0.20s WALL (      11 calls)
     PAW_pot      :      0.83s CPU      0.87s WALL (      11 calls)
     mix_rho      :      0.02s CPU      0.04s WALL (      11 calls)

     Called by c_bands:
     init_us_2    :      0.56s CPU      0.57s WALL (     875 calls)
     cegterg      :     99.37s CPU    102.26s WALL (     385 calls)

     Called by sum_band:
     sum_band:bec :      0.15s CPU      0.16s WALL (     385 calls)
     addusdens    :      0.15s CPU      0.20s WALL (      11 calls)

     Called by *egterg:
     h_psi        :     42.60s CPU     44.43s WALL (    1335 calls)
     s_psi        :      2.29s CPU      2.31s WALL (    1335 calls)
     g_psi        :      0.09s CPU      0.09s WALL (     915 calls)
     cdiaghg      :     45.83s CPU     46.03s WALL (    1265 calls)

     Called by h_psi:
     h_psi:pot    :     42.39s CPU     44.21s WALL (    1335 calls)
     h_psi:calbec :      3.44s CPU      4.01s WALL (    1335 calls)
     vloc_psi     :     36.62s CPU     37.84s WALL (    1335 calls)
     add_vuspsi   :      2.32s CPU      2.34s WALL (    1335 calls)

     General routines
     calbec       :      5.54s CPU      6.50s WALL (    1895 calls)
     fft          :      0.11s CPU      0.26s WALL (     168 calls)
     ffts         :      0.02s CPU      0.06s WALL (      22 calls)
     fftw         :     42.49s CPU     43.88s WALL (  327436 calls)
     interpolate  :      0.01s CPU      0.03s WALL (      11 calls)
 
     Parallel routines
     fft_scatt_xy :      2.86s CPU      2.95s WALL (  327626 calls)
     fft_scatt_yz :     28.62s CPU     29.73s WALL (  327626 calls)
 
     PWSCF        :  2m 3.39s CPU     2m10.72s WALL

 
   This run was terminated on:   6:13:38   5Sep2020            

=------------------------------------------------------------------------------=
   JOB DONE.
=------------------------------------------------------------------------------=
