--------------------------------------------------------------------------
WARNING: There was an error initializing an OpenFabrics device.

  Local host:   bear-pg0211u07b
  Local device: mlx5_0
--------------------------------------------------------------------------

     Program PWSCF v.6.3 starts on  5Sep2020 at  6:18: 4 

     This program is part of the open-source Quantum ESPRESSO suite
     for quantum simulation of materials; please cite
         "P. Giannozzi et al., J. Phys.:Condens. Matter 21 395502 (2009);
         "P. Giannozzi et al., J. Phys.:Condens. Matter 29 465901 (2017);
          URL http://www.quantum-espresso.org", 
     in publications or presentations arising from this work. More details at
     http://www.quantum-espresso.org/quote

     Parallel version (MPI & OpenMP), running on      40 processor cores
     Number of MPI processes:                40
     Threads/MPI process:                     1

     MPI processes distributed on     1 nodes
     R & G space division:  proc/nbgrp/npool/nimage =      40
     Reading input from wd/eos/eos_006.in
Warning: card &IONS ignored
Warning: card ION_DYNAMICS = 'BFGS', ignored
Warning: card / ignored
Warning: card &CELL ignored
Warning: card CELL_DYNAMICS = 'BFGS', ignored
Warning: card CELL_FACTOR = 2.0, ignored
Warning: card PRESS = 0.0, ignored
Warning: card / ignored

     Current dimensions of program PWSCF are:
     Max number of different atomic species (ntypx) = 10
     Max number of k-points (npk) =  40000
     Max angular momentum in pseudopotentials (lmaxx) =  3
               file Fe.pbe-spn-kjpaw_psl.1.0.0.UPF: wavefunction(s)  3P 3D renormalized

     Subspace diagonalization in iterative solution of the eigenvalue problem:
     a serial algorithm will be used

 
     Parallelization info
     --------------------
     sticks:   dense  smooth     PW     G-vecs:    dense   smooth      PW
     Min          92      61     17                 4242     2275     339
     Max          93      62     18                 4247     2278     343
     Sum        3705    2449    681               169797    91047   13613
 


     bravais-lattice index     =            0
     lattice parameter (alat)  =      10.3915  a.u.
     unit-cell volume          =    1126.3104 (a.u.)^3
     number of atoms/cell      =           16
     number of atomic types    =            1
     number of electrons       =       256.00
     number of Kohn-Sham states=          154
     kinetic-energy cutoff     =      71.0000  Ry
     charge density cutoff     =     430.0000  Ry
     convergence threshold     =      5.0E-05
     mixing beta               =       0.1000
     number of iterations used =           10  plain     mixing
     Exchange-correlation      = SLA PW PBX PBC ( 1  4  3  4 0 0)

     celldm(1)=  10.391466  celldm(2)=   0.000000  celldm(3)=   0.000000
     celldm(4)=   0.000000  celldm(5)=   0.000000  celldm(6)=   0.000000

     crystal axes: (cart. coord. in units of alat)
               a(1) = (   1.001250   0.000000   0.000000 )  
               a(2) = (   0.000000   1.001250   0.000000 )  
               a(3) = (   0.000000   0.000000   1.001250 )  

     reciprocal axes: (cart. coord. in units 2 pi/alat)
               b(1) = (  0.998752  0.000000  0.000000 )  
               b(2) = (  0.000000  0.998752  0.000000 )  
               b(3) = (  0.000000  0.000000  0.998752 )  


     PseudoPot. # 1 for Fe read from file:
     /rds/homes/b/bxp912/pp/Fe.pbe-spn-kjpaw_psl.1.0.0.UPF
     MD5 check sum: 42f43b795421b414b0dc916aa790dbcb
     Pseudo is Projector augmented-wave + core cor, Zval = 16.0
     Generated using "atomic" code by A. Dal Corso v.6.3
     Shape of augmentation charge: PSQ
     Using radial grid of 1191 points,  6 beta functions with: 
                l(1) =   0
                l(2) =   0
                l(3) =   1
                l(4) =   1
                l(5) =   2
                l(6) =   2
     Q(r) pseudized with 0 coefficients 


     atomic species   valence    mass     pseudopotential
        Fe            16.00    55.84500     Fe( 1.00)

     48 Sym. Ops., with inversion, found



   Cartesian axes

     site n.     atom                  positions (alat units)
         1           Fe  tau(   1) = (   0.0000000   0.0000000   0.0000000  )
         2           Fe  tau(   2) = (   0.2503214   0.2503214   0.2503214  )
         3           Fe  tau(   3) = (   0.0000000   0.0000000   0.5006245  )
         4           Fe  tau(   4) = (   0.2503214   0.2503214   0.7509286  )
         5           Fe  tau(   5) = (   0.0000000   0.5006251   0.0000000  )
         6           Fe  tau(   6) = (   0.2503214   0.7509287   0.2503214  )
         7           Fe  tau(   7) = (   0.0000000   0.5006251   0.5006245  )
         8           Fe  tau(   8) = (   0.2503214   0.7509287   0.7509286  )
         9           Fe  tau(   9) = (   0.5006251   0.0000000   0.0000000  )
        10           Fe  tau(  10) = (   0.7509287   0.2503214   0.2503214  )
        11           Fe  tau(  11) = (   0.5006251   0.0000000   0.5006245  )
        12           Fe  tau(  12) = (   0.7509287   0.2503214   0.7509286  )
        13           Fe  tau(  13) = (   0.5006251   0.5006251   0.0000000  )
        14           Fe  tau(  14) = (   0.7509287   0.7509287   0.2503214  )
        15           Fe  tau(  15) = (   0.5006251   0.5006251   0.5006245  )
        16           Fe  tau(  16) = (   0.7509287   0.7509287   0.7509286  )

     number of k points=    35  Marzari-Vanderbilt smearing, width (Ry)=  0.0400
                       cart. coord. in units 2pi/alat
        k(    1) = (   0.0554862   0.0554862   0.0554862), wk =   0.0219479
        k(    2) = (   0.0554862   0.0554862   0.1664586), wk =   0.0658436
        k(    3) = (   0.0554862   0.0554862   0.2774310), wk =   0.0658436
        k(    4) = (   0.0554862   0.0554862   0.3884034), wk =   0.0658436
        k(    5) = (   0.0554862   0.0554862  -0.4993758), wk =   0.0329218
        k(    6) = (   0.0554862   0.1664586   0.1664586), wk =   0.0658436
        k(    7) = (   0.0554862   0.1664586   0.2774310), wk =   0.1316872
        k(    8) = (   0.0554862   0.1664586   0.3884034), wk =   0.1316872
        k(    9) = (   0.0554862   0.1664586  -0.4993758), wk =   0.0658436
        k(   10) = (   0.0554862   0.2774310   0.2774310), wk =   0.0658436
        k(   11) = (   0.0554862   0.2774310   0.3884034), wk =   0.1316872
        k(   12) = (   0.0554862   0.2774310  -0.4993758), wk =   0.0658436
        k(   13) = (   0.0554862   0.3884034   0.3884034), wk =   0.0658436
        k(   14) = (   0.0554862   0.3884034  -0.4993758), wk =   0.0658436
        k(   15) = (   0.0554862  -0.4993758  -0.4993758), wk =   0.0164609
        k(   16) = (   0.1664586   0.1664586   0.1664586), wk =   0.0219479
        k(   17) = (   0.1664586   0.1664586   0.2774310), wk =   0.0658436
        k(   18) = (   0.1664586   0.1664586   0.3884034), wk =   0.0658436
        k(   19) = (   0.1664586   0.1664586  -0.4993758), wk =   0.0329218
        k(   20) = (   0.1664586   0.2774310   0.2774310), wk =   0.0658436
        k(   21) = (   0.1664586   0.2774310   0.3884034), wk =   0.1316872
        k(   22) = (   0.1664586   0.2774310  -0.4993758), wk =   0.0658436
        k(   23) = (   0.1664586   0.3884034   0.3884034), wk =   0.0658436
        k(   24) = (   0.1664586   0.3884034  -0.4993758), wk =   0.0658436
        k(   25) = (   0.1664586  -0.4993758  -0.4993758), wk =   0.0164609
        k(   26) = (   0.2774310   0.2774310   0.2774310), wk =   0.0219479
        k(   27) = (   0.2774310   0.2774310   0.3884034), wk =   0.0658436
        k(   28) = (   0.2774310   0.2774310  -0.4993758), wk =   0.0329218
        k(   29) = (   0.2774310   0.3884034   0.3884034), wk =   0.0658436
        k(   30) = (   0.2774310   0.3884034  -0.4993758), wk =   0.0658436
        k(   31) = (   0.2774310  -0.4993758  -0.4993758), wk =   0.0164609
        k(   32) = (   0.3884034   0.3884034   0.3884034), wk =   0.0219479
        k(   33) = (   0.3884034   0.3884034  -0.4993758), wk =   0.0329218
        k(   34) = (   0.3884034  -0.4993758  -0.4993758), wk =   0.0164609
        k(   35) = (  -0.4993758  -0.4993758  -0.4993758), wk =   0.0027435

     Dense  grid:   169797 G-vectors     FFT dimensions: (  72,  72,  72)

     Smooth grid:    91047 G-vectors     FFT dimensions: (  60,  60,  60)

     Estimated max dynamical RAM per process >      56.80 MB

     Estimated total dynamical RAM >       2.22 GB

     Check: negative/imaginary core charge=   -0.000006    0.000000

     Initial potential from superposition of free atoms

     starting charge  255.99300, renormalised to  256.00000
     Starting wfcs are  160 randomized atomic wfcs
     Checking if some PAW data can be deallocated... 

     total cpu time spent up to now is        4.1 secs

     Self-consistent Calculation

     iteration #  1     ecut=    71.00 Ry     beta= 0.10
     Davidson diagonalization with overlap
     ethr =  1.00E-02,  avg # of iterations =  3.4

     Threshold (ethr) on eigenvalues was too large:
     Diagonalizing with lowered threshold

     Davidson diagonalization with overlap
     ethr =  2.53E-04,  avg # of iterations =  3.1

     total cpu time spent up to now is       29.3 secs

     total energy              =   -5267.75253696 Ry
     Harris-Foulkes estimate   =   -5267.86763422 Ry
     estimated scf accuracy    <       0.72967318 Ry

     iteration #  2     ecut=    71.00 Ry     beta= 0.10
     Davidson diagonalization with overlap
     ethr =  2.85E-04,  avg # of iterations =  1.0

     total cpu time spent up to now is       37.0 secs

     total energy              =   -5267.61822760 Ry
     Harris-Foulkes estimate   =   -5267.76770268 Ry
     estimated scf accuracy    <       0.36094761 Ry

     iteration #  3     ecut=    71.00 Ry     beta= 0.10
     Davidson diagonalization with overlap
     ethr =  1.41E-04,  avg # of iterations =  3.2

     total cpu time spent up to now is       51.4 secs

     total energy              =   -5267.70176467 Ry
     Harris-Foulkes estimate   =   -5267.72158488 Ry
     estimated scf accuracy    <       0.45490323 Ry

     iteration #  4     ecut=    71.00 Ry     beta= 0.10
     Davidson diagonalization with overlap
     ethr =  1.41E-04,  avg # of iterations =  1.0

     total cpu time spent up to now is       59.1 secs

     total energy              =   -5267.70597060 Ry
     Harris-Foulkes estimate   =   -5267.71216072 Ry
     estimated scf accuracy    <       0.02938820 Ry

     iteration #  5     ecut=    71.00 Ry     beta= 0.10
     Davidson diagonalization with overlap
     ethr =  1.15E-05,  avg # of iterations =  2.2

     total cpu time spent up to now is       69.8 secs

     total energy              =   -5267.70635213 Ry
     Harris-Foulkes estimate   =   -5267.70826991 Ry
     estimated scf accuracy    <       0.02098789 Ry

     iteration #  6     ecut=    71.00 Ry     beta= 0.10
     Davidson diagonalization with overlap
     ethr =  8.20E-06,  avg # of iterations =  2.7

     total cpu time spent up to now is       80.8 secs

     total energy              =   -5267.70889327 Ry
     Harris-Foulkes estimate   =   -5267.70819939 Ry
     estimated scf accuracy    <       0.01086065 Ry

     iteration #  7     ecut=    71.00 Ry     beta= 0.10
     Davidson diagonalization with overlap
     ethr =  4.24E-06,  avg # of iterations =  2.4

     total cpu time spent up to now is       91.1 secs

     total energy              =   -5267.70778567 Ry
     Harris-Foulkes estimate   =   -5267.70940451 Ry
     estimated scf accuracy    <       0.01303535 Ry

     iteration #  8     ecut=    71.00 Ry     beta= 0.10
     Davidson diagonalization with overlap
     ethr =  4.24E-06,  avg # of iterations =  2.1

     total cpu time spent up to now is      100.9 secs

     total energy              =   -5267.70825377 Ry
     Harris-Foulkes estimate   =   -5267.70861843 Ry
     estimated scf accuracy    <       0.00659679 Ry

     iteration #  9     ecut=    71.00 Ry     beta= 0.10
     Davidson diagonalization with overlap
     ethr =  2.58E-06,  avg # of iterations =  2.1

     total cpu time spent up to now is      110.5 secs

     total energy              =   -5267.70852434 Ry
     Harris-Foulkes estimate   =   -5267.70854375 Ry
     estimated scf accuracy    <       0.00035248 Ry

     iteration # 10     ecut=    71.00 Ry     beta= 0.10
     Davidson diagonalization with overlap
     ethr =  1.38E-07,  avg # of iterations =  3.1

     total cpu time spent up to now is      122.2 secs

     End of self-consistent calculation

          k = 0.0555 0.0555 0.0555 ( 11342 PWs)   bands (ev):

   -66.8724 -66.7744 -66.7744 -66.7740 -66.7582 -66.7582 -66.7578 -66.7571
   -66.7571 -66.7566 -66.7563 -66.7563 -66.7560 -66.7492 -66.7488 -66.6737
   -33.1662 -33.1662 -33.1662 -33.1633 -33.1633 -33.1633 -33.0001 -33.0001
   -32.9942 -32.9246 -32.9218 -32.9215 -32.9215 -32.9000 -32.9000 -32.8870
   -32.8864 -32.8864 -32.8497 -32.8497 -32.8254 -32.8094 -32.8094 -32.8093
   -32.7981 -32.7980 -32.7980 -32.7851 -32.7846 -32.7846 -32.7820 -32.7816
   -32.7816 -32.7738 -32.7738 -32.7738 -32.7632 -32.7632 -32.7630 -32.6006
   -32.5988 -32.5988 -32.5988 -32.5961 -32.5960 -32.5960 -32.5939 -32.5939
    11.3949  15.2754  15.2754  15.2755  15.4037  15.4038  15.4038  15.4298
    15.4299  15.4299  15.6748  15.6748  15.7883  15.7883  15.7883  17.1612
    17.2506  17.2506  17.2600  17.2600  17.2600  17.2741  17.2741  17.2741
    17.3913  17.3913  17.4378  17.6936  17.6939  17.6939  18.0864  18.0867
    18.0867  18.5682  18.5682  18.6153  18.8938  18.8938  18.8940  18.9976
    18.9976  18.9977  19.0849  19.0851  19.0851  19.1799  19.1799  19.1799
    19.9244  19.9248  19.9248  20.1466  20.1468  20.1468  20.1739  20.1740
    20.1740  20.3133  20.3135  20.3135  20.3152  20.3154  20.3154  20.3480
    20.3480  20.6003  20.6003  20.6004  20.6086  20.6089  20.6089  20.6548
    20.6548  20.6551  20.6551  21.1429  21.1431  21.1431  21.3662  21.4155
    21.4156  21.4156  21.4446  21.4446  21.8716  21.8716  21.8716  21.8957
    21.8957  21.8957

          k = 0.0555 0.0555 0.1665 ( 11345 PWs)   bands (ev):

   -66.8689 -66.7919 -66.7736 -66.7734 -66.7601 -66.7598 -66.7574 -66.7568
   -66.7566 -66.7559 -66.7555 -66.7552 -66.7498 -66.7493 -66.7402 -66.6763
   -33.1583 -33.1583 -33.1571 -33.1544 -33.1494 -33.1494 -33.0036 -32.9938
   -32.9841 -32.9612 -32.9527 -32.9526 -32.9503 -32.9497 -32.9190 -32.9188
   -32.8839 -32.8565 -32.8463 -32.8448 -32.8328 -32.8093 -32.8091 -32.8009
   -32.7908 -32.7886 -32.7883 -32.7876 -32.7868 -32.7790 -32.7787 -32.7744
   -32.7742 -32.7702 -32.7701 -32.7392 -32.7365 -32.7363 -32.7293 -32.6154
   -32.6083 -32.6082 -32.6068 -32.6040 -32.5996 -32.5991 -32.5990 -32.5965
    11.5325  14.6442  15.3322  15.3322  15.4141  15.4141  15.4943  15.4943
    15.5044  15.5290  15.7373  15.7396  15.8320  15.8320  16.1240  17.0526
    17.1627  17.1716  17.2422  17.2546  17.2852  17.3034  17.3105  17.3105
    17.3518  17.3518  17.5793  17.5912  17.6485  17.6486  17.9876  17.9878
    18.4381  18.5427  18.5636  18.6780  18.6802  18.6803  18.7451  18.8597
    18.8598  18.9034  19.1737  19.1738  19.2896  19.2897  19.3196  19.4198
    19.6136  19.6138  19.6810  19.9062  19.9065  19.9066  20.0669  20.1535
    20.1537  20.2532  20.2534  20.2748  20.3349  20.3369  20.3371  20.3611
    20.3777  20.3961  20.3962  20.4218  20.6118  20.6334  20.6337  20.6525
    20.6530  20.8278  20.9382  20.9382  21.1036  21.1926  21.3060  21.4239
    21.4239  21.4371  21.4753  21.4755  21.7751  21.7751  21.9409  21.9409
    22.0377  22.0377

          k = 0.0555 0.0555 0.2774 ( 11363 PWs)   bands (ev):

   -66.8622 -66.8090 -66.7722 -66.7719 -66.7624 -66.7622 -66.7565 -66.7564
   -66.7561 -66.7551 -66.7550 -66.7547 -66.7508 -66.7501 -66.7248 -66.6814
   -33.1401 -33.1400 -33.1393 -33.1373 -33.1256 -33.1256 -33.0046 -33.0029
   -32.9973 -32.9941 -32.9941 -32.9814 -32.9723 -32.9695 -32.9629 -32.9628
   -32.8791 -32.8688 -32.8666 -32.8515 -32.8073 -32.8071 -32.8023 -32.8016
   -32.7972 -32.7926 -32.7923 -32.7771 -32.7768 -32.7745 -32.7742 -32.7546
   -32.7470 -32.7352 -32.7351 -32.7065 -32.7034 -32.7033 -32.6973 -32.6411
   -32.6237 -32.6236 -32.6222 -32.6204 -32.6112 -32.6084 -32.6083 -32.6060
    11.8037  13.9678  15.4198  15.4198  15.4510  15.4510  15.5921  15.5921
    15.6975  15.7192  15.8528  15.8676  15.8831  15.8831  16.2691  16.8907
    16.9334  16.9369  17.1207  17.1694  17.2099  17.2203  17.4225  17.4225
    17.4908  17.4908  17.6395  17.6397  17.8315  17.8532  17.9193  17.9195
    18.3913  18.3914  18.5262  18.5526  18.5526  18.5567  18.5921  18.6381
    18.7705  19.0368  19.0519  19.0521  19.2677  19.2678  19.4318  19.4319
    19.4502  19.4697  19.4698  19.4754  19.5218  19.5980  19.7081  20.1309
    20.1540  20.1542  20.2517  20.2519  20.3726  20.3865  20.4342  20.4559
    20.4560  20.5936  20.5945  20.6173  20.6475  20.6494  20.6603  20.6881
    20.6881  20.6991  20.8951  20.9303  21.0564  21.1318  21.1319  21.3650
    21.4390  21.4390  21.5279  21.5280  21.6485  21.6485  22.0227  22.0227
    22.1716  22.1716

          k = 0.0555 0.0555 0.3884 ( 11381 PWs)   bands (ev):

   -66.8525 -66.8253 -66.7701 -66.7699 -66.7650 -66.7647 -66.7559 -66.7557
   -66.7552 -66.7549 -66.7547 -66.7539 -66.7522 -66.7513 -66.7109 -66.6890
   -33.1136 -33.1125 -33.1125 -33.1124 -33.0926 -33.0926 -33.0437 -33.0413
   -33.0372 -33.0372 -33.0091 -33.0090 -33.0030 -32.9878 -32.9627 -32.9500
   -32.9108 -32.8979 -32.8524 -32.8405 -32.8171 -32.8108 -32.8043 -32.8041
   -32.7966 -32.7963 -32.7757 -32.7754 -32.7745 -32.7743 -32.7575 -32.7125
   -32.7083 -32.7011 -32.7010 -32.6768 -32.6746 -32.6723 -32.6722 -32.6681
   -32.6447 -32.6445 -32.6444 -32.6444 -32.6285 -32.6239 -32.6238 -32.6220
    12.2001  13.3075  15.4940  15.4941  15.4956  15.4956  15.7092  15.7093
    15.8867  15.8867  15.9669  15.9836  16.0011  16.0563  16.2591  16.5961
    16.6174  16.6251  17.1150  17.1322  17.1710  17.1797  17.5915  17.5915
    17.6854  17.6854  17.7585  17.7587  17.9555  17.9557  18.1313  18.1314
    18.1573  18.1783  18.2452  18.2452  18.5208  18.5230  18.5231  18.5533
    18.5694  18.5806  18.6981  18.6982  18.8953  19.0041  19.0080  19.2388
    19.3461  19.6681  19.6682  19.6956  19.6957  19.9159  19.9214  20.0204
    20.0206  20.0350  20.1184  20.1185  20.4231  20.4323  20.5154  20.5403
    20.5430  20.6082  20.6245  20.6406  20.6466  20.6588  20.7364  20.7414
    20.7562  20.7563  20.8819  20.9746  20.9746  21.1632  21.1632  21.2423
    21.4188  21.4188  21.4576  21.4576  21.5319  21.5319  22.1220  22.1220
    22.2364  22.2365

          k = 0.0555 0.0555-0.4994 ( 11364 PWs)   bands (ev):

   -66.8401 -66.8398 -66.7679 -66.7676 -66.7673 -66.7672 -66.7556 -66.7553
   -66.7550 -66.7548 -66.7539 -66.7536 -66.7527 -66.7525 -66.6990 -66.6987
   -33.0809 -33.0807 -33.0807 -33.0805 -33.0774 -33.0773 -33.0772 -33.0771
   -33.0532 -33.0532 -33.0530 -33.0529 -32.9978 -32.9975 -32.9390 -32.9388
   -32.9262 -32.9261 -32.8349 -32.8346 -32.8262 -32.8260 -32.8007 -32.8005
   -32.8004 -32.8002 -32.7750 -32.7748 -32.7747 -32.7745 -32.7137 -32.7135
   -32.6755 -32.6753 -32.6739 -32.6737 -32.6706 -32.6704 -32.6702 -32.6701
   -32.6507 -32.6504 -32.6454 -32.6452 -32.6451 -32.6451 -32.6428 -32.6427
    12.7080  12.7084  15.5190  15.5190  15.5192  15.5192  15.8200  15.8200
    15.8202  15.8202  16.1511  16.1513  16.2874  16.2877  16.2956  16.2959
    16.3010  16.3014  17.1356  17.1359  17.1449  17.1452  17.8065  17.8065
    17.8068  17.8069  17.9032  17.9032  17.9034  17.9034  18.1101  18.1103
    18.1105  18.1107  18.2697  18.2698  18.2698  18.2701  18.5328  18.5330
    18.5507  18.5507  18.5604  18.5607  18.5644  18.5644  19.0522  19.0525
    19.6547  19.6551  19.8563  19.8563  19.8564  19.8567  19.9306  19.9306
    19.9307  19.9309  20.2599  20.2601  20.3852  20.3854  20.4809  20.4811
    20.4864  20.4866  20.6181  20.6183  20.6325  20.6327  20.6473  20.6475
    21.0129  21.0132  21.0132  21.0132  21.0783  21.0786  21.2249  21.2250
    21.2250  21.2252  21.4797  21.4797  21.4799  21.4800  22.2072  22.2072
    22.2075  22.2075

          k = 0.0555 0.1665 0.1665 ( 11361 PWs)   bands (ev):

   -66.8656 -66.7907 -66.7904 -66.7728 -66.7648 -66.7595 -66.7593 -66.7564
   -66.7551 -66.7549 -66.7515 -66.7506 -66.7495 -66.7406 -66.7403 -66.6788
   -33.1563 -33.1497 -33.1496 -33.1416 -33.1416 -33.1300 -33.0107 -32.9901
   -32.9846 -32.9794 -32.9793 -32.9719 -32.9686 -32.9647 -32.9401 -32.8946
   -32.8797 -32.8792 -32.8455 -32.8441 -32.8438 -32.8151 -32.8041 -32.8038
   -32.7981 -32.7954 -32.7951 -32.7845 -32.7842 -32.7815 -32.7786 -32.7701
   -32.7601 -32.7478 -32.7406 -32.7403 -32.7167 -32.7040 -32.7039 -32.6366
   -32.6235 -32.6145 -32.6145 -32.6067 -32.6067 -32.6045 -32.5957 -32.5940
    11.6686  14.7198  14.7199  15.3572  15.3951  15.5163  15.5163  15.5926
    15.5926  15.6043  15.7992  15.8034  15.8845  16.1658  16.1659  16.9540
    17.0661  17.2428  17.2894  17.2895  17.2931  17.2932  17.3265  17.3266
    17.3325  17.3595  17.4563  17.5630  17.5886  17.6034  17.8822  18.2629
    18.2631  18.4815  18.5444  18.5445  18.5482  18.5932  18.7370  18.7805
    19.0804  19.0808  19.1482  19.1482  19.1933  19.2553  19.3563  19.4556
    19.4556  19.4663  19.4666  19.6549  19.6549  19.8065  19.9111  19.9115
    20.1469  20.2624  20.2749  20.2750  20.3296  20.3327  20.3328  20.3565
    20.3603  20.5368  20.5849  20.6183  20.6185  20.6338  20.6339  20.6436
    20.6447  20.7475  20.7478  20.9646  21.0735  21.0738  21.0896  21.0897
    21.2035  21.4549  21.4634  21.5950  21.6669  22.0159  22.3432  22.3433
    22.5349  22.6878

          k = 0.0555 0.1665 0.2774 ( 11374 PWs)   bands (ev):

   -66.8591 -66.8072 -66.7881 -66.7714 -66.7700 -66.7617 -66.7584 -66.7560
   -66.7546 -66.7542 -66.7519 -66.7500 -66.7482 -66.7411 -66.7255 -66.6837
   -33.1440 -33.1327 -33.1325 -33.1265 -33.1194 -33.1010 -33.0180 -33.0166
   -33.0144 -33.0032 -33.0011 -32.9992 -32.9778 -32.9743 -32.9489 -32.9249
   -32.8833 -32.8774 -32.8416 -32.8398 -32.8376 -32.8355 -32.8167 -32.8081
   -32.8078 -32.8005 -32.7943 -32.7828 -32.7809 -32.7683 -32.7623 -32.7446
   -32.7426 -32.7283 -32.7195 -32.7084 -32.6915 -32.6740 -32.6738 -32.6668
   -32.6439 -32.6271 -32.6269 -32.6219 -32.6159 -32.6143 -32.5989 -32.5978
    11.9365  14.0617  14.8531  15.3090  15.4946  15.5547  15.6900  15.7126
    15.7423  15.7805  15.9135  15.9295  15.9520  16.2019  16.3176  16.8365
    16.9178  16.9475  17.1814  17.2524  17.2689  17.2825  17.3326  17.3932
    17.4162  17.4523  17.5491  17.6211  17.7266  17.7871  17.7912  18.1316
    18.2862  18.3887  18.4059  18.4252  18.4637  18.5094  18.5313  18.7225
    18.7604  18.9126  18.9454  19.0990  19.1593  19.2382  19.2584  19.2619
    19.3423  19.4414  19.4620  19.5128  19.5435  19.6758  19.7011  20.0238
    20.1519  20.1783  20.2167  20.2529  20.2857  20.3185  20.3560  20.3987
    20.5614  20.5767  20.5784  20.6391  20.6444  20.6662  20.6680  20.6828
    20.7322  20.8410  20.8595  20.8712  20.8813  20.9099  20.9634  21.0613
    21.1805  21.3927  21.4470  21.5242  21.6618  22.1559  22.1817  22.7415
    22.8408  22.9665

          k = 0.0555 0.1665 0.3884 ( 11368 PWs)   bands (ev):

   -66.8495 -66.8231 -66.7846 -66.7752 -66.7693 -66.7643 -66.7569 -66.7554
   -66.7546 -66.7536 -66.7531 -66.7510 -66.7455 -66.7420 -66.7120 -66.6910
   -33.1222 -33.1081 -33.1068 -33.1046 -33.0891 -33.0636 -33.0566 -33.0464
   -33.0406 -33.0392 -33.0198 -33.0134 -33.0118 -32.9733 -32.9597 -32.9260
   -32.9085 -32.8694 -32.8654 -32.8338 -32.8334 -32.8254 -32.8173 -32.8148
   -32.8073 -32.8058 -32.7904 -32.7820 -32.7814 -32.7557 -32.7458 -32.7322
   -32.7068 -32.7034 -32.6971 -32.6916 -32.6794 -32.6691 -32.6665 -32.6475
   -32.6465 -32.6449 -32.6444 -32.6441 -32.6325 -32.6271 -32.6084 -32.6082
    12.3276  13.4162  15.0096  15.2472  15.5831  15.5993  15.8068  15.8985
    15.9726  15.9862  16.0394  16.0618  16.1117  16.1670  16.3149  16.6277
    16.6282  16.6429  17.1507  17.1936  17.2081  17.2320  17.5023  17.5427
    17.5573  17.6142  17.6162  17.7653  17.8375  17.9740  18.0153  18.0766
    18.1863  18.1969  18.2566  18.2676  18.3872  18.3875  18.4317  18.4684
    18.4827  18.5139  18.5897  18.7285  18.7912  18.7917  19.0694  19.4525
    19.4875  19.6444  19.6459  19.7026  19.7054  19.7244  19.8938  19.9693
    19.9902  20.0478  20.1189  20.1613  20.3277  20.3792  20.4026  20.4816
    20.5172  20.5229  20.5276  20.6366  20.6428  20.6522  20.6525  20.7133
    20.7270  20.7609  20.7971  20.9206  20.9259  21.0199  21.0643  21.1631
    21.1685  21.1749  21.3688  21.5653  21.6435  21.9999  22.3371  22.6711
    23.0165  23.1649

          k = 0.0555 0.1665-0.4994 ( 11366 PWs)   bands (ev):

   -66.8374 -66.8372 -66.7803 -66.7800 -66.7670 -66.7667 -66.7554 -66.7552
   -66.7549 -66.7547 -66.7522 -66.7520 -66.7436 -66.7434 -66.7006 -66.7003
   -33.0925 -33.0925 -33.0775 -33.0773 -33.0771 -33.0769 -33.0747 -33.0746
   -33.0527 -33.0526 -33.0204 -33.0203 -33.0185 -33.0183 -32.9363 -32.9361
   -32.8993 -32.8992 -32.8456 -32.8454 -32.8263 -32.8261 -32.8213 -32.8211
   -32.8108 -32.8106 -32.7818 -32.7817 -32.7501 -32.7499 -32.7455 -32.7454
   -32.6990 -32.6989 -32.6730 -32.6727 -32.6688 -32.6686 -32.6660 -32.6659
   -32.6538 -32.6536 -32.6447 -32.6447 -32.6253 -32.6253 -32.6243 -32.6242
    12.8277  12.8281  15.1489  15.1491  15.6187  15.6189  15.9149  15.9151
    16.0521  16.0523  16.2109  16.2111  16.3098  16.3101  16.3384  16.3387
    16.3465  16.3469  17.1686  17.1689  17.1929  17.1932  17.7026  17.7027
    17.7221  17.7222  17.7486  17.7487  17.8120  17.8123  18.1311  18.1312
    18.1727  18.1729  18.2390  18.2392  18.3578  18.3579  18.3730  18.3732
    18.3762  18.3762  18.4175  18.4175  18.4988  18.4990  19.2501  19.2504
    19.7391  19.7394  19.7651  19.7653  19.8868  19.8870  19.9324  19.9326
    19.9707  19.9709  19.9786  19.9787  20.3162  20.3164  20.4482  20.4484
    20.4612  20.4614  20.5869  20.5871  20.6362  20.6364  20.6747  20.6749
    20.7853  20.7854  20.8854  20.8855  20.9957  20.9959  21.0731  21.0732
    21.2375  21.2377  21.3987  21.3988  21.8105  21.8107  22.5232  22.5234
    23.1520  23.1523

          k = 0.0555 0.2774 0.2774 ( 11367 PWs)   bands (ev):

   -66.8529 -66.8039 -66.8036 -66.7779 -66.7699 -66.7607 -66.7604 -66.7556
   -66.7540 -66.7537 -66.7534 -66.7503 -66.7422 -66.7272 -66.7269 -66.6882
   -33.1377 -33.1177 -33.1177 -33.1075 -33.1074 -33.0673 -33.0338 -33.0336
   -33.0306 -33.0294 -33.0208 -33.0177 -32.9953 -32.9664 -32.9242 -32.8843
   -32.8816 -32.8812 -32.8716 -32.8713 -32.8368 -32.8256 -32.8233 -32.8151
   -32.8149 -32.8019 -32.8015 -32.7929 -32.7927 -32.7874 -32.7488 -32.7208
   -32.7127 -32.7123 -32.7054 -32.7022 -32.6989 -32.6749 -32.6687 -32.6474
   -32.6473 -32.6345 -32.6345 -32.6264 -32.6262 -32.6262 -32.5958 -32.5947
    12.1975  14.2369  14.2370  15.1490  15.6186  15.7534  15.7534  15.8760
    15.8761  15.9028  16.0149  16.0545  16.0605  16.3598  16.3598  16.7749
    16.8352  17.0251  17.0251  17.2408  17.3141  17.3421  17.3421  17.3863
    17.3863  17.4529  17.4703  17.6515  17.6726  17.7715  17.8101  18.1808
    18.1809  18.2908  18.3102  18.3105  18.3216  18.3348  18.3872  18.4975
    18.7408  18.7408  18.8038  18.8038  18.9650  19.0113  19.0117  19.0902
    19.5283  19.5284  19.5855  19.6263  19.6740  19.6743  19.8905  19.9737
    19.9741  20.1447  20.2290  20.2290  20.2573  20.2763  20.2763  20.3376
    20.3736  20.5337  20.5351  20.5425  20.6373  20.6471  20.6824  20.7363
    20.7466  20.7469  20.7982  20.8238  20.8238  20.9320  20.9323  21.1122
    21.1123  21.1519  21.4993  21.6903  21.7017  22.3905  22.8107  22.8109
    23.4137  23.4138

          k = 0.0555 0.2774 0.3884 ( 11386 PWs)   bands (ev):

   -66.8437 -66.8187 -66.7988 -66.7856 -66.7679 -66.7631 -66.7590 -66.7553
   -66.7549 -66.7540 -66.7530 -66.7510 -66.7370 -66.7295 -66.7145 -66.6950
   -33.1220 -33.0970 -33.0963 -33.0910 -33.0822 -33.0678 -33.0503 -33.0441
   -33.0433 -33.0419 -33.0390 -33.0268 -33.0229 -32.9493 -32.9311 -32.9009
   -32.8968 -32.8729 -32.8626 -32.8379 -32.8355 -32.8346 -32.8343 -32.8299
   -32.8287 -32.8219 -32.8059 -32.7926 -32.7911 -32.7651 -32.7432 -32.7370
   -32.7187 -32.6976 -32.6930 -32.6853 -32.6830 -32.6784 -32.6587 -32.6467
   -32.6460 -32.6439 -32.6416 -32.6339 -32.6255 -32.6250 -32.5987 -32.5983
    12.5773  13.6248  14.4683  14.9533  15.7399  15.7960  15.9898  16.0277
    16.0661  16.1185  16.1283  16.1470  16.2452  16.3259  16.3718  16.6416
    16.6438  16.7344  17.2202  17.2272  17.2642  17.2824  17.3123  17.4471
    17.4597  17.4987  17.5814  17.5845  17.8323  17.9239  17.9282  17.9478
    18.0584  18.1569  18.1666  18.2274  18.2394  18.2686  18.3497  18.3764
    18.3905  18.4563  18.4592  18.4710  18.6071  18.6691  19.2883  19.3038
    19.6671  19.6830  19.7366  19.7744  19.7770  19.7849  19.7874  19.8788
    19.9837  20.0396  20.1062  20.1462  20.1696  20.2848  20.3013  20.3279
    20.4274  20.4470  20.4662  20.4706  20.5744  20.6430  20.6597  20.6648
    20.6848  20.7558  20.7629  20.7845  20.7925  20.8679  20.8897  20.9542
    21.2837  21.3436  21.4875  21.6426  21.9558  22.5389  22.6794  23.2337
    23.4847  24.1038

          k = 0.0555 0.2774-0.4994 ( 11384 PWs)   bands (ev):

   -66.8323 -66.8321 -66.7927 -66.7925 -66.7657 -66.7655 -66.7573 -66.7571
   -66.7544 -66.7542 -66.7521 -66.7519 -66.7330 -66.7327 -66.7039 -66.7037
   -33.0983 -33.0982 -33.0713 -33.0713 -33.0711 -33.0711 -33.0707 -33.0706
   -33.0531 -33.0530 -33.0434 -33.0433 -32.9804 -32.9803 -32.9273 -32.9271
   -32.8665 -32.8664 -32.8549 -32.8547 -32.8512 -32.8510 -32.8270 -32.8269
   -32.8193 -32.8191 -32.7924 -32.7923 -32.7886 -32.7885 -32.7302 -32.7301
   -32.7270 -32.7268 -32.6665 -32.6664 -32.6629 -32.6628 -32.6615 -32.6613
   -32.6605 -32.6605 -32.6448 -32.6448 -32.6089 -32.6089 -32.6084 -32.6083
    13.0605  13.0609  14.7193  14.7196  15.8028  15.8030  16.0882  16.0884
    16.2160  16.2162  16.2820  16.2822  16.3437  16.3439  16.4070  16.4072
    16.4720  16.4723  17.2329  17.2332  17.2589  17.2592  17.5233  17.5235
    17.5434  17.5436  17.5537  17.5539  17.7432  17.7434  18.1176  18.1177
    18.1451  18.1452  18.1541  18.1542  18.1843  18.1843  18.1858  18.1859
    18.3448  18.3449  18.3619  18.3620  18.4200  18.4203  19.5032  19.5034
    19.6320  19.6321  19.6999  19.7001  19.8714  19.8716  19.9555  19.9557
    19.9728  19.9729  20.0062  20.0063  20.1470  20.1472  20.3845  20.3847
    20.3972  20.3973  20.5303  20.5305  20.5747  20.5748  20.6564  20.6566
    20.6861  20.6863  20.7050  20.7051  20.7979  20.7980  20.9255  20.9256
    21.4124  21.4125  21.5249  21.5250  22.2469  22.2471  22.9749  22.9751
    24.1778  24.1782

          k = 0.0555 0.3884 0.3884 ( 11363 PWs)   bands (ev):

   -66.8354 -66.8125 -66.8122 -66.7954 -66.7661 -66.7615 -66.7613 -66.7573
   -66.7543 -66.7533 -66.7530 -66.7515 -66.7296 -66.7184 -66.7182 -66.7009
   -33.1123 -33.0821 -33.0821 -33.0733 -33.0733 -33.0706 -33.0705 -33.0561
   -33.0549 -33.0532 -33.0523 -33.0370 -32.9827 -32.9334 -32.8894 -32.8891
   -32.8847 -32.8842 -32.8705 -32.8649 -32.8571 -32.8411 -32.8409 -32.8393
   -32.8252 -32.8053 -32.8052 -32.7993 -32.7988 -32.7983 -32.7884 -32.7290
   -32.7202 -32.6944 -32.6940 -32.6755 -32.6694 -32.6660 -32.6553 -32.6517
   -32.6503 -32.6502 -32.6445 -32.6444 -32.6086 -32.6085 -32.5951 -32.5949
    12.9384  13.9148  13.9149  14.6161  15.9148  16.0607  16.0608  16.2069
    16.2300  16.2300  16.2421  16.2577  16.3703  16.3704  16.4446  16.5581
    16.6158  16.9511  16.9512  17.2649  17.2820  17.3449  17.3671  17.3671
    17.3769  17.3769  17.4630  17.5860  17.6605  17.7737  17.8833  17.9613
    17.9614  18.0562  18.1126  18.1314  18.1452  18.1452  18.1787  18.1787
    18.3123  18.3152  18.3155  18.4018  18.4399  18.9516  18.9520  19.5253
    19.6233  19.7061  19.7676  19.7679  19.8875  19.8876  19.9056  19.9160
    20.0312  20.0316  20.0715  20.1558  20.1924  20.1924  20.1946  20.2105
    20.2106  20.3881  20.3914  20.4031  20.4929  20.5878  20.5879  20.6140
    20.6588  20.6890  20.7218  20.7221  20.7589  20.8148  20.8152  20.8391
    21.4690  21.4691  21.5474  21.6535  22.3312  23.0752  23.1158  23.1160
    23.8448  23.8449

          k = 0.0555 0.3884-0.4994 ( 11386 PWs)   bands (ev):

   -66.8249 -66.8246 -66.8046 -66.8044 -66.7640 -66.7637 -66.7595 -66.7593
   -66.7537 -66.7535 -66.7525 -66.7522 -66.7235 -66.7232 -66.7088 -66.7086
   -33.0950 -33.0949 -33.0666 -33.0665 -33.0664 -33.0663 -33.0661 -33.0660
   -33.0642 -33.0640 -33.0545 -33.0544 -32.9345 -32.9344 -32.9133 -32.9131
   -32.8747 -32.8745 -32.8591 -32.8589 -32.8433 -32.8432 -32.8363 -32.8363
   -32.8320 -32.8319 -32.8172 -32.8170 -32.8038 -32.8037 -32.7631 -32.7630
   -32.7060 -32.7058 -32.6730 -32.6728 -32.6588 -32.6586 -32.6584 -32.6583
   -32.6566 -32.6566 -32.6470 -32.6469 -32.5984 -32.5984 -32.5984 -32.5982
    13.3928  13.3931  14.2575  14.2579  16.0346  16.0347  16.2967  16.2969
    16.3113  16.3115  16.3283  16.3286  16.3435  16.3437  16.4691  16.4693
    16.6857  16.6859  17.2482  17.2484  17.2935  17.2936  17.2951  17.2953
    17.3595  17.3597  17.4163  17.4164  17.7894  17.7896  17.9128  17.9129
    17.9982  17.9983  18.0061  18.0063  18.0177  18.0179  18.0676  18.0677
    18.3320  18.3322  18.3538  18.3540  18.6157  18.6157  19.2733  19.2733
    19.7024  19.7026  19.7731  19.7733  19.9528  19.9530  20.0059  20.0061
    20.0588  20.0589  20.0592  20.0594  20.0623  20.0625  20.2918  20.2920
    20.2988  20.2989  20.3260  20.3262  20.4664  20.4666  20.5165  20.5167
    20.6829  20.6831  20.7335  20.7336  20.7462  20.7463  20.8272  20.8273
    21.5399  21.5399  21.5950  21.5951  22.7264  22.7267  23.4764  23.4767
    23.7063  23.7066

          k = 0.0555-0.4994-0.4994 ( 11396 PWs)   bands (ev):

   -66.8156 -66.8155 -66.8153 -66.8151 -66.7619 -66.7618 -66.7616 -66.7614
   -66.7532 -66.7531 -66.7529 -66.7526 -66.7155 -66.7155 -66.7153 -66.7150
   -33.0839 -33.0839 -33.0839 -33.0837 -33.0648 -33.0647 -33.0646 -33.0646
   -33.0583 -33.0583 -33.0582 -33.0582 -32.8958 -32.8957 -32.8954 -32.8953
   -32.8861 -32.8860 -32.8856 -32.8856 -32.8550 -32.8550 -32.8550 -32.8549
   -32.8123 -32.8123 -32.8122 -32.8121 -32.7978 -32.7976 -32.7972 -32.7972
   -32.6881 -32.6880 -32.6877 -32.6875 -32.6560 -32.6559 -32.6558 -32.6558
   -32.6516 -32.6515 -32.6514 -32.6514 -32.5950 -32.5950 -32.5949 -32.5948
    13.8022  13.8023  13.8025  13.8027  16.2419  16.2421  16.2422  16.2422
    16.3435  16.3436  16.3437  16.3439  16.4499  16.4501  16.4502  16.4502
    16.9538  16.9539  16.9541  16.9541  17.2872  17.2872  17.2873  17.2874
    17.3345  17.3346  17.3346  17.3347  17.8827  17.8830  17.8830  17.8830
    17.8911  17.8913  17.8913  17.8915  17.9786  17.9787  17.9787  17.9790
    18.3222  18.3222  18.3224  18.3228  18.9288  18.9288  18.9292  18.9292
    19.7910  19.7910  19.7911  19.7916  20.0444  20.0447  20.0449  20.0449
    20.0865  20.0866  20.0866  20.0867  20.1784  20.1785  20.1786  20.1787
    20.1802  20.1802  20.1804  20.1804  20.4437  20.4438  20.4439  20.4442
    20.7115  20.7115  20.7118  20.7119  20.7691  20.7691  20.7694  20.7695
    21.6015  21.6015  21.6016  21.6016  23.2188  23.2192  23.2192  23.2194
    23.9857  23.9859

          k = 0.1665 0.1665 0.1665 ( 11332 PWs)   bands (ev):

   -66.8623 -66.7894 -66.7894 -66.7890 -66.7643 -66.7643 -66.7639 -66.7523
   -66.7514 -66.7514 -66.7509 -66.7488 -66.7408 -66.7408 -66.7404 -66.6811
   -33.1475 -33.1474 -33.1474 -33.1237 -33.1237 -33.1237 -33.0051 -33.0037
   -33.0037 -32.9963 -32.9962 -32.9962 -32.9491 -32.9432 -32.9432 -32.9024
   -32.9019 -32.9019 -32.8511 -32.8510 -32.8510 -32.8071 -32.8067 -32.8067
   -32.7972 -32.7972 -32.7795 -32.7793 -32.7793 -32.7747 -32.7743 -32.7743
   -32.7431 -32.7430 -32.7430 -32.7346 -32.6877 -32.6877 -32.6876 -32.6576
   -32.6272 -32.6272 -32.6272 -32.6037 -32.6036 -32.6036 -32.5999 -32.5999
    11.8032  14.7995  14.7995  14.7995  15.4638  15.4639  15.4639  15.6997
    15.6998  15.6998  15.8638  15.8638  16.2192  16.2192  16.2192  16.8728
    17.1739  17.1739  17.2681  17.2682  17.2682  17.3120  17.3121  17.3121
    17.4214  17.4214  17.4214  17.4476  17.5273  17.5273  18.1119  18.1123
    18.1123  18.4660  18.4661  18.4663  18.4689  18.4689  18.8953  18.8965
    18.8968  18.8968  19.0864  19.0865  19.0865  19.2631  19.2631  19.2631
    19.4846  19.4846  19.4847  19.5429  19.5431  19.5431  20.1098  20.1103
    20.1103  20.1829  20.1830  20.1830  20.2966  20.2966  20.3342  20.3343
    20.3343  20.5878  20.5881  20.5881  20.6186  20.6186  20.6212  20.6212
    20.6897  20.7398  20.7398  20.7399  21.0870  21.0870  21.0870  21.3002
    21.3005  21.3005  21.3262  21.3262  22.0450  22.0451  22.0451  22.8028
    22.8028  22.8028

          k = 0.1665 0.1665 0.2774 ( 11388 PWs)   bands (ev):

   -66.8560 -66.8056 -66.7870 -66.7867 -66.7694 -66.7692 -66.7629 -66.7543
   -66.7507 -66.7487 -66.7482 -66.7479 -66.7414 -66.7411 -66.7262 -66.6859
   -33.1355 -33.1355 -33.1300 -33.1117 -33.0967 -33.0967 -33.0271 -33.0243
   -33.0243 -33.0153 -33.0134 -32.9908 -32.9902 -32.9384 -32.9382 -32.9263
   -32.9203 -32.8862 -32.8595 -32.8525 -32.8524 -32.8230 -32.8187 -32.8185
   -32.8115 -32.8055 -32.7823 -32.7665 -32.7663 -32.7520 -32.7492 -32.7491
   -32.7460 -32.7459 -32.7095 -32.7093 -32.6891 -32.6657 -32.6656 -32.6614
   -32.6443 -32.6443 -32.6348 -32.6201 -32.6120 -32.6065 -32.6064 -32.6007
    12.0682  14.1578  14.9405  14.9406  15.4195  15.4195  15.6695  15.8363
    15.8364  15.8813  15.9823  15.9825  16.2761  16.2762  16.3796  16.7922
    16.9481  17.0119  17.1470  17.2747  17.2791  17.2792  17.3616  17.3818
    17.3912  17.3913  17.5535  17.5672  17.5672  17.7452  17.9688  17.9690
    18.2557  18.2855  18.2856  18.3705  18.3898  18.4455  18.6389  18.6390
    18.6527  18.6528  18.8811  19.0224  19.0226  19.0388  19.0491  19.0936
    19.3858  19.4875  19.4875  19.6328  19.6328  19.7946  19.8782  20.0724
    20.0725  20.1797  20.2484  20.2760  20.2761  20.3531  20.3587  20.3607
    20.3803  20.3806  20.5731  20.5745  20.5932  20.6169  20.6315  20.6344
    20.6345  20.8520  20.9071  20.9072  20.9354  21.0063  21.0801  21.0906
    21.0906  21.3721  21.3817  21.3819  21.7818  21.7819  22.6711  23.0020
    23.0021  23.4374

          k = 0.1665 0.1665 0.3884 ( 11382 PWs)   bands (ev):

   -66.8466 -66.8209 -66.7835 -66.7833 -66.7744 -66.7742 -66.7611 -66.7566
   -66.7501 -66.7489 -66.7457 -66.7454 -66.7423 -66.7420 -66.7132 -66.6929
   -33.1153 -33.1153 -33.1046 -33.0942 -33.0623 -33.0622 -33.0563 -33.0563
   -33.0502 -33.0336 -33.0231 -33.0228 -32.9802 -32.9801 -32.9717 -32.9186
   -32.9009 -32.8951 -32.8483 -32.8481 -32.8448 -32.8427 -32.8304 -32.8302
   -32.8145 -32.8058 -32.7917 -32.7593 -32.7591 -32.7494 -32.7492 -32.7268
   -32.7189 -32.7188 -32.7104 -32.6851 -32.6789 -32.6657 -32.6657 -32.6471
   -32.6445 -32.6444 -32.6438 -32.6383 -32.6293 -32.6140 -32.6140 -32.6074
    12.4545  13.5260  15.1073  15.1073  15.3584  15.3585  15.9583  15.9926
    15.9927  16.1281  16.1334  16.1566  16.2574  16.2575  16.3845  16.6458
    16.6480  16.6740  17.1540  17.2291  17.2676  17.2951  17.4166  17.4168
    17.5217  17.5217  17.7319  17.7320  17.8319  17.8491  17.8492  18.0079
    18.1603  18.1604  18.2403  18.2404  18.3167  18.3324  18.3329  18.3656
    18.3656  18.4153  18.5644  18.5645  18.5915  18.6058  19.2275  19.3488
    19.5856  19.6465  19.7313  19.7313  19.7377  19.7377  19.9552  19.9552
    20.0054  20.0127  20.0960  20.1531  20.1531  20.3316  20.3980  20.4504
    20.5043  20.5177  20.6000  20.6132  20.6174  20.6176  20.6580  20.6887
    20.7043  20.7044  20.7670  20.8195  21.0877  21.0878  21.1113  21.1354
    21.1354  21.3438  21.3523  21.3524  21.5262  21.5263  23.2354  23.2355
    23.3619  23.5334

          k = 0.1665 0.1665-0.4994 ( 11380 PWs)   bands (ev):

   -66.8348 -66.8346 -66.7796 -66.7792 -66.7790 -66.7788 -66.7590 -66.7588
   -66.7496 -66.7493 -66.7440 -66.7436 -66.7434 -66.7432 -66.7022 -66.7020
   -33.0879 -33.0878 -33.0878 -33.0877 -33.0732 -33.0731 -33.0723 -33.0720
   -33.0259 -33.0258 -33.0228 -33.0228 -33.0226 -33.0225 -32.9476 -32.9474
   -32.8730 -32.8729 -32.8697 -32.8695 -32.8404 -32.8402 -32.8402 -32.8400
   -32.8005 -32.8002 -32.7695 -32.7694 -32.7538 -32.7536 -32.7536 -32.7534
   -32.6907 -32.6907 -32.6904 -32.6902 -32.6740 -32.6738 -32.6643 -32.6641
   -32.6521 -32.6518 -32.6271 -32.6269 -32.6269 -32.6268 -32.6202 -32.6201
    12.9475  12.9479  15.2558  15.2559  15.2561  15.2561  16.1467  16.1467
    16.1468  16.1469  16.2833  16.2835  16.3050  16.3053  16.3806  16.3810
    16.4034  16.4036  17.1852  17.1855  17.2494  17.2497  17.6738  17.6738
    17.6741  17.6742  17.6878  17.6878  17.6881  17.6882  18.1373  18.1373
    18.1375  18.1377  18.1834  18.1834  18.2527  18.2529  18.2530  18.2530
    18.3026  18.3027  18.3055  18.3057  18.3792  18.3794  19.4273  19.4276
    19.6594  19.6594  19.8072  19.8075  19.8395  19.8395  19.8396  19.8398
    19.9680  19.9680  19.9682  19.9682  20.4204  20.4206  20.4281  20.4283
    20.4559  20.4561  20.5593  20.5595  20.6073  20.6075  20.7133  20.7134
    20.7221  20.7223  20.7223  20.7224  21.2456  21.2457  21.2457  21.2459
    21.2522  21.2523  21.2884  21.2886  21.2887  21.2888  23.4388  23.4388
    23.4391  23.4391

          k = 0.1665 0.2774 0.2774 ( 11389 PWs)   bands (ev):

   -66.8498 -66.8022 -66.8020 -66.7846 -66.7769 -66.7678 -66.7676 -66.7571
   -66.7480 -66.7478 -66.7476 -66.7423 -66.7416 -66.7279 -66.7276 -66.6903
   -33.1291 -33.1191 -33.1190 -33.0887 -33.0887 -33.0657 -33.0396 -33.0375
   -33.0374 -33.0374 -33.0227 -32.9999 -32.9877 -32.9626 -32.9315 -32.9000
   -32.8970 -32.8966 -32.8870 -32.8869 -32.8631 -32.8379 -32.8377 -32.8368
   -32.7906 -32.7803 -32.7800 -32.7725 -32.7722 -32.7512 -32.7503 -32.7351
   -32.7248 -32.7226 -32.7130 -32.7128 -32.6909 -32.6655 -32.6539 -32.6464
   -32.6464 -32.6431 -32.6431 -32.6212 -32.6211 -32.6194 -32.6035 -32.6007
    12.3269  14.3377  14.3378  15.0976  15.2647  15.6326  15.6326  15.9955
    16.0142  16.0142  16.0841  16.1114  16.3811  16.4452  16.4453  16.7634
    16.9480  17.0014  17.0014  17.2056  17.2272  17.3469  17.3470  17.4251
    17.4322  17.4456  17.4763  17.4763  17.7230  17.7315  17.8130  18.0798
    18.0799  18.1793  18.2262  18.2264  18.2890  18.2991  18.3882  18.4540
    18.5150  18.5151  18.6637  18.6638  18.7347  18.7967  18.7970  19.2359
    19.5901  19.5901  19.6238  19.7495  19.8226  19.8228  19.9647  20.0045
    20.1591  20.1592  20.1643  20.1647  20.1833  20.2584  20.2963  20.2964
    20.3337  20.5415  20.5443  20.5451  20.5720  20.6029  20.6117  20.6120
    20.6284  20.8176  20.8176  20.9292  20.9581  21.0758  21.0759  21.0944
    21.0946  21.1860  21.3630  21.4623  21.4668  22.3294  22.3295  23.2738
    24.0517  24.0520

          k = 0.1665 0.2774 0.3884 ( 11378 PWs)   bands (ev):

   -66.8410 -66.8166 -66.7973 -66.7844 -66.7812 -66.7725 -66.7655 -66.7600
   -66.7476 -66.7474 -66.7455 -66.7425 -66.7373 -66.7300 -66.7156 -66.6968
   -33.1140 -33.1015 -33.0954 -33.0777 -33.0649 -33.0599 -33.0569 -33.0521
   -33.0426 -33.0335 -33.0316 -33.0278 -32.9935 -32.9708 -32.9404 -32.9189
   -32.9147 -32.8802 -32.8717 -32.8661 -32.8627 -32.8539 -32.8521 -32.8513
   -32.8110 -32.7887 -32.7794 -32.7647 -32.7627 -32.7544 -32.7481 -32.7382
   -32.7189 -32.7024 -32.7009 -32.6900 -32.6830 -32.6742 -32.6612 -32.6516
   -32.6425 -32.6420 -32.6355 -32.6264 -32.6252 -32.6248 -32.6058 -32.6035
    12.7030  13.7367  14.5755  15.0706  15.2870  15.5720  15.9321  16.1599
    16.1692  16.2229  16.2517  16.2864  16.4135  16.4230  16.4627  16.6622
    16.6889  16.7356  17.1892  17.2085  17.2880  17.2926  17.3339  17.3775
    17.4592  17.5518  17.5741  17.6164  17.6972  17.8407  17.8790  17.8873
    18.0002  18.0612  18.1196  18.1578  18.1792  18.2094  18.2396  18.2529
    18.2802  18.2972  18.3215  18.3393  18.4219  18.4986  19.0154  19.4473
    19.6425  19.7451  19.8125  19.8142  19.8183  19.8602  19.8792  19.9228
    20.0622  20.0758  20.0785  20.1740  20.1775  20.2663  20.3455  20.4003
    20.4553  20.4735  20.4805  20.5619  20.6019  20.6047  20.6421  20.6580
    20.6641  20.6755  20.6832  20.7859  20.8808  20.9864  21.1032  21.1659
    21.2200  21.2377  21.3693  21.3956  21.4581  22.0048  22.9376  23.5909
    24.0874  24.2083

          k = 0.1665 0.2774-0.4994 ( 11380 PWs)   bands (ev):

   -66.8299 -66.8296 -66.7914 -66.7911 -66.7772 -66.7770 -66.7629 -66.7627
   -66.7475 -66.7473 -66.7439 -66.7436 -66.7333 -66.7331 -66.7054 -66.7051
   -33.0919 -33.0918 -33.0797 -33.0796 -33.0656 -33.0654 -33.0651 -33.0650
   -33.0410 -33.0408 -33.0271 -33.0271 -32.9851 -32.9850 -32.9473 -32.9471
   -32.8897 -32.8896 -32.8688 -32.8687 -32.8615 -32.8613 -32.8416 -32.8415
   -32.8069 -32.8068 -32.7856 -32.7854 -32.7591 -32.7589 -32.7275 -32.7274
   -32.7178 -32.7177 -32.6795 -32.6794 -32.6701 -32.6699 -32.6611 -32.6609
   -32.6571 -32.6569 -32.6322 -32.6322 -32.6134 -32.6134 -32.6116 -32.6115
    13.1805  13.1809  14.8330  14.8333  15.4577  15.4579  16.2905  16.2908
    16.3123  16.3124  16.3209  16.3211  16.3678  16.3680  16.4953  16.4956
    16.5029  16.5031  17.2406  17.2409  17.3112  17.3115  17.4833  17.4835
    17.4988  17.4990  17.5875  17.5877  17.7031  17.7033  17.9213  17.9213
    18.0748  18.0750  18.0981  18.0982  18.0989  18.0990  18.1490  18.1492
    18.2179  18.2181  18.2185  18.2186  18.2880  18.2882  19.3034  19.3035
    19.6768  19.6771  19.8299  19.8301  19.9206  19.9209  19.9627  19.9629
    20.0094  20.0095  20.0165  20.0166  20.3730  20.3731  20.3760  20.3762
    20.4108  20.4110  20.5090  20.5093  20.5957  20.5959  20.6026  20.6028
    20.6894  20.6896  20.7429  20.7430  20.8918  20.8920  21.0561  21.0562
    21.3219  21.3220  21.3750  21.3751  21.6872  21.6875  23.5687  23.5691
    23.8874  23.8877

          k = 0.1665 0.3884 0.3884 ( 11386 PWs)   bands (ev):

   -66.8328 -66.8106 -66.8103 -66.7939 -66.7781 -66.7701 -66.7699 -66.7635
   -66.7464 -66.7457 -66.7454 -66.7431 -66.7302 -66.7194 -66.7191 -66.7025
   -33.1044 -33.0828 -33.0827 -33.0658 -33.0658 -33.0613 -33.0572 -33.0572
   -33.0534 -33.0477 -33.0415 -33.0122 -32.9868 -32.9575 -32.9156 -32.9103
   -32.9101 -32.8964 -32.8959 -32.8792 -32.8766 -32.8765 -32.8758 -32.8408
   -32.8051 -32.7813 -32.7786 -32.7783 -32.7711 -32.7710 -32.7598 -32.7195
   -32.7175 -32.6918 -32.6915 -32.6837 -32.6835 -32.6655 -32.6590 -32.6588
   -32.6491 -32.6413 -32.6413 -32.6403 -32.6128 -32.6127 -32.6026 -32.6014
    13.0619  14.0297  14.0297  14.7353  15.5125  15.8673  15.8674  16.3015
    16.3212  16.3987  16.3988  16.4662  16.4663  16.4816  16.5067  16.5513
    16.7122  16.9499  16.9500  17.2132  17.2731  17.3206  17.3849  17.3849
    17.4148  17.4149  17.5583  17.5706  17.5775  17.6314  17.8413  17.9228
    17.9229  17.9349  17.9997  17.9998  18.0694  18.0694  18.0831  18.1204
    18.1429  18.1798  18.1801  18.2684  18.2762  18.6907  18.6910  19.2824
    19.6929  19.8530  19.9219  19.9219  19.9462  19.9810  19.9813  19.9898
    20.1084  20.1700  20.1893  20.1893  20.2238  20.2242  20.2392  20.2393
    20.3817  20.4088  20.4106  20.4621  20.4923  20.5806  20.5807  20.6078
    20.6347  20.6350  20.6840  20.6936  20.8487  20.9023  20.9026  20.9236
    21.3491  21.3492  21.4104  21.4879  21.7490  22.5337  22.5339  23.6406
    24.0016  24.7209

          k = 0.1665 0.3884-0.4994 ( 11380 PWs)   bands (ev):

   -66.8226 -66.8224 -66.8029 -66.8027 -66.7744 -66.7741 -66.7670 -66.7668
   -66.7460 -66.7457 -66.7442 -66.7440 -66.7243 -66.7240 -66.7101 -66.7099
   -33.0877 -33.0876 -33.0702 -33.0701 -33.0611 -33.0610 -33.0595 -33.0594
   -33.0548 -33.0547 -33.0343 -33.0342 -32.9421 -32.9421 -32.9363 -32.9362
   -32.9001 -32.8999 -32.8953 -32.8952 -32.8828 -32.8827 -32.8504 -32.8504
   -32.8093 -32.8092 -32.7766 -32.7764 -32.7649 -32.7648 -32.7472 -32.7471
   -32.7042 -32.7040 -32.6696 -32.6695 -32.6683 -32.6681 -32.6616 -32.6614
   -32.6603 -32.6602 -32.6402 -32.6402 -32.6052 -32.6051 -32.6045 -32.6045
    13.5129  13.5132  14.3753  14.3756  15.7251  15.7253  16.2049  16.2052
    16.4069  16.4071  16.4159  16.4161  16.5319  16.5320  16.6160  16.6162
    16.7096  16.7098  17.2471  17.2473  17.3078  17.3080  17.3112  17.3114
    17.3185  17.3187  17.4789  17.4790  17.7297  17.7298  17.7566  17.7567
    17.8781  17.8783  17.9372  17.9373  17.9851  17.9853  18.0180  18.0182
    18.1825  18.1827  18.2209  18.2211  18.3956  18.3957  18.9563  18.9564
    19.8911  19.8913  19.9491  19.9493  20.0453  20.0455  20.0792  20.0794
    20.0981  20.0983  20.0993  20.0994  20.2081  20.2082  20.3119  20.3120
    20.3223  20.3225  20.4523  20.4525  20.4860  20.4862  20.5638  20.5640
    20.6196  20.6198  20.6660  20.6661  20.7681  20.7681  20.9050  20.9051
    21.4085  21.4085  21.4475  21.4475  22.1368  22.1371  23.0832  23.0836
    24.4025  24.4028

          k = 0.1665-0.4994-0.4994 ( 11400 PWs)   bands (ev):

   -66.8136 -66.8135 -66.8133 -66.8131 -66.7710 -66.7710 -66.7708 -66.7705
   -66.7450 -66.7449 -66.7447 -66.7444 -66.7166 -66.7165 -66.7163 -66.7160
   -33.0762 -33.0762 -33.0762 -33.0761 -33.0627 -33.0627 -33.0626 -33.0626
   -33.0441 -33.0440 -33.0440 -33.0439 -32.9185 -32.9184 -32.9182 -32.9181
   -32.8974 -32.8974 -32.8973 -32.8971 -32.8967 -32.8966 -32.8962 -32.8962
   -32.7781 -32.7779 -32.7777 -32.7777 -32.7708 -32.7708 -32.7707 -32.7706
   -32.6843 -32.6843 -32.6840 -32.6838 -32.6630 -32.6630 -32.6629 -32.6629
   -32.6508 -32.6508 -32.6507 -32.6507 -32.6021 -32.6021 -32.6021 -32.6019
    13.9218  13.9220  13.9221  13.9223  16.0017  16.0018  16.0020  16.0020
    16.4352  16.4353  16.4354  16.4356  16.6635  16.6636  16.6637  16.6638
    16.9718  16.9718  16.9720  16.9721  17.2444  17.2445  17.2446  17.2446
    17.3912  17.3913  17.3914  17.3914  17.7295  17.7296  17.7296  17.7299
    17.8511  17.8514  17.8514  17.8515  17.9346  17.9347  17.9347  17.9349
    18.1818  18.1819  18.1819  18.1823  18.6466  18.6466  18.6469  18.6469
    20.0268  20.0269  20.0269  20.0273  20.1038  20.1039  20.1039  20.1041
    20.2106  20.2106  20.2108  20.2108  20.2203  20.2203  20.2204  20.2205
    20.2474  20.2479  20.2481  20.2481  20.4355  20.4356  20.4357  20.4359
    20.6427  20.6427  20.6430  20.6431  20.8128  20.8128  20.8130  20.8132
    21.4574  21.4575  21.4576  21.4576  22.6063  22.6068  22.6068  22.6069
    24.9224  24.9226

          k = 0.2774 0.2774 0.2774 ( 11401 PWs)   bands (ev):

   -66.8440 -66.7991 -66.7991 -66.7987 -66.7750 -66.7750 -66.7747 -66.7609
   -66.7459 -66.7426 -66.7426 -66.7422 -66.7292 -66.7292 -66.7288 -66.6943
   -33.1123 -33.1122 -33.1122 -33.0625 -33.0625 -33.0625 -33.0465 -33.0464
   -33.0464 -33.0456 -33.0087 -33.0087 -32.9771 -32.9771 -32.9243 -32.9239
   -32.9239 -32.8996 -32.8995 -32.8995 -32.8716 -32.8602 -32.8600 -32.8600
   -32.7552 -32.7544 -32.7542 -32.7542 -32.7529 -32.7526 -32.7526 -32.7465
   -32.7465 -32.7153 -32.7152 -32.7152 -32.6778 -32.6615 -32.6613 -32.6613
   -32.6364 -32.6364 -32.6363 -32.6189 -32.6188 -32.6188 -32.6132 -32.6132
    12.5809  14.5270  14.5270  14.5271  15.4891  15.4892  15.4892  16.1703
    16.1704  16.1704  16.2116  16.2116  16.5730  16.5731  16.5731  16.7815
    16.9890  16.9891  16.9891  16.9952  17.2059  17.2059  17.4004  17.4005
    17.4005  17.5685  17.5685  17.6019  17.6020  17.6020  17.9392  17.9395
    17.9395  18.0914  18.0914  18.0916  18.1980  18.1981  18.1981  18.2559
    18.2559  18.3933  18.3933  18.3935  18.5302  18.5305  18.5305  19.4452
    19.6311  19.7244  19.7245  19.7245  19.9469  19.9471  19.9471  20.0898
    20.0898  20.0898  20.2558  20.2558  20.2872  20.2873  20.2873  20.4252
    20.4256  20.4256  20.5485  20.5486  20.5491  20.5493  20.5493  20.5773
    20.5773  20.8255  20.8256  20.8256  21.0587  21.0587  21.0588  21.1223
    21.1223  21.1852  21.1855  21.1855  21.9349  21.9352  21.9352  24.2197
    24.3465  24.3466

          k = 0.2774 0.2774 0.3884 ( 11386 PWs)   bands (ev):

   -66.8356 -66.8126 -66.7945 -66.7942 -66.7821 -66.7819 -66.7721 -66.7649
   -66.7444 -66.7427 -66.7380 -66.7377 -66.7313 -66.7310 -66.7178 -66.7003
   -33.0985 -33.0984 -33.0876 -33.0613 -33.0613 -33.0583 -33.0500 -33.0467
   -33.0303 -33.0302 -33.0270 -33.0190 -32.9888 -32.9580 -32.9578 -32.9497
   -32.9332 -32.9020 -32.9020 -32.8887 -32.8813 -32.8797 -32.8796 -32.8417
   -32.7946 -32.7818 -32.7571 -32.7544 -32.7395 -32.7393 -32.7259 -32.7258
   -32.7200 -32.7199 -32.7064 -32.6832 -32.6798 -32.6797 -32.6677 -32.6595
   -32.6417 -32.6316 -32.6291 -32.6291 -32.6230 -32.6198 -32.6197 -32.6113
    12.9488  13.9516  14.7784  14.7784  15.2973  15.2973  15.8078  16.3366
    16.3367  16.3569  16.3725  16.4016  16.6021  16.6022  16.6135  16.6193
    16.7558  16.7717  17.1167  17.1169  17.2350  17.3431  17.4022  17.4043
    17.4625  17.4983  17.4984  17.6753  17.6753  17.7341  17.7871  17.7872
    17.9285  17.9286  17.9899  17.9900  18.0315  18.0401  18.0538  18.0667
    18.1379  18.1380  18.1444  18.1964  18.2718  18.2720  18.6820  19.2624
    19.6826  19.8613  19.8960  19.8961  19.9999  20.0000  20.0403  20.0403
    20.1444  20.2004  20.2051  20.2095  20.2095  20.2347  20.3401  20.3539
    20.4805  20.4914  20.5530  20.5533  20.5553  20.5553  20.5890  20.5892
    20.6105  20.6450  20.8221  20.9419  20.9553  20.9554  21.0958  21.0959
    21.1623  21.2013  21.2014  21.2080  21.5820  21.5821  22.4755  23.6222
    24.6811  24.6811

          k = 0.2774 0.2774-0.4994 ( 11384 PWs)   bands (ev):

   -66.8251 -66.8249 -66.7890 -66.7886 -66.7884 -66.7882 -66.7689 -66.7687
   -66.7435 -66.7433 -66.7345 -66.7341 -66.7339 -66.7338 -66.7082 -66.7080
   -33.0802 -33.0802 -33.0801 -33.0801 -33.0563 -33.0561 -33.0544 -33.0543
   -33.0401 -33.0399 -32.9946 -32.9945 -32.9943 -32.9941 -32.9634 -32.9632
   -32.9197 -32.9195 -32.8946 -32.8945 -32.8945 -32.8944 -32.8376 -32.8376
   -32.8115 -32.8114 -32.7578 -32.7576 -32.7280 -32.7279 -32.7278 -32.7277
   -32.7015 -32.7014 -32.7011 -32.7009 -32.6714 -32.6712 -32.6616 -32.6615
   -32.6552 -32.6549 -32.6232 -32.6231 -32.6231 -32.6231 -32.6149 -32.6148
    13.4138  13.4142  15.0506  15.0506  15.0508  15.0509  16.1964  16.1966
    16.4941  16.4941  16.4942  16.4944  16.5262  16.5264  16.5410  16.5414
    16.6356  16.6357  17.2840  17.2843  17.3681  17.3683  17.4037  17.4038
    17.4041  17.4042  17.6325  17.6325  17.6328  17.6330  17.6931  17.6932
    17.9062  17.9063  17.9957  17.9960  17.9961  17.9962  18.0440  18.0442
    18.0444  18.0444  18.0729  18.0731  18.1242  18.1244  18.9338  18.9339
    19.9382  19.9384  20.0080  20.0082  20.0161  20.0162  20.0163  20.0163
    20.0681  20.0681  20.0682  20.0683  20.3739  20.3740  20.4077  20.4079
    20.4699  20.4701  20.5052  20.5054  20.5544  20.5546  20.5906  20.5907
    20.5908  20.5908  20.7622  20.7622  21.1598  21.1598  21.1598  21.1600
    21.2176  21.2177  21.2475  21.2480  21.2480  21.2481  23.0422  23.0426
    24.9535  24.9537

          k = 0.2774 0.3884 0.3884 ( 11406 PWs)   bands (ev):

   -66.8279 -66.8069 -66.8066 -66.7912 -66.7900 -66.7788 -66.7785 -66.7699
   -66.7419 -66.7389 -66.7386 -66.7330 -66.7312 -66.7213 -66.7210 -66.7056
   -33.0883 -33.0763 -33.0763 -33.0603 -33.0578 -33.0577 -33.0452 -33.0341
   -33.0340 -33.0334 -33.0234 -32.9951 -32.9855 -32.9811 -32.9588 -32.9354
   -32.9352 -32.9177 -32.9176 -32.9173 -32.9097 -32.9096 -32.9048 -32.8333
   -32.8111 -32.7532 -32.7529 -32.7400 -32.7399 -32.7392 -32.7227 -32.7177
   -32.7045 -32.7013 -32.6928 -32.6888 -32.6886 -32.6709 -32.6708 -32.6647
   -32.6408 -32.6401 -32.6401 -32.6330 -32.6203 -32.6203 -32.6176 -32.6145
    13.3030  14.2506  14.2506  14.9661  15.0512  15.6163  15.6163  16.3735
    16.4685  16.4820  16.5537  16.5700  16.5701  16.6505  16.6506  16.7854
    16.8527  16.9416  16.9417  17.0707  17.3072  17.3735  17.3738  17.4312
    17.4312  17.4847  17.4848  17.5593  17.5776  17.6678  17.6714  17.8346
    17.8347  17.8350  17.8428  17.8428  17.8563  17.8564  17.8890  17.9831
    17.9833  18.0093  18.0273  18.0566  18.1067  18.3657  18.3660  18.8960
    19.9497  20.0018  20.0019  20.0194  20.0634  20.1325  20.1792  20.2043
    20.2045  20.2134  20.2141  20.2141  20.2728  20.2729  20.3391  20.4316
    20.4716  20.4748  20.4751  20.4894  20.5375  20.5499  20.5501  20.6009
    20.6085  20.6087  20.6620  20.7088  20.9599  20.9602  20.9937  21.1709
    21.1710  21.1738  21.2177  21.2364  21.2865  22.0604  22.0606  23.0827
    25.1015  25.6721

          k = 0.2774 0.3884-0.4994 ( 11392 PWs)   bands (ev):

   -66.8182 -66.8180 -66.7996 -66.7994 -66.7848 -66.7846 -66.7746 -66.7744
   -66.7402 -66.7400 -66.7356 -66.7354 -66.7258 -66.7255 -66.7127 -66.7125
   -33.0734 -33.0733 -33.0655 -33.0654 -33.0492 -33.0490 -33.0473 -33.0472
   -33.0393 -33.0392 -33.0075 -33.0074 -32.9643 -32.9641 -32.9565 -32.9565
   -32.9386 -32.9385 -32.9246 -32.9245 -32.9204 -32.9203 -32.8752 -32.8751
   -32.7815 -32.7814 -32.7391 -32.7389 -32.7286 -32.7285 -32.7260 -32.7260
   -32.7004 -32.7002 -32.6858 -32.6857 -32.6658 -32.6658 -32.6657 -32.6656
   -32.6618 -32.6616 -32.6370 -32.6369 -32.6182 -32.6181 -32.6158 -32.6157
    13.7461  13.7464  14.6027  14.6030  15.3498  15.3501  15.9958  15.9961
    16.5810  16.5812  16.5902  16.5904  16.7323  16.7325  16.7542  16.7544
    16.7932  16.7933  17.2405  17.2407  17.2671  17.2673  17.3456  17.3458
    17.3636  17.3639  17.5476  17.5477  17.5623  17.5624  17.6973  17.6974
    17.7450  17.7452  17.7671  17.7674  17.8853  17.8854  17.9260  17.9262
    17.9598  17.9600  18.0344  18.0346  18.0947  18.0948  18.5819  18.5820
    20.1080  20.1083  20.1307  20.1308  20.1350  20.1351  20.1545  20.1547
    20.1932  20.1934  20.2348  20.2351  20.3521  20.3523  20.3674  20.3676
    20.4258  20.4260  20.4556  20.4557  20.4913  20.4915  20.5433  20.5435
    20.5768  20.5770  20.7738  20.7738  20.8796  20.8799  20.9602  20.9603
    21.1951  21.1951  21.2158  21.2159  21.6656  21.6659  22.5645  22.5649
    25.4839  25.4842

          k = 0.2774-0.4994-0.4994 ( 11384 PWs)   bands (ev):

   -66.8097 -66.8096 -66.8094 -66.8092 -66.7802 -66.7801 -66.7799 -66.7797
   -66.7376 -66.7376 -66.7374 -66.7371 -66.7187 -66.7186 -66.7184 -66.7181
   -33.0610 -33.0610 -33.0609 -33.0608 -33.0525 -33.0525 -33.0523 -33.0523
   -33.0231 -33.0231 -33.0230 -33.0230 -32.9493 -32.9492 -32.9490 -32.9490
   -32.9381 -32.9381 -32.9381 -32.9380 -32.9159 -32.9159 -32.9155 -32.9155
   -32.7530 -32.7529 -32.7526 -32.7526 -32.7311 -32.7311 -32.7311 -32.7309
   -32.6777 -32.6777 -32.6775 -32.6773 -32.6738 -32.6738 -32.6736 -32.6736
   -32.6527 -32.6527 -32.6526 -32.6526 -32.6160 -32.6160 -32.6160 -32.6158
    14.1536  14.1537  14.1539  14.1541  15.6884  15.6885  15.6887  15.6888
    16.6099  16.6099  16.6101  16.6103  16.8994  16.8995  16.8996  16.8996
    17.0054  17.0054  17.0056  17.0057  17.2006  17.2006  17.2007  17.2008
    17.4603  17.4605  17.4605  17.4605  17.5951  17.5952  17.5952  17.5955
    17.7683  17.7684  17.7684  17.7686  17.7927  17.7930  17.7930  17.7930
    17.9781  17.9781  17.9781  17.9785  18.2869  18.2870  18.2872  18.2872
    20.1666  20.1667  20.1668  20.1670  20.2567  20.2567  20.2569  20.2569
    20.2943  20.2943  20.2944  20.2946  20.3171  20.3172  20.3172  20.3173
    20.4185  20.4186  20.4187  20.4189  20.5485  20.5490  20.5491  20.5491
    20.5582  20.5583  20.5585  20.5587  20.8264  20.8264  20.8265  20.8267
    21.2195  21.2196  21.2197  21.2197  22.1080  22.1085  22.1085  22.1086
    26.0117  26.0120

          k = 0.3884 0.3884 0.3884 ( 11422 PWs)   bands (ev):

   -66.8208 -66.8016 -66.8016 -66.8012 -66.7872 -66.7872 -66.7868 -66.7761
   -66.7382 -66.7330 -66.7330 -66.7326 -66.7242 -66.7242 -66.7238 -66.7102
   -33.0650 -33.0649 -33.0649 -33.0513 -33.0512 -33.0512 -33.0332 -33.0120
   -33.0120 -33.0065 -33.0063 -33.0063 -32.9991 -32.9991 -32.9532 -32.9531
   -32.9531 -32.9454 -32.9450 -32.9450 -32.9375 -32.9374 -32.9374 -32.8685
   -32.7817 -32.7283 -32.7280 -32.7280 -32.7141 -32.7139 -32.7139 -32.7008
   -32.7008 -32.6886 -32.6886 -32.6886 -32.6866 -32.6864 -32.6864 -32.6677
   -32.6395 -32.6395 -32.6395 -32.6340 -32.6340 -32.6295 -32.6295 -32.6295
    13.6485  14.5586  14.5586  14.5587  15.2916  15.2916  15.2916  16.0752
    16.6563  16.6563  16.7274  16.7276  16.7276  16.8970  16.8971  16.8971
    16.9239  16.9240  16.9240  17.0141  17.3628  17.3628  17.4318  17.4318
    17.5079  17.5080  17.5080  17.5289  17.5290  17.5290  17.6179  17.6181
    17.6181  17.7389  17.7389  17.7391  17.7689  17.7691  17.7691  17.8010
    17.8010  17.8012  17.9517  17.9517  18.0544  18.0547  18.0547  18.5262
    20.1081  20.1082  20.1082  20.2443  20.2739  20.2739  20.2740  20.2765
    20.2765  20.2811  20.2812  20.2812  20.3403  20.3406  20.3406  20.4539
    20.4539  20.4829  20.4831  20.4831  20.5011  20.5012  20.5012  20.5831
    20.5831  20.8888  20.8888  20.9010  20.9014  20.9014  20.9759  20.9761
    20.9761  21.0233  21.0233  21.0234  21.6487  21.6491  21.6491  22.5813
    26.3404  26.3405

          k = 0.3884 0.3884-0.4994 ( 11408 PWs)   bands (ev):

   -66.8119 -66.8117 -66.7952 -66.7948 -66.7946 -66.7944 -66.7821 -66.7818
   -66.7353 -66.7351 -66.7284 -66.7280 -66.7277 -66.7276 -66.7165 -66.7163
   -33.0537 -33.0537 -33.0536 -33.0536 -33.0349 -33.0347 -33.0347 -33.0346
   -33.0196 -33.0195 -32.9852 -32.9850 -32.9761 -32.9760 -32.9757 -32.9755
   -32.9696 -32.9695 -32.9544 -32.9543 -32.9542 -32.9542 -32.9066 -32.9065
   -32.7538 -32.7538 -32.7085 -32.7084 -32.7058 -32.7057 -32.7054 -32.7051
   -32.6964 -32.6963 -32.6963 -32.6962 -32.6751 -32.6750 -32.6677 -32.6675
   -32.6588 -32.6586 -32.6365 -32.6364 -32.6364 -32.6364 -32.6299 -32.6298
    14.0773  14.0777  14.9213  14.9213  14.9216  14.9217  15.6804  15.6807
    16.7824  16.7827  16.8308  16.8310  16.8448  16.8448  16.8449  16.8451
    16.9859  16.9860  17.2154  17.2155  17.2158  17.2159  17.3903  17.3905
    17.4325  17.4328  17.4856  17.4858  17.5075  17.5076  17.6219  17.6219
    17.6222  17.6224  17.7343  17.7346  17.7348  17.7349  17.7951  17.7954
    17.7955  17.7956  17.8433  17.8435  17.8635  17.8638  18.2214  18.2215
    20.1973  20.1975  20.2161  20.2161  20.2163  20.2163  20.3432  20.3433
    20.3433  20.3434  20.3646  20.3648  20.3886  20.3888  20.4522  20.4523
    20.4712  20.4714  20.4763  20.4764  20.4765  20.4766  20.5604  20.5606
    20.5997  20.5999  20.7521  20.7522  20.9731  20.9732  20.9732  20.9733
    20.9926  20.9927  21.2657  21.2662  21.2663  21.2663  22.1066  22.1070
    26.6514  26.6515

          k = 0.3884-0.4994-0.4994 ( 11408 PWs)   bands (ev):

   -66.8042 -66.8041 -66.8039 -66.8037 -66.7890 -66.7889 -66.7887 -66.7885
   -66.7313 -66.7312 -66.7311 -66.7308 -66.7218 -66.7217 -66.7215 -66.7213
   -33.0387 -33.0387 -33.0387 -33.0385 -33.0346 -33.0345 -33.0344 -33.0344
   -32.9976 -32.9976 -32.9974 -32.9974 -32.9808 -32.9808 -32.9806 -32.9806
   -32.9760 -32.9760 -32.9760 -32.9758 -32.9413 -32.9413 -32.9410 -32.9410
   -32.7286 -32.7285 -32.7283 -32.7283 -32.6947 -32.6947 -32.6947 -32.6946
   -32.6883 -32.6883 -32.6881 -32.6881 -32.6706 -32.6705 -32.6704 -32.6702
   -32.6571 -32.6570 -32.6570 -32.6569 -32.6367 -32.6367 -32.6366 -32.6365
    14.4814  14.4815  14.4817  14.4819  15.2985  15.2986  15.2988  15.2989
    16.8478  16.8478  16.8480  16.8482  17.0504  17.0504  17.0506  17.0506
    17.1329  17.1330  17.1331  17.1331  17.1527  17.1528  17.1529  17.1530
    17.5407  17.5409  17.5410  17.5410  17.5556  17.5558  17.5558  17.5560
    17.5585  17.5587  17.5587  17.5590  17.7151  17.7154  17.7154  17.7154
    17.7788  17.7789  17.7789  17.7792  17.9254  17.9256  17.9257  17.9257
    20.2518  20.2519  20.2520  20.2522  20.3068  20.3069  20.3070  20.3071
    20.3909  20.3909  20.3911  20.3912  20.4589  20.4590  20.4592  20.4594
    20.4748  20.4750  20.4750  20.4751  20.5228  20.5228  20.5229  20.5231
    20.7901  20.7901  20.7902  20.7904  20.9029  20.9034  20.9034  20.9034
    20.9482  20.9484  20.9484  20.9484  21.6778  21.6783  21.6783  21.6784
    27.2020  27.2023

          k =-0.4994-0.4994-0.4994 ( 11296 PWs)   bands (ev):

   -66.7974 -66.7974 -66.7974 -66.7968 -66.7967 -66.7967 -66.7965 -66.7965
   -66.7261 -66.7260 -66.7260 -66.7254 -66.7254 -66.7254 -66.7252 -66.7251
   -33.0098 -33.0098 -33.0098 -33.0096 -33.0096 -33.0096 -33.0094 -33.0094
   -33.0093 -33.0092 -33.0092 -33.0091 -33.0091 -33.0091 -33.0091 -33.0091
   -32.9699 -32.9695 -32.9695 -32.9695 -32.9694 -32.9690 -32.9690 -32.9690
   -32.7064 -32.7060 -32.7060 -32.7060 -32.7060 -32.7055 -32.7055 -32.7055
   -32.6636 -32.6636 -32.6635 -32.6633 -32.6633 -32.6632 -32.6632 -32.6632
   -32.6631 -32.6630 -32.6630 -32.6628 -32.6628 -32.6628 -32.6627 -32.6627
    14.8773  14.8774  14.8775  14.8775  14.8777  14.8777  14.8777  14.8780
    17.1014  17.1014  17.1014  17.1016  17.1016  17.1016  17.1016  17.1016
    17.1017  17.1017  17.1018  17.1019  17.1019  17.1019  17.1021  17.1021
    17.6094  17.6101  17.6101  17.6101  17.6102  17.6104  17.6104  17.6104
    17.6277  17.6277  17.6278  17.6278  17.6279  17.6282  17.6282  17.6282
    17.6283  17.6283  17.6283  17.6283  17.6284  17.6284  17.6286  17.6286
    20.3527  20.3528  20.3528  20.3528  20.3528  20.3528  20.3533  20.3533
    20.3533  20.3533  20.3534  20.3535  20.3535  20.3535  20.3535  20.3535
    20.6906  20.6906  20.6906  20.6907  20.6907  20.6909  20.6909  20.6909
    20.6910  20.6910  20.6910  20.6912  20.6912  20.6912  20.6915  20.6915
    21.2805  21.2816  21.2816  21.2816  21.2817  21.2817  21.2817  21.2818
    28.3680  28.3681

     the Fermi energy is    20.4196 ev

!    total energy              =   -5267.70852311 Ry
     Harris-Foulkes estimate   =   -5267.70855524 Ry
     estimated scf accuracy    <       0.00004282 Ry

     total all-electron energy =    -40728.453052 Ry

     The total energy is the sum of the following terms:

     one-electron contribution =   -1625.83195848 Ry
     hartree contribution      =     991.34429961 Ry
     xc contribution           =    -442.95824641 Ry
     ewald contribution        =   -2865.36854524 Ry
     one-center paw contrib.   =   -1324.76211132 Ry
     smearing contrib. (-TS)   =      -0.13196127 Ry

     convergence has been achieved in  10 iterations

     Forces acting on atoms (cartesian axes, Ry/au):

     atom    1 type  1   force =     0.00000000    0.00000000    0.00000000
     atom    2 type  1   force =     0.00012467    0.00012467    0.00012467
     atom    3 type  1   force =     0.00000000    0.00000000    0.00000000
     atom    4 type  1   force =     0.00012467    0.00012467   -0.00012467
     atom    5 type  1   force =     0.00000000    0.00000000    0.00000000
     atom    6 type  1   force =     0.00012467   -0.00012467    0.00012467
     atom    7 type  1   force =     0.00000000    0.00000000    0.00000000
     atom    8 type  1   force =     0.00012467   -0.00012467   -0.00012467
     atom    9 type  1   force =     0.00000000    0.00000000    0.00000000
     atom   10 type  1   force =    -0.00012467    0.00012467    0.00012467
     atom   11 type  1   force =     0.00000000    0.00000000    0.00000000
     atom   12 type  1   force =    -0.00012467    0.00012467   -0.00012467
     atom   13 type  1   force =     0.00000000    0.00000000    0.00000000
     atom   14 type  1   force =    -0.00012467   -0.00012467    0.00012467
     atom   15 type  1   force =     0.00000000    0.00000000   -0.00000000
     atom   16 type  1   force =    -0.00012467   -0.00012467   -0.00012467

     Total force =     0.000611     Total SCF correction =     0.000760
     SCF correction compared to forces is large: reduce conv_thr to get better values


     Computing stress (Cartesian axis) and pressure

          total   stress  (Ry/bohr**3)                   (kbar)     P=   31.65
   0.00021516   0.00000000   0.00000000         31.65      0.00      0.00
   0.00000000   0.00021516   0.00000000          0.00     31.65      0.00
   0.00000000   0.00000000   0.00021516          0.00      0.00     31.65


     Writing output data file cGXEjhzNVeqomWpx.save/
 
     init_run     :      3.18s CPU      3.44s WALL (       1 calls)
     electrons    :    114.21s CPU    118.04s WALL (       1 calls)
     forces       :      1.08s CPU      1.18s WALL (       1 calls)
     stress       :      2.77s CPU      2.81s WALL (       1 calls)

     Called by init_run:
     wfcinit      :      2.85s CPU      3.05s WALL (       1 calls)
     potinit      :      0.12s CPU      0.14s WALL (       1 calls)
     hinit0       :      0.14s CPU      0.15s WALL (       1 calls)

     Called by electrons:
     c_bands      :    102.69s CPU    105.67s WALL (      11 calls)
     sum_band     :     10.52s CPU     11.14s WALL (      11 calls)
     v_of_rho     :      0.11s CPU      0.20s WALL (      11 calls)
     newd         :      0.15s CPU      0.20s WALL (      11 calls)
     PAW_pot      :      0.77s CPU      0.84s WALL (      11 calls)
     mix_rho      :      0.03s CPU      0.05s WALL (      11 calls)

     Called by c_bands:
     init_us_2    :      0.56s CPU      0.57s WALL (     875 calls)
     cegterg      :    100.07s CPU    103.00s WALL (     385 calls)

     Called by sum_band:
     sum_band:bec :      0.16s CPU      0.16s WALL (     385 calls)
     addusdens    :      0.17s CPU      0.20s WALL (      11 calls)

     Called by *egterg:
     h_psi        :     42.94s CPU     44.86s WALL (    1339 calls)
     s_psi        :      2.27s CPU      2.29s WALL (    1339 calls)
     g_psi        :      0.09s CPU      0.09s WALL (     919 calls)
     cdiaghg      :     46.09s CPU     46.29s WALL (    1269 calls)

     Called by h_psi:
     h_psi:pot    :     42.70s CPU     44.62s WALL (    1339 calls)
     h_psi:calbec :      3.59s CPU      4.16s WALL (    1339 calls)
     vloc_psi     :     36.80s CPU     38.06s WALL (    1339 calls)
     add_vuspsi   :      2.30s CPU      2.38s WALL (    1339 calls)

     General routines
     calbec       :      5.73s CPU      6.66s WALL (    1899 calls)
     fft          :      0.13s CPU      0.28s WALL (     168 calls)
     ffts         :      0.02s CPU      0.05s WALL (      22 calls)
     fftw         :     42.56s CPU     44.04s WALL (  326782 calls)
     interpolate  :      0.01s CPU      0.03s WALL (      11 calls)
 
     Parallel routines
     fft_scatt_xy :      2.82s CPU      2.92s WALL (  326972 calls)
     fft_scatt_yz :     28.80s CPU     29.96s WALL (  326972 calls)
 
     PWSCF        :  2m 4.12s CPU     2m11.65s WALL

 
   This run was terminated on:   6:20:16   5Sep2020            

=------------------------------------------------------------------------------=
   JOB DONE.
=------------------------------------------------------------------------------=
