--------------------------------------------------------------------------
WARNING: No preset parameters were found for the device that Open MPI
detected:

  Local host:            bear-pg0206u14b
  Device name:           mlx5_0
  Device vendor ID:      0x02c9
  Device vendor part ID: 4123

Default device parameters will be used, which may result in lower
performance.  You can edit any of the files specified by the
btl_openib_device_param_files MCA parameter to set values for your
device.

NOTE: You can turn off this warning by setting the MCA parameter
      btl_openib_warn_no_device_params_found to 0.
--------------------------------------------------------------------------
--------------------------------------------------------------------------
WARNING: There was an error initializing an OpenFabrics device.

  Local host:   bear-pg0206u14b
  Local device: mlx5_0
--------------------------------------------------------------------------

     Program PWSCF v.6.3 starts on 11Nov2020 at  6:21: 1 

     This program is part of the open-source Quantum ESPRESSO suite
     for quantum simulation of materials; please cite
         "P. Giannozzi et al., J. Phys.:Condens. Matter 21 395502 (2009);
         "P. Giannozzi et al., J. Phys.:Condens. Matter 29 465901 (2017);
          URL http://www.quantum-espresso.org", 
     in publications or presentations arising from this work. More details at
     http://www.quantum-espresso.org/quote

     Parallel version (MPI & OpenMP), running on      20 processor cores
     Number of MPI processes:                20
     Threads/MPI process:                     1

     MPI processes distributed on     1 nodes
     R & G space division:  proc/nbgrp/npool/nimage =      20
     Reading input from wd/relax/relax.in

     Current dimensions of program PWSCF are:
     Max number of different atomic species (ntypx) = 10
     Max number of k-points (npk) =  40000
     Max angular momentum in pseudopotentials (lmaxx) =  3
               file Pd.pbe-spn-kjpaw_psl.1.0.0.UPF: wavefunction(s)  4S 5S 4D renormalized

     Subspace diagonalization in iterative solution of the eigenvalue problem:
     a serial algorithm will be used

     Found symmetry operation: I + (  0.2500  0.2500  0.0000)
     This is a supercell, fractional translations are disabled
 
     Parallelization info
     --------------------
     sticks:   dense  smooth     PW     G-vecs:    dense   smooth      PW
     Min         370     244     66                23952    12850    1818
     Max         371     245     67                23955    12853    1821
     Sum        7409    4889   1321               479073   257031   36377
 


     bravais-lattice index     =            0
     lattice parameter (alat)  =      14.7042  a.u.
     unit-cell volume          =    3179.2465 (a.u.)^3
     number of atoms/cell      =           32
     number of atomic types    =            1
     number of electrons       =       576.00
     number of Kohn-Sham states=          346
     kinetic-energy cutoff     =      71.0000  Ry
     charge density cutoff     =     430.0000  Ry
     convergence threshold     =      1.0E-06
     mixing beta               =       0.1000
     number of iterations used =           10  plain     mixing
     Exchange-correlation      = SLA PW PBX PBC ( 1  4  3  4 0 0)
     nstep                     =           40


     celldm(1)=  14.704200  celldm(2)=   0.000000  celldm(3)=   0.000000
     celldm(4)=   0.000000  celldm(5)=   0.000000  celldm(6)=   0.000000

     crystal axes: (cart. coord. in units of alat)
               a(1) = (   1.000000   0.000000   0.000000 )  
               a(2) = (   0.000000   1.000000   0.000000 )  
               a(3) = (   0.000000   0.000000   1.000000 )  

     reciprocal axes: (cart. coord. in units 2 pi/alat)
               b(1) = (  1.000000  0.000000  0.000000 )  
               b(2) = (  0.000000  1.000000  0.000000 )  
               b(3) = (  0.000000  0.000000  1.000000 )  


     PseudoPot. # 1 for Pd read from file:
     /rds/homes/b/bxp912/pp/Pd.pbe-spn-kjpaw_psl.1.0.0.UPF
     MD5 check sum: 790f2ebce206edfd9790dcb9844eca51
     Pseudo is Projector augmented-wave + core cor, Zval = 18.0
     Generated using "atomic" code by A. Dal Corso v.6.3
     Shape of augmentation charge: PSQ
     Using radial grid of 1235 points,  6 beta functions with: 
                l(1) =   0
                l(2) =   0
                l(3) =   1
                l(4) =   1
                l(5) =   2
                l(6) =   2
     Q(r) pseudized with 0 coefficients 


     atomic species   valence    mass     pseudopotential
        Pd            18.00   106.42000     Pd( 1.00)

     48 Sym. Ops., with inversion, found



   Cartesian axes

     site n.     atom                  positions (alat units)
         1           Pd  tau(   1) = (   0.0000000   0.0000000   0.0000000  )
         2           Pd  tau(   2) = (   0.2500000   0.2500000   0.0000000  )
         3           Pd  tau(   3) = (   0.2500000   0.0000000   0.2500000  )
         4           Pd  tau(   4) = (   0.0000000   0.2500000   0.2500000  )
         5           Pd  tau(   5) = (   0.0000000   0.0000000   0.5000000  )
         6           Pd  tau(   6) = (   0.2500000   0.2500000   0.5000000  )
         7           Pd  tau(   7) = (   0.2500000   0.0000000   0.7500000  )
         8           Pd  tau(   8) = (   0.0000000   0.2500000   0.7500000  )
         9           Pd  tau(   9) = (   0.0000000   0.5000000   0.0000000  )
        10           Pd  tau(  10) = (   0.2500000   0.7500000   0.0000000  )
        11           Pd  tau(  11) = (   0.2500000   0.5000000   0.2500000  )
        12           Pd  tau(  12) = (   0.0000000   0.7500000   0.2500000  )
        13           Pd  tau(  13) = (   0.0000000   0.5000000   0.5000000  )
        14           Pd  tau(  14) = (   0.2500000   0.7500000   0.5000000  )
        15           Pd  tau(  15) = (   0.2500000   0.5000000   0.7500000  )
        16           Pd  tau(  16) = (   0.0000000   0.7500000   0.7500000  )
        17           Pd  tau(  17) = (   0.5000000   0.0000000   0.0000000  )
        18           Pd  tau(  18) = (   0.7500000   0.2500000   0.0000000  )
        19           Pd  tau(  19) = (   0.7500000   0.0000000   0.2500000  )
        20           Pd  tau(  20) = (   0.5000000   0.2500000   0.2500000  )
        21           Pd  tau(  21) = (   0.5000000   0.0000000   0.5000000  )
        22           Pd  tau(  22) = (   0.7500000   0.2500000   0.5000000  )
        23           Pd  tau(  23) = (   0.7500000   0.0000000   0.7500000  )
        24           Pd  tau(  24) = (   0.5000000   0.2500000   0.7500000  )
        25           Pd  tau(  25) = (   0.5000000   0.5000000   0.0000000  )
        26           Pd  tau(  26) = (   0.7500000   0.7500000   0.0000000  )
        27           Pd  tau(  27) = (   0.7500000   0.5000000   0.2500000  )
        28           Pd  tau(  28) = (   0.5000000   0.7500000   0.2500000  )
        29           Pd  tau(  29) = (   0.5000000   0.5000000   0.5000000  )
        30           Pd  tau(  30) = (   0.7500000   0.7500000   0.5000000  )
        31           Pd  tau(  31) = (   0.7500000   0.5000000   0.7500000  )
        32           Pd  tau(  32) = (   0.5000000   0.7500000   0.7500000  )

     number of k points=    35  Marzari-Vanderbilt smearing, width (Ry)=  0.0400
                       cart. coord. in units 2pi/alat
        k(    1) = (   0.0555556   0.0555556   0.0555556), wk =   0.0219479
        k(    2) = (   0.0555556   0.0555556   0.1666667), wk =   0.0658436
        k(    3) = (   0.0555556   0.0555556   0.2777778), wk =   0.0658436
        k(    4) = (   0.0555556   0.0555556   0.3888889), wk =   0.0658436
        k(    5) = (   0.0555556   0.0555556  -0.5000000), wk =   0.0329218
        k(    6) = (   0.0555556   0.1666667   0.1666667), wk =   0.0658436
        k(    7) = (   0.0555556   0.1666667   0.2777778), wk =   0.1316872
        k(    8) = (   0.0555556   0.1666667   0.3888889), wk =   0.1316872
        k(    9) = (   0.0555556   0.1666667  -0.5000000), wk =   0.0658436
        k(   10) = (   0.0555556   0.2777778   0.2777778), wk =   0.0658436
        k(   11) = (   0.0555556   0.2777778   0.3888889), wk =   0.1316872
        k(   12) = (   0.0555556   0.2777778  -0.5000000), wk =   0.0658436
        k(   13) = (   0.0555556   0.3888889   0.3888889), wk =   0.0658436
        k(   14) = (   0.0555556   0.3888889  -0.5000000), wk =   0.0658436
        k(   15) = (   0.0555556  -0.5000000  -0.5000000), wk =   0.0164609
        k(   16) = (   0.1666667   0.1666667   0.1666667), wk =   0.0219479
        k(   17) = (   0.1666667   0.1666667   0.2777778), wk =   0.0658436
        k(   18) = (   0.1666667   0.1666667   0.3888889), wk =   0.0658436
        k(   19) = (   0.1666667   0.1666667  -0.5000000), wk =   0.0329218
        k(   20) = (   0.1666667   0.2777778   0.2777778), wk =   0.0658436
        k(   21) = (   0.1666667   0.2777778   0.3888889), wk =   0.1316872
        k(   22) = (   0.1666667   0.2777778  -0.5000000), wk =   0.0658436
        k(   23) = (   0.1666667   0.3888889   0.3888889), wk =   0.0658436
        k(   24) = (   0.1666667   0.3888889  -0.5000000), wk =   0.0658436
        k(   25) = (   0.1666667  -0.5000000  -0.5000000), wk =   0.0164609
        k(   26) = (   0.2777778   0.2777778   0.2777778), wk =   0.0219479
        k(   27) = (   0.2777778   0.2777778   0.3888889), wk =   0.0658436
        k(   28) = (   0.2777778   0.2777778  -0.5000000), wk =   0.0329218
        k(   29) = (   0.2777778   0.3888889   0.3888889), wk =   0.0658436
        k(   30) = (   0.2777778   0.3888889  -0.5000000), wk =   0.0658436
        k(   31) = (   0.2777778  -0.5000000  -0.5000000), wk =   0.0164609
        k(   32) = (   0.3888889   0.3888889   0.3888889), wk =   0.0219479
        k(   33) = (   0.3888889   0.3888889  -0.5000000), wk =   0.0329218
        k(   34) = (   0.3888889  -0.5000000  -0.5000000), wk =   0.0164609
        k(   35) = (  -0.5000000  -0.5000000  -0.5000000), wk =   0.0027435

     Dense  grid:   479073 G-vectors     FFT dimensions: ( 100, 100, 100)

     Smooth grid:   257031 G-vectors     FFT dimensions: (  80,  80,  80)

     Estimated max dynamical RAM per process >     534.12 MB

     Estimated total dynamical RAM >      10.43 GB

     Check: negative/imaginary core charge=   -0.000002    0.000000

     Initial potential from superposition of free atoms

     starting charge  575.98776, renormalised to  576.00000
     Starting wfcs are  320 randomized atomic wfcs +   26 random wfcs
     Checking if some PAW data can be deallocated... 

     total cpu time spent up to now is       21.8 secs

     Self-consistent Calculation

     iteration #  1     ecut=    71.00 Ry     beta= 0.10
     Davidson diagonalization with overlap
     ethr =  1.00E-02,  avg # of iterations =  3.1

     Threshold (ethr) on eigenvalues was too large:
     Diagonalizing with lowered threshold

     Davidson diagonalization with overlap
     ethr =  6.88E-05,  avg # of iterations =  3.0

     total cpu time spent up to now is      224.1 secs

     total energy              =  -16384.98565357 Ry
     Harris-Foulkes estimate   =  -16385.04051729 Ry
     estimated scf accuracy    <       0.39247737 Ry

     iteration #  2     ecut=    71.00 Ry     beta= 0.10
     Davidson diagonalization with overlap
     ethr =  6.81E-05,  avg # of iterations =  1.1

     total cpu time spent up to now is      287.4 secs

     total energy              =  -16384.90755046 Ry
     Harris-Foulkes estimate   =  -16384.99176734 Ry
     estimated scf accuracy    <       0.21824399 Ry

     iteration #  3     ecut=    71.00 Ry     beta= 0.10
     Davidson diagonalization with overlap
     ethr =  3.79E-05,  avg # of iterations =  2.1

     total cpu time spent up to now is      372.3 secs

     total energy              =  -16384.93604920 Ry
     Harris-Foulkes estimate   =  -16384.93950918 Ry
     estimated scf accuracy    <       0.04871730 Ry

     iteration #  4     ecut=    71.00 Ry     beta= 0.10
     Davidson diagonalization with overlap
     ethr =  8.46E-06,  avg # of iterations =  2.2

     total cpu time spent up to now is      447.7 secs

     total energy              =  -16384.93544042 Ry
     Harris-Foulkes estimate   =  -16384.93773043 Ry
     estimated scf accuracy    <       0.01981873 Ry

     iteration #  5     ecut=    71.00 Ry     beta= 0.10
     Davidson diagonalization with overlap
     ethr =  3.44E-06,  avg # of iterations =  1.4

     total cpu time spent up to now is      513.9 secs

     total energy              =  -16384.93148542 Ry
     Harris-Foulkes estimate   =  -16384.93562052 Ry
     estimated scf accuracy    <       0.01238371 Ry

     iteration #  6     ecut=    71.00 Ry     beta= 0.10
     Davidson diagonalization with overlap
     ethr =  2.15E-06,  avg # of iterations =  1.1

     total cpu time spent up to now is      577.0 secs

     total energy              =  -16384.93236727 Ry
     Harris-Foulkes estimate   =  -16384.93240709 Ry
     estimated scf accuracy    <       0.00009930 Ry

     iteration #  7     ecut=    71.00 Ry     beta= 0.10
     Davidson diagonalization with overlap
     ethr =  1.72E-08,  avg # of iterations =  3.9

     total cpu time spent up to now is      733.6 secs

     total energy              =  -16384.93243125 Ry
     Harris-Foulkes estimate   =  -16384.93243267 Ry
     estimated scf accuracy    <       0.00005173 Ry

     iteration #  8     ecut=    71.00 Ry     beta= 0.10
     Davidson diagonalization with overlap
     ethr =  8.98E-09,  avg # of iterations =  1.0

     total cpu time spent up to now is      794.8 secs

     total energy              =  -16384.93242599 Ry
     Harris-Foulkes estimate   =  -16384.93243209 Ry
     estimated scf accuracy    <       0.00003419 Ry

     iteration #  9     ecut=    71.00 Ry     beta= 0.10
     Davidson diagonalization with overlap
     ethr =  5.93E-09,  avg # of iterations =  3.0

     total cpu time spent up to now is      912.2 secs

     total energy              =  -16384.93243441 Ry
     Harris-Foulkes estimate   =  -16384.93243158 Ry
     estimated scf accuracy    <       0.00000363 Ry

     iteration # 10     ecut=    71.00 Ry     beta= 0.10
     Davidson diagonalization with overlap
     ethr =  6.31E-10,  avg # of iterations =  1.0

     total cpu time spent up to now is      973.6 secs

     End of self-consistent calculation

          k = 0.0556 0.0556 0.0556 ( 32090 PWs)   bands (ev):

   -64.2277 -64.1947 -64.1946 -64.1946 -64.1883 -64.1883 -64.1883 -64.1766
   -64.1765 -64.1765 -64.1735 -64.1732 -64.1731 -64.1731 -64.1731 -64.1731
   -64.1731 -64.1730 -64.1730 -64.1730 -64.1702 -64.1702 -64.1702 -64.1553
   -64.1552 -64.1552 -64.1551 -64.1551 -64.1551 -64.1551 -64.1551 -64.1551
   -30.1314 -30.1314 -30.1314 -30.1297 -30.1086 -30.1086 -30.1086 -30.0232
   -30.0232 -30.0232 -30.0184 -30.0184 -30.0184 -30.0184 -30.0184 -30.0183
   -30.0096 -30.0096 -30.0096 -30.0035 -30.0035 -30.0035 -30.0035 -30.0035
   -30.0035 -29.9828 -29.9828 -29.9828 -29.9828 -29.9828 -29.9828 -29.9376
   -29.9376 -29.9376 -29.9106 -29.9106 -29.9105 -29.9040 -29.9040 -29.9040
   -29.8934 -29.8934 -29.8934 -29.8934 -29.8933 -29.8933 -29.8766 -29.8766
   -29.8766 -29.8755 -29.8755 -29.8755 -29.8755 -29.8755 -29.8755 -29.8748
   -29.8747 -29.8747 -29.8729 -29.8729 -29.8729 -29.8033 -29.8033 -29.8033
   -29.8031 -29.8031 -29.8031 -29.7897 -29.7897 -29.7896 -29.7896 -29.7895
   -29.7895 -29.7852 -29.7852 -29.7852 -29.7802 -29.7802 -29.7802 -29.7796
   -29.7796 -29.7796 -29.7796 -29.7796 -29.7796 -29.7791 -29.7791 -29.7791
   -29.7780 -29.7780 -29.7718 -29.7718 -29.7718 -29.7216 -29.7188 -29.7188
    12.8125  14.5488  14.5488  14.5488  14.6365  14.6506  14.6506  14.6506
    14.8361  14.8361  14.8361  14.8753  14.8753  14.8753  15.0657  15.0658
    15.0658  15.6002  15.6002  15.6002  15.6002  15.6002  15.6002  15.7640
    15.7640  15.7640  15.9381  15.9381  15.9381  15.9585  15.9585  15.9585
    16.0189  16.0189  16.0189  16.0202  16.0202  16.0202  16.0202  16.0202
    16.0203  16.3683  16.3683  16.3683  16.3683  16.3683  16.3683  16.4802
    16.4802  16.4802  16.5026  16.5026  16.5026  16.5026  16.5026  16.5026
    16.5610  16.5610  16.5610  16.7390  16.7390  16.7390  16.7391  16.7391
    16.7391  16.8453  16.8453  16.8453  16.8487  16.8488  16.8488  16.8488
    16.8488  16.8488  16.9608  16.9608  16.9608  17.0327  17.0328  17.0328
    17.0547  17.0547  17.0658  17.0658  17.0658  17.0867  17.1072  17.1072
    17.9368  17.9368  17.9368  17.9995  17.9995  17.9995  18.0753  18.0753
    18.0753  18.0753  18.0753  18.0753  18.0816  18.0816  18.0816  18.1318
    18.1319  18.1319  18.2429  18.2429  18.2429  18.3658  18.3658  18.3658
    18.4979  18.4979  18.4979  18.5578  18.5578  18.5578  18.6312  18.6313
    18.6313  18.6313  18.6313  18.6313  18.6524  18.6524  18.6524  18.7076
    18.7076  18.7127  18.7127  18.7127  18.7127  18.7127  18.7127  18.8271
    18.8271  18.8271  19.2350  19.2350  19.2350  19.3416  19.3416  19.3416
    19.7341  19.7341  19.7341  19.8738  19.8738  19.8738  19.9016  19.9016
    19.9229  19.9229  19.9229  20.1633  20.1633  20.1633  20.2216  20.2216
    20.2216  20.2216  20.2216  20.2216  20.2249  20.2249  20.2249  20.8133
    21.1366  21.1366  21.1366  21.7565  21.7565  21.7565  22.2783  22.2783
    22.2783  22.2783  22.2783  22.2783  22.8185  22.8185  22.8185  23.3287
    23.3287  23.3287  27.2986  27.2986  27.2986  27.4551  28.3824  28.3824
    28.3824  28.3824  28.3824  28.3824  29.0868  29.0868  29.0869  29.0869
    29.0869  29.0869  30.5660  30.5660  30.5660  30.5660  30.5660  30.5661
    30.7832  30.7832  30.7832  31.6860  31.7055  31.7055  31.7056  31.7056
    31.7056  31.7056

          k = 0.0556 0.0556 0.1667 ( 32090 PWs)   bands (ev):

   -64.2266 -64.2009 -64.1940 -64.1940 -64.1878 -64.1877 -64.1820 -64.1800
   -64.1799 -64.1764 -64.1760 -64.1759 -64.1741 -64.1731 -64.1731 -64.1730
   -64.1730 -64.1725 -64.1703 -64.1697 -64.1697 -64.1673 -64.1673 -64.1563
   -64.1557 -64.1557 -64.1556 -64.1556 -64.1552 -64.1552 -64.1551 -64.1551
   -30.1284 -30.1267 -30.1267 -30.1234 -30.1052 -30.1052 -30.1032 -30.0359
   -30.0303 -30.0303 -30.0252 -30.0252 -30.0241 -30.0241 -30.0233 -30.0233
   -30.0213 -30.0108 -30.0108 -30.0075 -30.0075 -30.0020 -30.0020 -29.9983
   -29.9983 -29.9859 -29.9859 -29.9790 -29.9790 -29.9710 -29.9628 -29.9628
   -29.9430 -29.9430 -29.9274 -29.9274 -29.9107 -29.9107 -29.9098 -29.9098
   -29.8969 -29.8813 -29.8813 -29.8790 -29.8790 -29.8764 -29.8764 -29.8753
   -29.8753 -29.8727 -29.8726 -29.8725 -29.8707 -29.8704 -29.8696 -29.8696
   -29.8690 -29.8690 -29.8658 -29.8602 -29.8602 -29.8169 -29.8164 -29.8063
   -29.8063 -29.7999 -29.7998 -29.7935 -29.7935 -29.7925 -29.7925 -29.7899
   -29.7899 -29.7873 -29.7857 -29.7856 -29.7850 -29.7845 -29.7845 -29.7802
   -29.7801 -29.7796 -29.7796 -29.7794 -29.7794 -29.7768 -29.7765 -29.7765
   -29.7763 -29.7759 -29.7720 -29.7666 -29.7666 -29.7285 -29.7211 -29.7203
    12.8877  14.5763  14.5849  14.5968  14.5969  14.6658  14.6937  14.6937
    14.7075  14.8649  14.8801  14.8801  14.9279  14.9279  15.1193  15.1193
    15.1271  15.5110  15.5110  15.5781  15.6364  15.6364  15.6434  15.6435
    15.6949  15.7763  15.7763  15.7914  15.7914  15.8154  15.8333  15.8333
    15.9806  15.9806  15.9816  15.9816  16.0024  16.0024  16.0364  16.0364
    16.0920  16.0920  16.1564  16.3545  16.3545  16.3713  16.3714  16.4199
    16.4199  16.4291  16.4291  16.4888  16.4888  16.5801  16.5801  16.5944
    16.6436  16.6436  16.6951  16.6968  16.6969  16.7070  16.7070  16.7439
    16.7440  16.7890  16.7890  16.8156  16.8157  16.9898  17.0057  17.0057
    17.0091  17.0091  17.0288  17.0288  17.0485  17.0551  17.0757  17.0788
    17.0875  17.1034  17.1034  17.1117  17.1382  17.1409  17.1438  17.1438
    17.7377  17.7377  17.8530  17.8606  17.8800  17.8800  17.9363  17.9363
    17.9548  18.0054  18.0254  18.0254  18.1507  18.1613  18.1614  18.1750
    18.1751  18.2151  18.2151  18.2280  18.2280  18.4499  18.4499  18.4646
    18.4779  18.4779  18.5452  18.5452  18.6274  18.6274  18.6371  18.6371
    18.6414  18.6414  18.6648  18.7232  18.7246  18.7324  18.7324  18.7640
    18.8550  18.8550  18.8676  18.8676  18.9057  18.9057  18.9633  18.9819
    18.9819  19.0083  19.1321  19.2825  19.2825  19.3983  19.4169  19.4169
    19.4490  19.4526  19.4526  19.6796  19.8082  19.8082  19.8311  19.8490
    19.8940  19.8942  19.8942  19.9168  19.9168  20.0895  20.1462  20.1462
    20.1471  20.1471  20.1599  20.2211  20.2212  20.2215  20.2215  20.8275
    21.2800  21.2800  21.3268  21.3268  21.5619  21.7251  21.7762  21.7762
    22.2529  22.2530  22.7967  22.8575  22.8575  22.9661  23.4087  23.4087
    23.6358  23.6358  27.2956  27.4553  27.4553  27.6513  27.6513  27.6675
    27.6675  27.7505  28.2688  28.2688  28.5211  28.5211  29.2157  29.2157
    29.7374  29.7374  30.6157  30.6157  30.7181  30.7668  30.7668  30.8730
    30.8731  30.9466  30.9466  31.1553  31.1553  31.2357  31.2665  31.2665
    31.7063  31.7893

          k = 0.0556 0.0556 0.2778 ( 32119 PWs)   bands (ev):

   -64.2244 -64.2068 -64.1928 -64.1928 -64.1868 -64.1868 -64.1832 -64.1832
   -64.1787 -64.1787 -64.1762 -64.1761 -64.1746 -64.1731 -64.1731 -64.1730
   -64.1730 -64.1719 -64.1705 -64.1665 -64.1664 -64.1646 -64.1646 -64.1585
   -64.1569 -64.1569 -64.1566 -64.1566 -64.1552 -64.1552 -64.1551 -64.1551
   -30.1209 -30.1177 -30.1177 -30.1128 -30.0983 -30.0983 -30.0922 -30.0548
   -30.0486 -30.0486 -30.0423 -30.0423 -30.0396 -30.0269 -30.0269 -30.0244
   -30.0244 -30.0133 -30.0133 -30.0030 -30.0030 -30.0022 -30.0010 -30.0010
   -29.9868 -29.9868 -29.9849 -29.9848 -29.9725 -29.9725 -29.9524 -29.9524
   -29.9436 -29.9436 -29.9435 -29.9435 -29.9254 -29.9254 -29.9227 -29.9227
   -29.8863 -29.8863 -29.8766 -29.8748 -29.8747 -29.8729 -29.8729 -29.8678
   -29.8662 -29.8631 -29.8631 -29.8602 -29.8601 -29.8591 -29.8591 -29.8578
   -29.8578 -29.8490 -29.8446 -29.8446 -29.8381 -29.8299 -29.8291 -29.8122
   -29.8122 -29.8041 -29.8041 -29.8023 -29.8023 -29.7989 -29.7982 -29.7982
   -29.7943 -29.7943 -29.7938 -29.7937 -29.7872 -29.7846 -29.7813 -29.7797
   -29.7796 -29.7796 -29.7796 -29.7795 -29.7795 -29.7763 -29.7762 -29.7756
   -29.7724 -29.7645 -29.7645 -29.7636 -29.7629 -29.7412 -29.7258 -29.7247
    13.0364  14.2222  14.6546  14.6905  14.6905  14.7382  14.7794  14.7794
    14.8061  14.9221  14.9681  14.9681  15.0297  15.0297  15.0863  15.2229
    15.2229  15.3579  15.3579  15.4057  15.4371  15.5157  15.5157  15.5678
    15.6952  15.6952  15.7043  15.7043  15.7281  15.7281  15.7430  15.7430
    15.8458  15.8458  15.8793  15.8793  15.9805  15.9805  16.0265  16.0265
    16.1549  16.1549  16.2997  16.2997  16.3347  16.3348  16.3514  16.3527
    16.3527  16.3739  16.3739  16.3984  16.3984  16.5169  16.5169  16.5941
    16.5941  16.6431  16.6531  16.6531  16.7225  16.7225  16.7513  16.7514
    16.7572  16.7573  16.8242  16.8375  16.8375  16.9294  16.9681  16.9682
    16.9682  17.0276  17.0276  17.0352  17.1375  17.1738  17.1738  17.1911
    17.2055  17.2077  17.3576  17.3576  17.3752  17.4274  17.5230  17.5230
    17.5809  17.5809  17.6014  17.6014  17.6737  17.7589  17.7627  17.7627
    17.7809  17.7899  18.0982  18.1168  18.1168  18.2204  18.2204  18.2887
    18.2887  18.3046  18.3046  18.3653  18.3653  18.4008  18.4008  18.4676
    18.4676  18.5823  18.6140  18.6140  18.6180  18.6180  18.6396  18.6397
    18.6468  18.6468  18.7580  18.8499  18.9082  18.9082  18.9233  18.9233
    18.9388  19.0117  19.0331  19.0354  19.0608  19.0608  19.0754  19.0754
    19.1256  19.1256  19.1540  19.1706  19.1706  19.2284  19.4327  19.4327
    19.4841  19.4920  19.4920  19.5551  19.6530  19.6530  19.7087  19.7087
    19.7149  19.7960  19.8034  19.8034  19.8166  19.9474  20.0058  20.0058
    20.0071  20.0071  20.0403  20.2207  20.2207  20.2213  20.2213  20.8387
    20.8387  21.0292  21.3020  21.3020  21.5734  21.5734  21.6608  21.9556
    22.1989  22.1989  22.3525  22.7464  23.5044  23.5044  24.0601  24.0601
    24.1459  24.1459  26.7733  26.7733  26.9102  26.9102  27.3402  27.3402
    27.4628  27.7674  27.7674  28.1735  28.7774  28.7774  29.4626  29.4626
    29.8180  30.2590  30.2590  30.3693  30.3693  30.6165  30.6165  30.7343
    30.7343  30.7649  30.7650  30.9343  31.0352  31.0353  31.1938  31.1938
    31.2023  31.2023

          k = 0.0556 0.0556 0.3889 ( 32141 PWs)   bands (ev):

   -64.2212 -64.2123 -64.1911 -64.1911 -64.1862 -64.1862 -64.1853 -64.1853
   -64.1812 -64.1812 -64.1759 -64.1751 -64.1731 -64.1731 -64.1730 -64.1730
   -64.1715 -64.1707 -64.1706 -64.1635 -64.1634 -64.1621 -64.1621 -64.1616
   -64.1586 -64.1586 -64.1581 -64.1580 -64.1552 -64.1552 -64.1551 -64.1551
   -30.1089 -30.1044 -30.1044 -30.0981 -30.0883 -30.0883 -30.0761 -30.0748
   -30.0687 -30.0687 -30.0601 -30.0598 -30.0598 -30.0307 -30.0267 -30.0267
   -30.0211 -30.0210 -30.0192 -30.0192 -30.0087 -30.0087 -29.9896 -29.9896
   -29.9809 -29.9809 -29.9697 -29.9697 -29.9642 -29.9642 -29.9637 -29.9637
   -29.9581 -29.9580 -29.9399 -29.9398 -29.9375 -29.9375 -29.9258 -29.9258
   -29.8966 -29.8966 -29.8742 -29.8742 -29.8732 -29.8732 -29.8611 -29.8596
   -29.8546 -29.8457 -29.8457 -29.8452 -29.8452 -29.8444 -29.8444 -29.8430
   -29.8430 -29.8418 -29.8407 -29.8304 -29.8302 -29.8302 -29.8209 -29.8209
   -29.8166 -29.8166 -29.8163 -29.8163 -29.8145 -29.8084 -29.8070 -29.8070
   -29.8066 -29.8066 -29.7983 -29.7881 -29.7881 -29.7841 -29.7823 -29.7796
   -29.7796 -29.7795 -29.7795 -29.7784 -29.7783 -29.7746 -29.7734 -29.7734
   -29.7730 -29.7652 -29.7651 -29.7591 -29.7519 -29.7510 -29.7327 -29.7316
    13.2542  13.8635  14.7523  14.8245  14.8246  14.8533  14.9067  14.9067
    14.9449  14.9879  15.0066  15.0996  15.0996  15.1729  15.1729  15.1748
    15.1748  15.2057  15.2509  15.2783  15.2783  15.3312  15.3690  15.3690
    15.4884  15.4884  15.5263  15.5263  15.7241  15.7241  15.7930  15.7930
    15.8500  15.8500  15.9264  15.9264  15.9453  15.9453  16.0912  16.0912
    16.1456  16.1456  16.1601  16.1601  16.2622  16.2622  16.3060  16.3060
    16.3238  16.3238  16.3663  16.3664  16.4138  16.4138  16.5370  16.5636
    16.5636  16.5973  16.5973  16.7068  16.7580  16.7580  16.7583  16.7584
    16.7870  16.7870  16.8520  16.8573  16.8946  16.9138  16.9138  16.9461
    16.9461  16.9989  17.0806  17.0806  17.2294  17.2761  17.2761  17.3021
    17.3059  17.3072  17.3337  17.3337  17.3435  17.3435  17.5024  17.5491
    17.5491  17.5944  17.6000  17.6039  17.7861  17.7906  17.7906  17.8054
    18.0454  18.0454  18.1867  18.1867  18.1936  18.2137  18.2137  18.3904
    18.3904  18.4270  18.4270  18.4373  18.4374  18.4555  18.4555  18.4669
    18.4915  18.4915  18.5817  18.5817  18.6080  18.6247  18.6248  18.6282
    18.6282  18.6316  18.6316  18.6599  18.6599  18.7337  18.8072  18.8676
    18.8677  18.9476  19.0201  19.0201  19.1223  19.1223  19.1606  19.1976
    19.2896  19.2896  19.2937  19.3527  19.3600  19.3600  19.3827  19.3827
    19.5428  19.5428  19.5589  19.6591  19.6653  19.6653  19.6954  19.6985
    19.7021  19.7021  19.7460  19.8173  19.8173  19.8184  19.8184  19.8940
    20.0098  20.0098  20.1114  20.2206  20.2207  20.2211  20.2211  20.4266
    20.4266  20.8493  20.8493  21.2408  21.5603  21.6138  21.7990  21.7990
    22.1100  22.1100  22.2733  22.6548  24.2245  24.2246  24.7683  24.7683
    24.7803  24.7803  25.8734  25.8734  26.1728  26.1728  26.4294  26.4294
    27.8106  28.2293  28.2293  28.7148  29.0133  29.1403  29.1403  29.5494
    29.5494  29.8091  29.8091  30.0849  30.0849  30.1089  30.5129  30.5129
    30.6857  30.6858  30.7045  30.7045  31.1312  31.1312  31.1755  31.1755
    31.3938  31.3938

          k = 0.0556 0.0556-0.5000 ( 32104 PWs)   bands (ev):

   -64.2172 -64.2171 -64.1889 -64.1889 -64.1889 -64.1888 -64.1835 -64.1834
   -64.1834 -64.1834 -64.1756 -64.1756 -64.1731 -64.1730 -64.1730 -64.1730
   -64.1711 -64.1710 -64.1657 -64.1657 -64.1609 -64.1608 -64.1608 -64.1608
   -64.1599 -64.1599 -64.1599 -64.1599 -64.1552 -64.1552 -64.1552 -64.1551
   -30.0934 -30.0934 -30.0878 -30.0878 -30.0878 -30.0878 -30.0801 -30.0801
   -30.0753 -30.0753 -30.0752 -30.0752 -30.0557 -30.0556 -30.0239 -30.0239
   -30.0239 -30.0239 -30.0155 -30.0155 -30.0155 -30.0155 -29.9770 -29.9770
   -29.9770 -29.9769 -29.9708 -29.9708 -29.9708 -29.9707 -29.9537 -29.9536
   -29.9536 -29.9536 -29.9527 -29.9527 -29.9527 -29.9527 -29.9099 -29.9099
   -29.9099 -29.9099 -29.8737 -29.8736 -29.8736 -29.8736 -29.8523 -29.8523
   -29.8510 -29.8509 -29.8334 -29.8334 -29.8320 -29.8320 -29.8320 -29.8320
   -29.8310 -29.8310 -29.8310 -29.8310 -29.8303 -29.8302 -29.8302 -29.8302
   -29.8238 -29.8237 -29.8237 -29.8237 -29.8174 -29.8173 -29.8173 -29.8173
   -29.8130 -29.8130 -29.7833 -29.7833 -29.7825 -29.7824 -29.7824 -29.7824
   -29.7818 -29.7817 -29.7795 -29.7795 -29.7795 -29.7795 -29.7737 -29.7737
   -29.7682 -29.7682 -29.7682 -29.7682 -29.7414 -29.7414 -29.7404 -29.7403
    13.5339  13.5341  14.8684  14.8684  14.9903  14.9904  14.9904  14.9904
    15.0098  15.0099  15.0738  15.0738  15.0739  15.0739  15.1169  15.1170
    15.1212  15.1212  15.2735  15.2735  15.2735  15.2735  15.3446  15.3447
    15.3448  15.3448  15.5435  15.5436  15.5436  15.5436  15.8815  15.8815
    15.8816  15.8816  16.0002  16.0002  16.0003  16.0003  16.0319  16.0319
    16.0319  16.0319  16.1717  16.1717  16.1717  16.1717  16.3362  16.3362
    16.3362  16.3362  16.3437  16.3437  16.3437  16.3437  16.5644  16.5644
    16.5644  16.5644  16.7062  16.7062  16.7608  16.7608  16.7608  16.7608
    16.7805  16.7805  16.8515  16.8515  16.8515  16.8515  16.9510  16.9510
    17.1209  17.1209  17.1209  17.1209  17.1835  17.1835  17.1835  17.1835
    17.3523  17.3523  17.4067  17.4067  17.4067  17.4067  17.4372  17.4372
    17.4385  17.4385  17.4414  17.4414  18.1981  18.1982  18.1982  18.1982
    18.2024  18.2024  18.2068  18.2068  18.2068  18.2068  18.2461  18.2462
    18.3307  18.3307  18.4362  18.4362  18.4362  18.4362  18.5210  18.5210
    18.5210  18.5210  18.5294  18.5294  18.5295  18.5295  18.5386  18.5386
    18.5386  18.5386  18.5783  18.5783  18.5783  18.5783  18.7621  18.7621
    18.7622  18.7622  18.8709  18.8709  19.3420  19.3420  19.3421  19.3421
    19.3711  19.3711  19.4905  19.4905  19.4905  19.4905  19.4946  19.4946
    19.5268  19.5268  19.5375  19.5375  19.5957  19.5957  19.5957  19.5957
    19.6042  19.6042  19.6042  19.6042  19.7660  19.7660  20.0441  20.0441
    20.0441  20.0441  20.2208  20.2208  20.2208  20.2209  20.4165  20.4165
    20.4166  20.4166  20.8433  20.8435  21.4205  21.4205  21.9787  21.9787
    21.9788  21.9788  22.5033  22.5033  25.0171  25.0171  25.0172  25.0172
    25.4530  25.4530  25.4531  25.4531  25.5716  25.5716  25.5716  25.5716
    28.3343  28.3343  28.8291  28.8292  28.8292  28.8292  29.3641  29.3641
    29.5843  29.5843  29.5844  29.5844  30.2316  30.2316  30.2317  30.2317
    30.6183  30.6183  30.6183  30.6184  31.3456  31.3456  31.3457  31.3457
    31.6237  31.6238

          k = 0.0556 0.1667 0.1667 ( 32109 PWs)   bands (ev):

   -64.2255 -64.2002 -64.2001 -64.1934 -64.1873 -64.1839 -64.1816 -64.1816
   -64.1798 -64.1797 -64.1759 -64.1758 -64.1752 -64.1735 -64.1720 -64.1720
   -64.1719 -64.1719 -64.1698 -64.1698 -64.1675 -64.1675 -64.1650 -64.1563
   -64.1563 -64.1562 -64.1562 -64.1558 -64.1558 -64.1555 -64.1555 -64.1552
   -30.1255 -30.1254 -30.1207 -30.1157 -30.1018 -30.0999 -30.0999 -30.0387
   -30.0387 -30.0362 -30.0362 -30.0253 -30.0253 -30.0238 -30.0219 -30.0219
   -30.0206 -30.0206 -30.0204 -30.0204 -30.0114 -30.0114 -30.0095 -30.0095
   -29.9835 -29.9761 -29.9761 -29.9746 -29.9746 -29.9686 -29.9686 -29.9596
   -29.9596 -29.9488 -29.9446 -29.9179 -29.9123 -29.9122 -29.8970 -29.8970
   -29.8923 -29.8923 -29.8857 -29.8787 -29.8787 -29.8766 -29.8766 -29.8703
   -29.8703 -29.8701 -29.8701 -29.8697 -29.8681 -29.8681 -29.8661 -29.8661
   -29.8641 -29.8640 -29.8505 -29.8505 -29.8444 -29.8199 -29.8199 -29.8138
   -29.8138 -29.8034 -29.8019 -29.7996 -29.7931 -29.7931 -29.7930 -29.7930
   -29.7897 -29.7897 -29.7887 -29.7887 -29.7887 -29.7879 -29.7838 -29.7826
   -29.7826 -29.7813 -29.7790 -29.7789 -29.7778 -29.7768 -29.7768 -29.7768
   -29.7718 -29.7718 -29.7670 -29.7670 -29.7594 -29.7375 -29.7233 -29.7201
    12.9620  14.6299  14.6299  14.6332  14.6332  14.6400  14.6795  14.7216
    14.7625  14.7625  14.9085  14.9085  14.9275  14.9691  15.1581  15.1811
    15.1811  15.5342  15.5342  15.5553  15.5553  15.6072  15.6072  15.6095
    15.6095  15.6618  15.6789  15.6789  15.7208  15.7209  15.8313  15.8468
    15.8468  15.8576  15.8576  15.9045  16.0152  16.0486  16.0486  16.0554
    16.0554  16.0948  16.0948  16.1747  16.1747  16.3288  16.3288  16.4177
    16.4177  16.4259  16.5206  16.5206  16.5363  16.5363  16.5976  16.5976
    16.6131  16.6792  16.6793  16.6903  16.6903  16.7449  16.7449  16.8461
    16.8928  16.8929  16.9428  16.9428  16.9506  16.9506  17.0001  17.0276
    17.0581  17.0581  17.0640  17.0662  17.0662  17.0865  17.0866  17.1048
    17.1341  17.1375  17.1375  17.1383  17.1535  17.1628  17.1628  17.1711
    17.6332  17.6943  17.6943  17.7476  17.8579  17.8579  17.9704  17.9926
    17.9926  17.9955  17.9955  18.0532  18.0532  18.0774  18.0774  18.1382
    18.1416  18.1416  18.2262  18.3045  18.3140  18.3141  18.3326  18.3326
    18.3601  18.6228  18.6228  18.6436  18.6436  18.6527  18.7140  18.7192
    18.7192  18.7369  18.7399  18.7399  18.7464  18.7464  18.8339  18.8339
    18.8642  18.8642  19.0520  19.0520  19.0950  19.1027  19.1070  19.1070
    19.1385  19.1385  19.1614  19.1614  19.2130  19.2130  19.2392  19.2990
    19.4279  19.5256  19.5910  19.5910  19.7286  19.7342  19.7342  19.7548
    19.8570  19.8863  19.8863  19.9075  19.9075  19.9193  20.0850  20.0850
    20.1455  20.1455  20.1481  20.1481  20.1585  20.1585  20.1825  20.5486
    20.8355  21.2324  21.2461  21.2461  21.7499  21.7499  21.8702  21.8703
    22.3365  22.3365  22.8420  22.8420  23.2722  23.2722  23.3934  23.3934
    23.9104  24.0020  27.0293  27.0293  27.2919  27.2919  27.7548  27.7548
    27.7549  27.7918  27.7918  28.1569  28.4073  28.4073  28.8442  28.8442
    29.8671  29.8671  30.1919  30.1919  30.5862  30.7357  30.7357  30.7451
    30.8388  30.8389  31.0590  31.0590  31.2233  31.2233  31.5602  31.5602
    31.8398  31.8411

          k = 0.0556 0.1667 0.2778 ( 32127 PWs)   bands (ev):

   -64.2233 -64.2060 -64.1988 -64.1923 -64.1877 -64.1863 -64.1829 -64.1808
   -64.1794 -64.1785 -64.1762 -64.1757 -64.1756 -64.1742 -64.1741 -64.1714
   -64.1709 -64.1700 -64.1683 -64.1679 -64.1666 -64.1649 -64.1628 -64.1584
   -64.1573 -64.1572 -64.1571 -64.1563 -64.1562 -64.1559 -64.1554 -64.1552
   -30.1196 -30.1181 -30.1103 -30.1034 -30.0950 -30.0936 -30.0896 -30.0579
   -30.0541 -30.0425 -30.0394 -30.0393 -30.0388 -30.0388 -30.0281 -30.0275
   -30.0271 -30.0209 -30.0202 -30.0177 -30.0156 -30.0147 -30.0112 -30.0043
   -29.9954 -29.9811 -29.9775 -29.9704 -29.9666 -29.9648 -29.9607 -29.9588
   -29.9535 -29.9510 -29.9406 -29.9305 -29.9270 -29.9122 -29.9075 -29.8947
   -29.8928 -29.8904 -29.8838 -29.8775 -29.8756 -29.8718 -29.8703 -29.8702
   -29.8678 -29.8674 -29.8656 -29.8603 -29.8568 -29.8550 -29.8541 -29.8514
   -29.8498 -29.8477 -29.8361 -29.8354 -29.8329 -29.8293 -29.8271 -29.8260
   -29.8090 -29.8081 -29.8081 -29.8064 -29.8034 -29.8034 -29.8026 -29.8018
   -29.7965 -29.7936 -29.7922 -29.7899 -29.7899 -29.7891 -29.7852 -29.7848
   -29.7845 -29.7821 -29.7819 -29.7808 -29.7772 -29.7767 -29.7748 -29.7680
   -29.7661 -29.7656 -29.7651 -29.7587 -29.7553 -29.7517 -29.7280 -29.7227
    13.1087  14.2791  14.7034  14.7246  14.7274  14.7340  14.7355  14.7910
    14.8578  14.8705  14.9648  14.9956  15.0213  15.0469  15.1395  15.2309
    15.2861  15.3655  15.3689  15.4005  15.4406  15.4656  15.4695  15.5078
    15.5755  15.6033  15.6260  15.6424  15.6436  15.6724  15.7447  15.7604
    15.7623  15.7882  15.8190  15.8761  15.9123  15.9424  15.9757  16.0721
    16.0827  16.0981  16.1442  16.2095  16.2544  16.2701  16.2780  16.3649
    16.3714  16.3811  16.4032  16.4154  16.4723  16.5350  16.5410  16.5871
    16.5986  16.6100  16.6947  16.7514  16.7937  16.7996  16.8489  16.8617
    16.8788  16.8835  16.8952  16.9234  16.9594  16.9761  16.9841  17.0165
    17.0408  17.0622  17.1231  17.1554  17.1788  17.1962  17.2040  17.2107
    17.2328  17.2482  17.2544  17.2636  17.2810  17.3873  17.4739  17.5055
    17.5305  17.5395  17.5631  17.6593  17.6790  17.7843  17.7936  17.8079
    17.8815  17.8994  17.9122  17.9911  17.9943  18.0729  18.0821  18.1884
    18.2053  18.2284  18.2329  18.2900  18.3342  18.4230  18.4741  18.4807
    18.4981  18.5833  18.5898  18.6058  18.6404  18.6893  18.7274  18.7413
    18.7611  18.7976  18.8009  18.8581  18.8641  18.8742  18.8772  18.8846
    18.8862  18.9274  19.0062  19.0507  19.0698  19.1049  19.1194  19.2002
    19.2090  19.2445  19.2492  19.2522  19.2586  19.2792  19.2844  19.3713
    19.3772  19.4081  19.5017  19.5904  19.6194  19.6473  19.7276  19.7444
    19.8185  19.8617  19.8633  19.8678  19.9340  19.9650  19.9705  19.9714
    20.0060  20.0094  20.0467  20.1451  20.1491  20.1558  20.1605  20.4323
    20.6037  20.8043  21.1777  21.2750  21.2765  21.6965  21.8355  22.1765
    22.3760  22.6632  22.8050  22.9705  23.3513  23.5022  23.7718  24.0540
    24.3822  24.6495  26.1867  26.3667  26.8411  27.0614  27.2913  27.3502
    27.4612  27.8717  28.0914  28.0934  28.1823  28.6250  28.6627  29.2970
    29.3788  29.6873  29.8331  30.0089  30.1067  30.2299  30.4350  30.6939
    30.8426  30.9353  30.9525  31.1966  31.2101  31.4215  31.5284  31.5389
    31.7646  31.8738

          k = 0.0556 0.1667 0.3889 ( 32123 PWs)   bands (ev):

   -64.2202 -64.2114 -64.1968 -64.1911 -64.1906 -64.1858 -64.1849 -64.1809
   -64.1796 -64.1788 -64.1772 -64.1763 -64.1754 -64.1746 -64.1710 -64.1703
   -64.1702 -64.1699 -64.1684 -64.1648 -64.1637 -64.1625 -64.1615 -64.1608
   -64.1592 -64.1590 -64.1585 -64.1575 -64.1562 -64.1560 -64.1554 -64.1553
   -30.1093 -30.1065 -30.0960 -30.0875 -30.0850 -30.0844 -30.0774 -30.0744
   -30.0734 -30.0592 -30.0585 -30.0566 -30.0481 -30.0384 -30.0362 -30.0313
   -30.0308 -30.0306 -30.0289 -30.0249 -30.0146 -30.0100 -30.0071 -29.9987
   -29.9894 -29.9851 -29.9796 -29.9748 -29.9714 -29.9626 -29.9530 -29.9482
   -29.9460 -29.9449 -29.9405 -29.9343 -29.9268 -29.9229 -29.9216 -29.9102
   -29.9059 -29.8940 -29.8703 -29.8702 -29.8669 -29.8668 -29.8667 -29.8648
   -29.8602 -29.8587 -29.8565 -29.8475 -29.8450 -29.8438 -29.8428 -29.8418
   -29.8392 -29.8379 -29.8349 -29.8320 -29.8237 -29.8229 -29.8189 -29.8188
   -29.8186 -29.8181 -29.8176 -29.8159 -29.8154 -29.8153 -29.8153 -29.8033
   -29.8013 -29.8008 -29.7930 -29.7925 -29.7911 -29.7910 -29.7898 -29.7885
   -29.7875 -29.7863 -29.7797 -29.7791 -29.7779 -29.7751 -29.7726 -29.7701
   -29.7691 -29.7662 -29.7597 -29.7542 -29.7540 -29.7467 -29.7349 -29.7282
    13.3237  13.9248  14.8019  14.8333  14.8472  14.8622  14.8821  14.9014
    14.9921  15.0154  15.0398  15.0480  15.1257  15.1509  15.1523  15.1592
    15.1818  15.2153  15.2408  15.2652  15.2884  15.3282  15.3686  15.3948
    15.4007  15.4350  15.5097  15.5465  15.5485  15.6276  15.7470  15.7672
    15.7687  15.8037  15.8259  15.8826  15.8981  16.0311  16.0357  16.0606
    16.0882  16.1054  16.1712  16.1840  16.2054  16.2064  16.2106  16.2233
    16.2569  16.3009  16.3624  16.3976  16.4063  16.4686  16.5455  16.5761
    16.6012  16.6516  16.7677  16.7721  16.8043  16.8330  16.8479  16.8502
    16.8537  16.8570  16.9053  16.9406  16.9561  16.9645  16.9729  16.9992
    17.0468  17.0825  17.0978  17.2355  17.2370  17.2985  17.3072  17.3130
    17.3192  17.3233  17.3637  17.3759  17.3961  17.4653  17.4707  17.4775
    17.5624  17.5730  17.5973  17.6672  17.6959  17.7233  17.7637  17.7857
    17.9553  17.9663  17.9907  18.0099  18.0130  18.0438  18.1432  18.2405
    18.2429  18.2613  18.3249  18.3755  18.4293  18.4341  18.4454  18.4543
    18.4723  18.4757  18.5313  18.5644  18.6074  18.6301  18.6307  18.6374
    18.7015  18.7101  18.7571  18.7943  18.8137  18.8698  18.8997  18.9082
    18.9420  18.9442  18.9513  19.0915  19.1097  19.1152  19.1432  19.1484
    19.2663  19.3073  19.3523  19.3839  19.4244  19.4483  19.4517  19.4561
    19.4626  19.4678  19.4929  19.5578  19.5614  19.6652  19.6676  19.6952
    19.7216  19.7693  19.7711  19.8189  19.8193  19.8195  19.8242  19.9158
    19.9840  20.0648  20.1455  20.1503  20.1511  20.1534  20.3927  20.4073
    20.5053  20.7715  20.8253  21.0744  21.3480  21.3865  21.6156  21.9397
    22.4313  22.7350  22.7898  23.2588  23.6820  24.2384  24.3714  24.7853
    24.9734  25.3109  25.3608  25.6922  25.9225  26.3373  26.4536  26.9863
    27.4886  27.8133  28.3823  28.4539  28.5188  28.7272  28.9355  29.0253
    29.2090  29.2603  29.4451  29.7541  29.8789  30.1257  30.4392  30.5790
    30.7028  30.8489  30.8903  31.0277  31.1491  31.2911  31.3139  31.3304
    31.4336  31.6971

          k = 0.0556 0.1667-0.5000 ( 32128 PWs)   bands (ev):

   -64.2162 -64.2162 -64.1942 -64.1942 -64.1884 -64.1884 -64.1831 -64.1831
   -64.1781 -64.1781 -64.1781 -64.1780 -64.1750 -64.1750 -64.1706 -64.1705
   -64.1691 -64.1691 -64.1656 -64.1655 -64.1618 -64.1617 -64.1612 -64.1611
   -64.1604 -64.1603 -64.1590 -64.1590 -64.1561 -64.1561 -64.1553 -64.1553
   -30.0949 -30.0949 -30.0913 -30.0913 -30.0786 -30.0786 -30.0726 -30.0726
   -30.0720 -30.0720 -30.0686 -30.0686 -30.0549 -30.0549 -30.0349 -30.0349
   -30.0318 -30.0317 -30.0314 -30.0314 -30.0093 -30.0093 -29.9985 -29.9985
   -29.9851 -29.9851 -29.9848 -29.9848 -29.9628 -29.9628 -29.9525 -29.9525
   -29.9403 -29.9403 -29.9342 -29.9342 -29.9291 -29.9290 -29.9192 -29.9192
   -29.9072 -29.9072 -29.8703 -29.8703 -29.8665 -29.8665 -29.8558 -29.8558
   -29.8499 -29.8498 -29.8465 -29.8465 -29.8441 -29.8441 -29.8360 -29.8360
   -29.8329 -29.8329 -29.8307 -29.8307 -29.8293 -29.8292 -29.8286 -29.8286
   -29.8259 -29.8259 -29.8151 -29.8151 -29.8111 -29.8111 -29.8036 -29.8035
   -29.8030 -29.8030 -29.7977 -29.7977 -29.7928 -29.7927 -29.7895 -29.7895
   -29.7875 -29.7874 -29.7836 -29.7836 -29.7788 -29.7788 -29.7707 -29.7707
   -29.7696 -29.7696 -29.7557 -29.7557 -29.7438 -29.7437 -29.7365 -29.7365
    13.5996  13.5998  14.9190  14.9191  14.9723  14.9723  15.0025  15.0026
    15.0292  15.0292  15.0519  15.0519  15.0638  15.0640  15.1566  15.1566
    15.1634  15.1634  15.1940  15.1940  15.2727  15.2728  15.2976  15.2976
    15.3369  15.3370  15.4376  15.4377  15.6146  15.6147  15.6847  15.6847
    15.8880  15.8880  15.8956  15.8956  15.9269  15.9269  16.0331  16.0332
    16.1218  16.1218  16.1470  16.1470  16.2004  16.2004  16.2249  16.2249
    16.2769  16.2769  16.3105  16.3105  16.3164  16.3164  16.6821  16.6821
    16.7097  16.7097  16.7121  16.7121  16.7262  16.7262  16.7949  16.7949
    16.8965  16.8966  16.9121  16.9121  17.0168  17.0169  17.0576  17.0576
    17.1193  17.1193  17.1668  17.1668  17.1776  17.1777  17.2984  17.2984
    17.3464  17.3464  17.4165  17.4165  17.4358  17.4358  17.4392  17.4392
    17.5013  17.5013  17.5230  17.5230  17.9981  17.9981  18.0082  18.0082
    18.0509  18.0510  18.0639  18.0639  18.0910  18.0910  18.1393  18.1394
    18.1977  18.1977  18.3513  18.3513  18.3569  18.3569  18.4273  18.4273
    18.4425  18.4425  18.4778  18.4778  18.4885  18.4885  18.5589  18.5589
    18.6780  18.6780  18.7171  18.7171  18.7922  18.7922  18.8651  18.8652
    18.9957  18.9957  19.0483  19.0483  19.1221  19.1221  19.3020  19.3020
    19.3449  19.3449  19.3623  19.3623  19.5042  19.5042  19.5297  19.5298
    19.5950  19.5951  19.6233  19.6233  19.6272  19.6272  19.6340  19.6341
    19.6427  19.6428  19.6456  19.6456  19.7347  19.7347  19.7919  19.7919
    20.0101  20.0101  20.1471  20.1471  20.1517  20.1517  20.3934  20.3934
    20.8714  20.8714  20.9369  20.9370  21.1971  21.1972  21.5091  21.5091
    22.6157  22.6158  23.0820  23.0821  24.4666  24.4667  25.0208  25.0209
    25.0482  25.0483  25.5877  25.5877  25.6348  25.6349  26.1403  26.1404
    27.9026  27.9026  28.3420  28.3420  28.7679  28.7680  28.9186  28.9187
    29.3178  29.3179  29.3790  29.3791  29.9431  29.9431  30.3105  30.3106
    30.8422  30.8423  31.0210  31.0211  31.0577  31.0577  31.1484  31.1485
    31.7791  31.7792

          k = 0.0556 0.2778 0.2778 ( 32137 PWs)   bands (ev):

   -64.2213 -64.2045 -64.2045 -64.1919 -64.1912 -64.1854 -64.1824 -64.1823
   -64.1781 -64.1781 -64.1778 -64.1751 -64.1751 -64.1751 -64.1700 -64.1700
   -64.1699 -64.1699 -64.1670 -64.1670 -64.1655 -64.1654 -64.1611 -64.1583
   -64.1583 -64.1582 -64.1582 -64.1575 -64.1574 -64.1561 -64.1560 -64.1553
   -30.1139 -30.1139 -30.0987 -30.0900 -30.0882 -30.0844 -30.0844 -30.0579
   -30.0579 -30.0562 -30.0562 -30.0424 -30.0424 -30.0335 -30.0335 -30.0309
   -30.0309 -30.0277 -30.0277 -30.0255 -30.0255 -30.0145 -30.0128 -30.0128
   -30.0080 -30.0080 -29.9761 -29.9700 -29.9622 -29.9622 -29.9541 -29.9541
   -29.9466 -29.9439 -29.9348 -29.9348 -29.9056 -29.9040 -29.9040 -29.8924
   -29.8924 -29.8904 -29.8904 -29.8788 -29.8788 -29.8651 -29.8651 -29.8636
   -29.8635 -29.8631 -29.8616 -29.8616 -29.8562 -29.8562 -29.8472 -29.8471
   -29.8393 -29.8392 -29.8374 -29.8374 -29.8231 -29.8231 -29.8227 -29.8227
   -29.8173 -29.8173 -29.8147 -29.8142 -29.8049 -29.8049 -29.8028 -29.8020
   -29.8020 -29.8007 -29.8006 -29.7994 -29.7898 -29.7897 -29.7882 -29.7871
   -29.7856 -29.7844 -29.7787 -29.7777 -29.7776 -29.7769 -29.7714 -29.7714
   -29.7673 -29.7664 -29.7664 -29.7527 -29.7527 -29.7489 -29.7328 -29.7228
    13.2515  14.3904  14.3904  14.7719  14.7937  14.7986  14.7986  14.8410
    14.9714  14.9715  15.0501  15.0501  15.0793  15.1241  15.2259  15.2430
    15.2430  15.2491  15.2989  15.2989  15.3930  15.3931  15.4154  15.4154
    15.4836  15.4836  15.5105  15.5105  15.6843  15.6931  15.6931  15.7008
    15.7008  15.7951  15.7951  15.8228  15.8228  15.8750  15.8750  15.9601
    15.9601  16.0396  16.1622  16.1622  16.1709  16.1709  16.1934  16.3888
    16.3888  16.4151  16.4151  16.4267  16.4267  16.4376  16.4457  16.7043
    16.7043  16.7761  16.7761  16.8697  16.8697  16.8703  16.8703  16.9186
    16.9233  16.9233  16.9501  16.9501  16.9668  17.0660  17.0943  17.0973
    17.0973  17.1949  17.1949  17.2112  17.2447  17.2685  17.2834  17.3042
    17.3042  17.3057  17.3546  17.3546  17.3721  17.3721  17.3829  17.4211
    17.5250  17.5250  17.5505  17.5505  17.7242  17.7242  17.7830  17.7830
    17.8661  17.8661  17.9228  17.9652  18.0173  18.0173  18.0496  18.0496
    18.0687  18.0687  18.1408  18.1469  18.2953  18.2953  18.4307  18.5134
    18.5134  18.5376  18.5376  18.5526  18.5644  18.6620  18.6620  18.7440
    18.7689  18.8404  18.8404  18.8997  18.8997  18.9475  18.9475  18.9915
    18.9915  19.1076  19.1076  19.1109  19.1109  19.1258  19.1286  19.1307
    19.1307  19.1837  19.1837  19.3511  19.3976  19.4235  19.4235  19.4279
    19.4279  19.4341  19.4341  19.5414  19.5458  19.5715  19.7111  19.7111
    19.7916  19.8732  19.8732  19.8904  19.9053  19.9053  20.0086  20.0086
    20.0123  20.0123  20.0369  20.0369  20.0716  20.0954  20.3730  20.4166
    20.4166  20.7364  20.7364  21.0964  21.2274  21.2274  22.4489  22.4489
    22.7775  22.7775  23.1540  23.1540  23.4875  23.4875  24.0224  24.0224
    24.8034  25.2855  25.5811  25.5811  26.8502  26.8502  27.2876  27.2876
    27.3463  27.3463  27.8524  27.8524  28.4593  28.4593  28.6947  28.8083
    28.8083  29.2270  29.3282  29.3282  29.3980  30.5498  30.6876  30.6876
    30.8823  30.8823  31.2464  31.3032  31.5709  31.5709  31.7158  31.7159
    31.9830  31.9830

          k = 0.0556 0.2778 0.3889 ( 32137 PWs)   bands (ev):

   -64.2183 -64.2097 -64.2022 -64.1958 -64.1896 -64.1851 -64.1841 -64.1815
   -64.1804 -64.1792 -64.1776 -64.1760 -64.1742 -64.1716 -64.1699 -64.1690
   -64.1685 -64.1675 -64.1662 -64.1661 -64.1642 -64.1632 -64.1613 -64.1598
   -64.1597 -64.1595 -64.1595 -64.1582 -64.1577 -64.1570 -64.1558 -64.1554
   -30.1054 -30.1041 -30.0838 -30.0782 -30.0769 -30.0765 -30.0743 -30.0732
   -30.0710 -30.0557 -30.0548 -30.0547 -30.0504 -30.0468 -30.0418 -30.0413
   -30.0407 -30.0334 -30.0332 -30.0324 -30.0253 -30.0222 -30.0141 -30.0127
   -30.0110 -29.9962 -29.9861 -29.9840 -29.9739 -29.9605 -29.9468 -29.9424
   -29.9381 -29.9266 -29.9252 -29.9181 -29.9175 -29.9172 -29.9074 -29.9041
   -29.8889 -29.8829 -29.8797 -29.8745 -29.8716 -29.8710 -29.8644 -29.8628
   -29.8597 -29.8576 -29.8564 -29.8515 -29.8498 -29.8485 -29.8442 -29.8374
   -29.8368 -29.8362 -29.8356 -29.8352 -29.8321 -29.8261 -29.8226 -29.8219
   -29.8204 -29.8183 -29.8132 -29.8131 -29.8113 -29.8085 -29.8083 -29.8078
   -29.8012 -29.7999 -29.7988 -29.7956 -29.7938 -29.7936 -29.7930 -29.7929
   -29.7870 -29.7848 -29.7831 -29.7808 -29.7792 -29.7790 -29.7786 -29.7741
   -29.7684 -29.7680 -29.7594 -29.7478 -29.7454 -29.7415 -29.7398 -29.7261
    13.4606  14.0452  14.5506  14.8475  14.8982  14.8986  14.9293  14.9350
    14.9813  15.1075  15.1134  15.1175  15.1239  15.1307  15.1408  15.1774
    15.2053  15.2179  15.2360  15.2703  15.2786  15.2937  15.3637  15.3653
    15.3903  15.4337  15.4758  15.4882  15.5522  15.5766  15.6018  15.6163
    15.6572  15.7638  15.7694  15.8072  15.8469  15.8752  15.8752  15.9265
    15.9456  15.9969  16.0248  16.0665  16.1053  16.2189  16.2581  16.2781
    16.3019  16.3541  16.4170  16.4498  16.4741  16.4984  16.5577  16.6679
    16.6815  16.6853  16.7752  16.8324  16.8415  16.8964  16.9481  16.9486
    16.9863  16.9886  16.9963  17.0322  17.0647  17.0848  17.1104  17.2035
    17.2070  17.2475  17.2704  17.2718  17.2877  17.3129  17.3241  17.3558
    17.3591  17.3607  17.3737  17.4626  17.4635  17.4842  17.4894  17.5046
    17.5188  17.5986  17.5989  17.5996  17.6824  17.7017  17.7732  17.7902
    17.7982  17.8370  17.8619  17.8709  17.8843  17.9236  17.9446  18.0513
    18.1643  18.1699  18.1828  18.2002  18.2028  18.2153  18.2893  18.3091
    18.3315  18.3748  18.4365  18.4537  18.4710  18.5531  18.7211  18.7687
    18.7753  18.7934  18.8072  18.8142  18.9452  18.9482  18.9670  18.9809
    18.9835  19.0296  19.1409  19.1621  19.1630  19.1719  19.2329  19.2471
    19.2517  19.3262  19.3579  19.3919  19.3986  19.4610  19.4907  19.5626
    19.5783  19.5785  19.5905  19.5907  19.6004  19.6018  19.6325  19.6558
    19.7508  19.8094  19.8157  19.8170  19.8228  19.8243  19.8278  19.8372
    19.8897  19.9496  20.0151  20.0161  20.0277  20.0525  20.3268  20.3924
    20.6371  20.7824  20.9154  21.0053  21.0489  21.1602  21.9336  22.4296
    23.1031  23.1441  23.3071  23.4380  23.7283  23.9230  24.2476  24.7377
    24.7613  24.9618  25.3490  25.9647  25.9786  26.3540  26.6469  27.2995
    27.4892  27.5219  27.6981  27.8026  28.0737  28.0883  28.3593  28.5410
    28.8061  28.8606  29.0188  29.2968  29.8625  30.1490  30.7438  30.8673
    30.9354  30.9704  31.0177  31.1337  31.1931  31.3327  31.8535  31.8786
    32.0293  32.0875

          k = 0.0556 0.2778-0.5000 ( 32124 PWs)   bands (ev):

   -64.2144 -64.2143 -64.1993 -64.1993 -64.1876 -64.1875 -64.1824 -64.1824
   -64.1805 -64.1804 -64.1769 -64.1768 -64.1730 -64.1730 -64.1682 -64.1682
   -64.1673 -64.1672 -64.1652 -64.1652 -64.1626 -64.1626 -64.1618 -64.1618
   -64.1612 -64.1612 -64.1582 -64.1581 -64.1580 -64.1579 -64.1556 -64.1556
   -30.0927 -30.0927 -30.0907 -30.0907 -30.0672 -30.0672 -30.0661 -30.0661
   -30.0656 -30.0656 -30.0538 -30.0538 -30.0534 -30.0534 -30.0498 -30.0498
   -30.0489 -30.0489 -30.0385 -30.0385 -30.0178 -30.0178 -30.0161 -30.0161
   -29.9991 -29.9991 -29.9839 -29.9839 -29.9784 -29.9784 -29.9320 -29.9320
   -29.9301 -29.9301 -29.9227 -29.9227 -29.9162 -29.9162 -29.9038 -29.9038
   -29.9020 -29.9020 -29.8637 -29.8637 -29.8624 -29.8624 -29.8604 -29.8603
   -29.8576 -29.8575 -29.8563 -29.8563 -29.8503 -29.8503 -29.8478 -29.8478
   -29.8357 -29.8357 -29.8328 -29.8328 -29.8257 -29.8257 -29.8252 -29.8252
   -29.8161 -29.8161 -29.8133 -29.8132 -29.8100 -29.8099 -29.8075 -29.8075
   -29.8012 -29.8012 -29.7972 -29.7972 -29.7965 -29.7965 -29.7951 -29.7951
   -29.7893 -29.7893 -29.7861 -29.7860 -29.7809 -29.7809 -29.7723 -29.7722
   -29.7709 -29.7709 -29.7487 -29.7487 -29.7452 -29.7452 -29.7324 -29.7324
    13.7290  13.7291  14.7513  14.7515  14.9618  14.9618  15.0177  15.0178
    15.0368  15.0368  15.0552  15.0552  15.1042  15.1043  15.1770  15.1771
    15.2360  15.2360  15.2766  15.2766  15.2920  15.2920  15.3184  15.3185
    15.3455  15.3455  15.4516  15.4516  15.4939  15.4939  15.5694  15.5695
    15.7428  15.7428  15.7605  15.7606  15.8455  15.8455  15.9155  15.9155
    15.9188  15.9189  16.1021  16.1021  16.1441  16.1441  16.1553  16.1553
    16.4390  16.4391  16.4406  16.4406  16.5551  16.5551  16.5635  16.5636
    16.5861  16.5861  16.7085  16.7085  16.9241  16.9241  17.0199  17.0200
    17.0283  17.0283  17.0551  17.0551  17.1014  17.1014  17.1184  17.1185
    17.1658  17.1658  17.3236  17.3237  17.3711  17.3711  17.3843  17.3843
    17.4032  17.4032  17.4406  17.4406  17.4457  17.4457  17.4581  17.4581
    17.6210  17.6210  17.6454  17.6454  17.8027  17.8027  17.8146  17.8146
    17.8244  17.8244  17.8849  17.8850  17.9008  17.9009  17.9161  17.9161
    17.9824  17.9824  18.2513  18.2513  18.2521  18.2521  18.3084  18.3085
    18.3388  18.3388  18.3684  18.3684  18.3685  18.3686  18.6710  18.6710
    18.6747  18.6747  18.8765  18.8765  18.9019  18.9019  18.9165  18.9165
    19.0843  19.0843  19.2184  19.2184  19.2235  19.2235  19.3498  19.3498
    19.3747  19.3747  19.4212  19.4212  19.4723  19.4723  19.4727  19.4727
    19.6009  19.6009  19.6286  19.6286  19.6574  19.6574  19.7065  19.7065
    19.7086  19.7086  19.7249  19.7250  19.7303  19.7304  19.7461  19.7461
    19.9448  19.9448  20.0210  20.0210  20.0281  20.0281  20.3568  20.3568
    20.5139  20.5139  21.0894  21.0895  21.4222  21.4222  21.6924  21.6925
    23.3207  23.3207  23.6972  23.6973  23.9134  23.9134  24.3391  24.3392
    25.0790  25.0790  25.5568  25.5569  25.9736  25.9737  26.7341  26.7342
    27.5556  27.5556  27.9135  27.9136  27.9689  27.9690  28.2562  28.2563
    28.4411  28.4412  29.5916  29.5917  29.9823  29.9823  30.5660  30.5660
    30.8881  30.8882  31.0154  31.0155  31.4126  31.4127  31.6107  31.6107
    32.2732  32.2734

          k = 0.0556 0.3889 0.3889 ( 32127 PWs)   bands (ev):

   -64.2154 -64.2072 -64.2072 -64.2002 -64.1881 -64.1841 -64.1840 -64.1829
   -64.1810 -64.1796 -64.1796 -64.1774 -64.1692 -64.1692 -64.1673 -64.1673
   -64.1672 -64.1672 -64.1650 -64.1650 -64.1642 -64.1642 -64.1611 -64.1610
   -64.1610 -64.1609 -64.1602 -64.1602 -64.1584 -64.1565 -64.1565 -64.1557
   -30.0975 -30.0975 -30.0721 -30.0721 -30.0713 -30.0712 -30.0686 -30.0684
   -30.0659 -30.0659 -30.0558 -30.0541 -30.0541 -30.0509 -30.0509 -30.0415
   -30.0415 -30.0345 -30.0345 -30.0336 -30.0336 -30.0322 -30.0322 -30.0183
   -30.0159 -30.0159 -29.9995 -29.9834 -29.9783 -29.9602 -29.9602 -29.9317
   -29.9226 -29.9226 -29.9095 -29.9095 -29.9018 -29.8932 -29.8931 -29.8877
   -29.8877 -29.8867 -29.8867 -29.8816 -29.8816 -29.8610 -29.8610 -29.8561
   -29.8561 -29.8561 -29.8561 -29.8538 -29.8520 -29.8520 -29.8495 -29.8495
   -29.8460 -29.8460 -29.8326 -29.8325 -29.8296 -29.8295 -29.8286 -29.8241
   -29.8241 -29.8130 -29.8130 -29.8099 -29.8099 -29.8098 -29.8098 -29.8075
   -29.8007 -29.8001 -29.8000 -29.7988 -29.7988 -29.7960 -29.7927 -29.7882
   -29.7882 -29.7849 -29.7831 -29.7831 -29.7828 -29.7804 -29.7781 -29.7709
   -29.7708 -29.7670 -29.7669 -29.7469 -29.7398 -29.7380 -29.7380 -29.7269
    13.6610  14.2201  14.2201  14.7006  14.8959  14.9822  14.9902  15.0372
    15.0372  15.0930  15.0930  15.1004  15.2093  15.2094  15.2394  15.2499
    15.2499  15.2532  15.2532  15.2541  15.2542  15.2850  15.2850  15.4041
    15.4042  15.4224  15.4375  15.4769  15.4769  15.5939  15.5939  15.5976
    15.5976  15.6160  15.6160  15.6629  15.6629  15.8016  15.8016  15.8159
    15.8159  15.8494  15.8495  16.0876  16.0876  16.1442  16.3365  16.3365
    16.3411  16.3411  16.4478  16.5151  16.5550  16.5550  16.5640  16.5640
    16.5820  16.7805  16.8892  16.8892  16.9468  17.0743  17.0850  17.0850
    17.1258  17.1258  17.1336  17.1336  17.1345  17.1345  17.1746  17.1746
    17.2018  17.2144  17.3653  17.3777  17.3897  17.3897  17.4015  17.4271
    17.4484  17.4575  17.4575  17.4798  17.4824  17.4825  17.6013  17.6013
    17.6128  17.6128  17.6168  17.6168  17.6320  17.6320  17.7362  17.7362
    17.7437  17.7614  17.8346  17.8346  17.8353  17.9060  17.9470  17.9480
    17.9480  17.9588  17.9588  17.9825  17.9825  18.0083  18.0084  18.1771
    18.2905  18.2905  18.3083  18.3083  18.4245  18.4871  18.4871  18.5192
    18.6852  18.8404  18.9375  18.9375  18.9837  18.9837  19.0799  19.0799
    19.1532  19.1532  19.2079  19.2079  19.2670  19.2670  19.2686  19.3799
    19.3799  19.4784  19.5024  19.5062  19.5077  19.5077  19.5115  19.5115
    19.5171  19.5171  19.5862  19.6606  19.6920  19.6920  19.6969  19.6969
    19.7087  19.8010  19.8010  19.8290  19.8290  19.8318  19.8318  19.8366
    19.8611  19.8611  19.8617  19.8617  19.9643  20.0266  20.1437  20.2349
    20.2349  20.7355  20.7355  20.8159  21.5321  21.5322  22.6065  22.6065
    22.9854  22.9854  23.7565  23.7565  24.1545  24.1545  24.2108  24.2108
    24.6308  24.6308  25.8240  25.8240  25.8489  26.6437  27.0694  27.0694
    27.3043  27.3043  27.5342  27.5342  27.7003  27.7003  28.1075  28.1075
    28.1827  28.1828  28.1898  29.4874  29.9349  30.5207  30.8858  30.8858
    30.8861  31.0109  31.4063  31.4063  31.5517  31.5517  32.0012  32.0012
    32.4171  32.4171

          k = 0.0556 0.3889-0.5000 ( 32122 PWs)   bands (ev):

   -64.2117 -64.2116 -64.2040 -64.2040 -64.1863 -64.1862 -64.1827 -64.1826
   -64.1814 -64.1814 -64.1786 -64.1786 -64.1683 -64.1683 -64.1660 -64.1660
   -64.1656 -64.1655 -64.1648 -64.1647 -64.1634 -64.1634 -64.1628 -64.1628
   -64.1625 -64.1624 -64.1607 -64.1606 -64.1574 -64.1573 -64.1561 -64.1561
   -30.0866 -30.0866 -30.0859 -30.0859 -30.0645 -30.0645 -30.0644 -30.0644
   -30.0591 -30.0591 -30.0562 -30.0562 -30.0513 -30.0513 -30.0509 -30.0509
   -30.0439 -30.0439 -30.0364 -30.0363 -30.0344 -30.0344 -30.0304 -30.0303
   -30.0161 -30.0161 -29.9972 -29.9972 -29.9730 -29.9730 -29.9459 -29.9459
   -29.9075 -29.9075 -29.9041 -29.9041 -29.8995 -29.8995 -29.8944 -29.8943
   -29.8785 -29.8785 -29.8732 -29.8732 -29.8722 -29.8722 -29.8703 -29.8703
   -29.8670 -29.8670 -29.8542 -29.8541 -29.8491 -29.8491 -29.8453 -29.8452
   -29.8389 -29.8388 -29.8365 -29.8365 -29.8308 -29.8308 -29.8283 -29.8282
   -29.8204 -29.8204 -29.8201 -29.8201 -29.8056 -29.8055 -29.8055 -29.8055
   -29.8052 -29.8052 -29.8009 -29.8008 -29.7907 -29.7907 -29.7895 -29.7895
   -29.7878 -29.7877 -29.7861 -29.7861 -29.7767 -29.7767 -29.7761 -29.7761
   -29.7745 -29.7745 -29.7561 -29.7560 -29.7373 -29.7373 -29.7309 -29.7309
    13.9178  13.9179  14.4420  14.4421  14.9783  14.9783  15.0837  15.0838
    15.0891  15.0891  15.1009  15.1010  15.1591  15.1591  15.2097  15.2097
    15.2162  15.2162  15.3299  15.3300  15.3547  15.3547  15.4107  15.4107
    15.4147  15.4147  15.4169  15.4170  15.4630  15.4630  15.5345  15.5345
    15.6041  15.6042  15.6285  15.6286  15.7027  15.7028  15.7165  15.7166
    15.7287  15.7287  15.9693  15.9693  16.1952  16.1952  16.2019  16.2020
    16.4356  16.4356  16.4429  16.4430  16.5527  16.5527  16.6886  16.6886
    16.6972  16.6972  16.8486  16.8486  16.9346  16.9347  17.0816  17.0816
    17.1324  17.1324  17.1503  17.1503  17.2607  17.2607  17.2969  17.2969
    17.3864  17.3865  17.4427  17.4427  17.4495  17.4495  17.4512  17.4512
    17.4567  17.4567  17.4767  17.4767  17.5459  17.5459  17.5658  17.5658
    17.5935  17.5935  17.6569  17.6569  17.6618  17.6618  17.6726  17.6726
    17.6789  17.6790  17.7090  17.7090  17.8011  17.8011  17.8041  17.8041
    17.8319  17.8319  18.0329  18.0329  18.1456  18.1456  18.1604  18.1604
    18.1953  18.1954  18.2240  18.2240  18.2388  18.2388  18.3482  18.3482
    18.8195  18.8195  18.9403  18.9403  19.0972  19.0972  19.1111  19.1112
    19.1248  19.1249  19.2503  19.2503  19.3515  19.3515  19.3891  19.3891
    19.4012  19.4012  19.4290  19.4290  19.5411  19.5411  19.6141  19.6142
    19.6191  19.6191  19.6839  19.6839  19.7120  19.7120  19.7302  19.7302
    19.7618  19.7618  19.7648  19.7648  19.7804  19.7804  19.7849  19.7849
    19.8433  19.8433  19.8584  19.8584  19.9013  19.9013  20.1386  20.1386
    20.3426  20.3427  20.7231  20.7231  22.0682  22.0683  22.2347  22.2348
    23.3549  23.3550  23.5668  23.5669  24.0640  24.0641  24.2979  24.2979
    25.0297  25.0297  25.3225  25.3225  26.4331  26.4332  27.3282  27.3282
    27.3443  27.3443  27.4617  27.4617  27.5694  27.5695  27.6529  27.6529
    27.7487  27.7488  28.8165  28.8165  30.6394  30.6395  30.8696  30.8697
    30.9318  30.9319  31.2344  31.2344  31.9617  31.9618  32.0613  32.0613
    32.1151  32.1151

          k = 0.0556-0.5000-0.5000 ( 32132 PWs)   bands (ev):

   -64.2082 -64.2081 -64.2081 -64.2081 -64.1847 -64.1846 -64.1846 -64.1846
   -64.1802 -64.1801 -64.1801 -64.1801 -64.1643 -64.1642 -64.1641 -64.1641
   -64.1641 -64.1641 -64.1641 -64.1641 -64.1641 -64.1641 -64.1641 -64.1641
   -64.1640 -64.1640 -64.1640 -64.1640 -64.1567 -64.1566 -64.1566 -64.1566
   -30.0771 -30.0771 -30.0770 -30.0770 -30.0770 -30.0770 -30.0770 -30.0770
   -30.0482 -30.0482 -30.0482 -30.0482 -30.0481 -30.0481 -30.0481 -30.0481
   -30.0443 -30.0442 -30.0442 -30.0442 -30.0338 -30.0338 -30.0338 -30.0338
   -30.0171 -30.0171 -30.0171 -30.0171 -29.9598 -29.9598 -29.9598 -29.9598
   -29.8862 -29.8862 -29.8862 -29.8862 -29.8862 -29.8862 -29.8862 -29.8862
   -29.8848 -29.8847 -29.8847 -29.8847 -29.8847 -29.8847 -29.8847 -29.8847
   -29.8541 -29.8541 -29.8540 -29.8540 -29.8422 -29.8422 -29.8422 -29.8421
   -29.8421 -29.8421 -29.8421 -29.8421 -29.8420 -29.8420 -29.8420 -29.8420
   -29.8135 -29.8135 -29.8135 -29.8135 -29.8135 -29.8135 -29.8135 -29.8134
   -29.7972 -29.7972 -29.7972 -29.7972 -29.7921 -29.7921 -29.7921 -29.7921
   -29.7825 -29.7825 -29.7825 -29.7825 -29.7802 -29.7802 -29.7802 -29.7802
   -29.7655 -29.7655 -29.7655 -29.7655 -29.7325 -29.7325 -29.7325 -29.7325
    14.1589  14.1590  14.1590  14.1592  15.0212  15.0213  15.0213  15.0213
    15.1374  15.1374  15.1374  15.1375  15.1984  15.1984  15.1984  15.1985
    15.3349  15.3349  15.3350  15.3350  15.3350  15.3350  15.3350  15.3350
    15.5116  15.5116  15.5116  15.5116  15.5116  15.5116  15.5117  15.5117
    15.5609  15.5609  15.5609  15.5609  15.5609  15.5609  15.5609  15.5609
    15.7820  15.7820  15.7820  15.7820  16.3093  16.3093  16.3093  16.3093
    16.3094  16.3094  16.3094  16.3094  16.6375  16.6375  16.6375  16.6375
    16.8882  16.8882  16.8882  16.8882  17.0891  17.0891  17.0891  17.0891
    17.2172  17.2172  17.2172  17.2172  17.2306  17.2306  17.2306  17.2306
    17.4626  17.4626  17.4627  17.4627  17.4892  17.4892  17.4892  17.4892
    17.4892  17.4892  17.4892  17.4892  17.5474  17.5475  17.5475  17.5475
    17.5543  17.5543  17.5543  17.5543  17.6663  17.6663  17.6663  17.6663
    17.7910  17.7910  17.7910  17.7910  17.7910  17.7910  17.7910  17.7910
    17.9606  17.9606  17.9606  17.9607  17.9758  17.9758  17.9758  17.9758
    17.9758  17.9758  17.9758  17.9758  18.2905  18.2905  18.2905  18.2905
    18.9726  18.9726  18.9726  18.9727  19.0692  19.0692  19.0692  19.0692
    19.2725  19.2725  19.2725  19.2725  19.2725  19.2725  19.2725  19.2726
    19.6122  19.6122  19.6122  19.6122  19.6390  19.6390  19.6390  19.6390
    19.6390  19.6390  19.6390  19.6390  19.7592  19.7592  19.7592  19.7592
    19.7924  19.7924  19.7924  19.7924  19.7924  19.7924  19.7924  19.7924
    19.7928  19.7928  19.7928  19.7928  19.8479  19.8479  19.8479  19.8479
    20.4485  20.4486  20.4486  20.4486  22.7932  22.7932  22.7933  22.7933
    22.7933  22.7933  22.7933  22.7933  24.7793  24.7794  24.7794  24.7794
    24.7794  24.7794  24.7794  24.7794  26.9754  26.9754  26.9754  26.9755
    27.3720  27.3720  27.3720  27.3720  27.3720  27.3720  27.3720  27.3721
    28.0839  28.0840  28.0840  28.0840  30.8857  30.8858  30.8858  30.8859
    31.3509  31.3510  31.3510  31.3510  31.9495  31.9495  31.9495  31.9496
    32.5128  32.5128

          k = 0.1667 0.1667 0.1667 ( 32132 PWs)   bands (ev):

   -64.2244 -64.1995 -64.1995 -64.1995 -64.1836 -64.1836 -64.1836 -64.1813
   -64.1812 -64.1812 -64.1768 -64.1721 -64.1720 -64.1720 -64.1720 -64.1720
   -64.1720 -64.1719 -64.1719 -64.1719 -64.1653 -64.1653 -64.1653 -64.1563
   -64.1563 -64.1563 -64.1562 -64.1562 -64.1562 -64.1562 -64.1562 -64.1562
   -30.1212 -30.1212 -30.1212 -30.1060 -30.0968 -30.0968 -30.0968 -30.0392
   -30.0392 -30.0392 -30.0311 -30.0311 -30.0311 -30.0311 -30.0311 -30.0311
   -30.0251 -30.0251 -30.0251 -30.0250 -30.0250 -30.0250 -29.9944 -29.9944
   -29.9944 -29.9786 -29.9786 -29.9786 -29.9622 -29.9622 -29.9622 -29.9622
   -29.9622 -29.9622 -29.9272 -29.9272 -29.9272 -29.8872 -29.8872 -29.8872
   -29.8829 -29.8829 -29.8829 -29.8817 -29.8817 -29.8817 -29.8817 -29.8817
   -29.8817 -29.8675 -29.8675 -29.8674 -29.8639 -29.8639 -29.8639 -29.8639
   -29.8639 -29.8639 -29.8355 -29.8355 -29.8355 -29.8187 -29.8187 -29.8187
   -29.8147 -29.8147 -29.8147 -29.7990 -29.7990 -29.7990 -29.7955 -29.7955
   -29.7955 -29.7887 -29.7887 -29.7887 -29.7887 -29.7887 -29.7887 -29.7847
   -29.7847 -29.7847 -29.7758 -29.7758 -29.7758 -29.7744 -29.7744 -29.7731
   -29.7731 -29.7731 -29.7601 -29.7601 -29.7601 -29.7468 -29.7223 -29.7223
    13.0352  14.6752  14.6752  14.6752  14.6762  14.6762  14.6762  14.6774
    14.8019  14.8019  14.8019  14.9558  14.9558  14.9558  15.2185  15.2186
    15.2186  15.4785  15.4785  15.4786  15.5757  15.5757  15.5757  15.5757
    15.5757  15.5757  15.6547  15.6547  15.6547  15.8083  15.8083  15.8083
    15.8173  15.8173  15.8173  15.8173  15.8173  15.8173  16.0614  16.0614
    16.0614  16.0614  16.0615  16.0615  16.2019  16.2019  16.2019  16.5043
    16.5043  16.5043  16.5993  16.5994  16.5994  16.5994  16.5994  16.5994
    16.6707  16.6707  16.6707  16.7618  16.7618  16.7618  16.7618  16.7618
    16.7618  16.9169  16.9169  16.9169  17.0110  17.0926  17.0926  17.0926
    17.0926  17.0926  17.0926  17.1042  17.1042  17.1042  17.1060  17.1060
    17.1666  17.1667  17.1667  17.1825  17.1825  17.2056  17.2056  17.2056
    17.6141  17.6141  17.6141  17.7914  17.7914  17.7914  17.9314  17.9315
    17.9315  17.9822  17.9823  17.9823  18.1106  18.1106  18.1106  18.1605
    18.1605  18.1605  18.1605  18.1605  18.1605  18.4623  18.4623  18.4623
    18.5106  18.5106  18.5106  18.5918  18.5918  18.5918  18.6737  18.6737
    18.7217  18.7217  18.7217  18.7217  18.7218  18.7218  18.9390  18.9390
    18.9390  19.0496  19.0496  19.0496  19.0496  19.0496  19.0496  19.1739
    19.1739  19.1739  19.2087  19.2087  19.2087  19.5565  19.5565  19.5565
    19.5572  19.5572  19.5572  19.6455  19.6455  19.6455  19.7033  19.7033
    19.7033  19.7489  19.7489  19.9326  19.9330  19.9330  19.9330  20.0864
    20.0864  20.0864  20.0864  20.0864  20.0864  20.1505  20.1506  20.1506
    20.7983  20.7983  20.7983  21.9200  21.9200  21.9200  22.3227  22.3227
    22.3227  22.3227  22.3227  22.3227  23.5413  23.5413  23.5413  23.9890
    23.9890  23.9890  27.1431  27.1431  27.1431  27.1431  27.1432  27.1432
    27.4538  27.4538  27.4538  28.6430  28.9580  28.9580  28.9580  28.9580
    28.9581  28.9581  29.6652  29.6652  29.6652  31.2006  31.2006  31.2006
    31.3022  31.3022  31.3022  31.3022  31.3023  31.3023  31.5144  31.5144
    31.5144  31.5144

          k = 0.1667 0.1667 0.2778 ( 32121 PWs)   bands (ev):

   -64.2223 -64.2053 -64.1982 -64.1981 -64.1873 -64.1873 -64.1830 -64.1805
   -64.1804 -64.1784 -64.1754 -64.1741 -64.1741 -64.1720 -64.1720 -64.1719
   -64.1719 -64.1704 -64.1684 -64.1683 -64.1659 -64.1632 -64.1632 -64.1584
   -64.1576 -64.1575 -64.1570 -64.1570 -64.1563 -64.1563 -64.1562 -64.1562
   -30.1168 -30.1125 -30.1125 -30.0922 -30.0906 -30.0906 -30.0870 -30.0590
   -30.0479 -30.0478 -30.0410 -30.0410 -30.0374 -30.0374 -30.0372 -30.0371
   -30.0310 -30.0310 -30.0253 -30.0253 -30.0240 -30.0240 -30.0126 -30.0068
   -29.9860 -29.9860 -29.9774 -29.9774 -29.9649 -29.9649 -29.9518 -29.9518
   -29.9459 -29.9459 -29.9406 -29.9406 -29.9029 -29.9017 -29.9017 -29.8971
   -29.8971 -29.8915 -29.8915 -29.8774 -29.8669 -29.8669 -29.8655 -29.8655
   -29.8650 -29.8650 -29.8637 -29.8637 -29.8630 -29.8573 -29.8557 -29.8557
   -29.8537 -29.8537 -29.8335 -29.8270 -29.8231 -29.8230 -29.8217 -29.8213
   -29.8213 -29.8111 -29.8106 -29.8106 -29.8072 -29.8072 -29.8022 -29.8022
   -29.8021 -29.8020 -29.7978 -29.7901 -29.7901 -29.7886 -29.7886 -29.7880
   -29.7868 -29.7868 -29.7799 -29.7799 -29.7765 -29.7711 -29.7676 -29.7676
   -29.7635 -29.7617 -29.7613 -29.7592 -29.7560 -29.7560 -29.7270 -29.7240
    13.1796  14.3302  14.7160  14.7459  14.7604  14.7604  14.7621  14.7621
    14.8804  14.8805  14.9183  15.0121  15.0494  15.0494  15.1764  15.2654
    15.2889  15.2890  15.3357  15.3357  15.4068  15.4069  15.4887  15.5636
    15.5636  15.6101  15.6102  15.6379  15.6555  15.6556  15.7292  15.7292
    15.7462  15.7462  15.7644  15.7644  15.8062  15.8062  15.8891  15.8891
    16.0728  16.0728  16.0936  16.0936  16.2552  16.2552  16.3857  16.4191
    16.4191  16.4468  16.4468  16.4887  16.5190  16.5190  16.6154  16.6154
    16.6432  16.6432  16.7424  16.7424  16.7445  16.7445  16.8199  16.8728
    16.8728  16.9424  16.9528  17.0149  17.0149  17.1020  17.1020  17.1021
    17.1021  17.1097  17.1097  17.1260  17.1420  17.2088  17.2088  17.2308
    17.2400  17.2847  17.2847  17.2947  17.3051  17.3947  17.4935  17.4935
    17.4956  17.4956  17.6094  17.6098  17.7207  17.7207  17.7442  17.7955
    17.7955  17.8913  17.8913  17.9412  17.9615  17.9615  18.2236  18.2236
    18.2575  18.2575  18.2998  18.3062  18.3326  18.3326  18.4610  18.4610
    18.5110  18.5110  18.5904  18.5904  18.5971  18.6307  18.6307  18.6315
    18.6703  18.6703  18.7147  18.7147  18.7151  18.7448  18.8263  18.8913
    18.8913  19.0560  19.0977  19.0978  19.2370  19.2435  19.2435  19.2656
    19.2656  19.2756  19.2756  19.2802  19.2802  19.3453  19.3453  19.3728
    19.4846  19.4915  19.4915  19.6000  19.6015  19.6084  19.6084  19.6834
    19.8978  19.9160  19.9160  19.9709  19.9709  19.9743  19.9743  19.9767
    19.9767  20.0626  20.0896  20.0896  20.0912  20.1031  20.1339  20.1339
    20.3946  20.3947  20.7238  21.8253  21.8253  22.0032  22.0032  22.2937
    22.2937  22.5750  22.9268  22.9737  22.9737  23.9431  23.9983  23.9983
    24.6403  24.6403  26.2750  26.2750  26.4962  26.4962  27.2850  27.3081
    27.3081  27.7742  27.7742  28.0758  28.0758  28.7919  29.1553  29.1553
    29.1768  29.1768  29.2052  29.4966  29.4966  30.4018  30.4018  30.7887
    30.7887  31.1320  31.1320  31.4651  31.4651  31.6900  31.6900  31.8986
    31.8986  31.9767

          k = 0.1667 0.1667 0.3889 ( 32150 PWs)   bands (ev):

   -64.2192 -64.2106 -64.1962 -64.1962 -64.1907 -64.1906 -64.1822 -64.1798
   -64.1793 -64.1793 -64.1761 -64.1761 -64.1720 -64.1720 -64.1719 -64.1719
   -64.1701 -64.1690 -64.1667 -64.1650 -64.1649 -64.1615 -64.1613 -64.1612
   -64.1595 -64.1595 -64.1581 -64.1581 -64.1563 -64.1563 -64.1562 -64.1562
   -30.1080 -30.1001 -30.1001 -30.0816 -30.0816 -30.0783 -30.0748 -30.0728
   -30.0665 -30.0665 -30.0563 -30.0563 -30.0399 -30.0399 -30.0361 -30.0361
   -30.0341 -30.0341 -30.0336 -30.0323 -30.0271 -30.0271 -30.0153 -30.0153
   -29.9953 -29.9953 -29.9649 -29.9649 -29.9586 -29.9586 -29.9520 -29.9520
   -29.9396 -29.9395 -29.9300 -29.9300 -29.9196 -29.9196 -29.9120 -29.9120
   -29.9023 -29.9023 -29.8776 -29.8695 -29.8643 -29.8643 -29.8636 -29.8636
   -29.8565 -29.8532 -29.8532 -29.8471 -29.8465 -29.8465 -29.8443 -29.8443
   -29.8416 -29.8416 -29.8383 -29.8309 -29.8309 -29.8306 -29.8290 -29.8174
   -29.8174 -29.8167 -29.8167 -29.8136 -29.8136 -29.8083 -29.8083 -29.8069
   -29.8047 -29.8046 -29.7961 -29.7935 -29.7935 -29.7911 -29.7885 -29.7885
   -29.7878 -29.7878 -29.7873 -29.7873 -29.7831 -29.7807 -29.7680 -29.7632
   -29.7615 -29.7615 -29.7551 -29.7551 -29.7521 -29.7469 -29.7336 -29.7288
    13.3911  13.9820  14.7954  14.8433  14.8825  14.8826  14.8832  14.8832
    14.9973  14.9973  15.0673  15.0732  15.0778  15.0955  15.1825  15.1825
    15.1869  15.1869  15.2175  15.2176  15.3371  15.3407  15.3407  15.3847
    15.3847  15.4392  15.5723  15.5723  15.6160  15.6160  15.6493  15.6494
    15.7241  15.7241  15.7645  15.7646  15.8845  15.8845  15.9189  15.9189
    16.0906  16.0906  16.1538  16.1538  16.2423  16.2423  16.2845  16.2845
    16.3321  16.3321  16.3502  16.3502  16.5279  16.5279  16.5361  16.5600
    16.6960  16.6960  16.7169  16.7724  16.7724  16.8171  16.8171  16.8517
    16.9227  16.9227  16.9337  16.9337  17.0639  17.1108  17.1108  17.1131
    17.1132  17.1259  17.2123  17.2372  17.2372  17.3182  17.3260  17.3787
    17.3787  17.3934  17.3934  17.4333  17.4333  17.4338  17.4370  17.4370
    17.4490  17.5436  17.5794  17.6407  17.6987  17.7602  17.8022  17.8023
    17.8215  17.8216  17.8653  17.8653  17.9299  17.9299  18.2774  18.2774
    18.2948  18.3205  18.3413  18.3413  18.3557  18.3557  18.4585  18.4585
    18.4869  18.4869  18.4922  18.4923  18.4931  18.5902  18.5902  18.6167
    18.6167  18.6430  18.6528  18.6807  18.6807  18.7758  18.8426  18.8426
    18.9486  18.9807  19.0551  19.0935  19.0935  19.1853  19.1853  19.2552
    19.4001  19.4001  19.4170  19.4247  19.4247  19.4536  19.4694  19.4694
    19.4722  19.4722  19.4948  19.4948  19.5024  19.5024  19.5427  19.8031
    19.8167  19.8289  19.8289  19.8296  19.8296  19.8314  19.8314  20.0104
    20.0279  20.0279  20.0951  20.0951  20.1169  20.1169  20.2778  20.4131
    20.4131  20.6117  20.7408  21.3428  21.3428  22.0964  22.0964  22.1998
    22.2469  22.2469  23.1438  23.7051  23.7051  23.8216  24.5636  24.5636
    25.3547  25.3547  25.3767  25.3767  25.8384  25.8384  26.9337  26.9337
    27.2990  27.8690  27.8691  28.0639  28.2451  28.2451  28.6688  28.6688
    29.4859  29.4859  29.5782  29.5782  29.8394  30.0187  30.0187  30.3072
    30.3072  30.9269  30.9269  31.3083  31.4419  31.4419  31.6096  31.6096
    31.8281  31.8281

          k = 0.1667 0.1667-0.5000 ( 32104 PWs)   bands (ev):

   -64.2153 -64.2153 -64.1937 -64.1937 -64.1937 -64.1936 -64.1811 -64.1811
   -64.1779 -64.1778 -64.1778 -64.1778 -64.1720 -64.1720 -64.1720 -64.1719
   -64.1677 -64.1677 -64.1654 -64.1654 -64.1620 -64.1620 -64.1620 -64.1619
   -64.1596 -64.1595 -64.1595 -64.1595 -64.1563 -64.1562 -64.1562 -64.1562
   -30.0950 -30.0950 -30.0843 -30.0843 -30.0843 -30.0843 -30.0700 -30.0700
   -30.0700 -30.0700 -30.0549 -30.0549 -30.0544 -30.0544 -30.0393 -30.0393
   -30.0393 -30.0393 -30.0302 -30.0302 -30.0302 -30.0302 -30.0054 -30.0054
   -30.0054 -30.0054 -29.9605 -29.9605 -29.9605 -29.9605 -29.9390 -29.9390
   -29.9390 -29.9390 -29.9262 -29.9262 -29.9262 -29.9262 -29.9153 -29.9153
   -29.9153 -29.9153 -29.8638 -29.8637 -29.8637 -29.8637 -29.8593 -29.8592
   -29.8529 -29.8529 -29.8481 -29.8481 -29.8411 -29.8411 -29.8411 -29.8410
   -29.8310 -29.8310 -29.8310 -29.8310 -29.8291 -29.8291 -29.8291 -29.8291
   -29.8288 -29.8288 -29.8288 -29.8288 -29.8033 -29.8033 -29.7986 -29.7985
   -29.7985 -29.7985 -29.7969 -29.7969 -29.7968 -29.7968 -29.7938 -29.7938
   -29.7935 -29.7935 -29.7883 -29.7883 -29.7883 -29.7883 -29.7654 -29.7654
   -29.7570 -29.7570 -29.7570 -29.7570 -29.7421 -29.7421 -29.7366 -29.7366
    13.6624  13.6626  14.9151  14.9151  14.9589  14.9590  15.0276  15.0276
    15.0277  15.0277  15.0376  15.0376  15.0377  15.0377  15.1512  15.1512
    15.1512  15.1512  15.2046  15.2047  15.2437  15.2437  15.3634  15.3635
    15.3635  15.3635  15.4969  15.4969  15.4970  15.4970  15.6871  15.6871
    15.6871  15.6871  15.8736  15.8736  15.8736  15.8736  16.0670  16.0670
    16.0670  16.0670  16.1310  16.1311  16.1311  16.1311  16.2436  16.2436
    16.2436  16.2436  16.4270  16.4270  16.4270  16.4270  16.6181  16.6181
    16.7179  16.7179  16.7560  16.7560  16.7560  16.7560  16.8361  16.8361
    16.8362  16.8362  17.1072  17.1072  17.1148  17.1148  17.1148  17.1148
    17.1691  17.1691  17.1691  17.1691  17.2911  17.2911  17.2911  17.2911
    17.3154  17.3154  17.4308  17.4308  17.4394  17.4394  17.5115  17.5115
    17.5115  17.5115  17.5876  17.5876  17.8440  17.8440  17.8440  17.8440
    17.9281  17.9281  17.9281  17.9282  18.0086  18.0087  18.1150  18.1151
    18.3799  18.3799  18.3840  18.3840  18.3840  18.3840  18.4062  18.4062
    18.4062  18.4062  18.4827  18.4827  18.4828  18.4828  18.5634  18.5634
    18.5634  18.5634  18.6059  18.6059  18.6059  18.6059  18.8543  18.8543
    18.9696  18.9696  19.2078  19.2078  19.2679  19.2679  19.2928  19.2928
    19.2928  19.2928  19.2953  19.2953  19.2953  19.2953  19.6580  19.6580
    19.6581  19.6581  19.6672  19.6672  19.6672  19.6672  19.6858  19.6858
    19.6859  19.6859  19.6952  19.6952  19.6992  19.6992  19.6993  19.6993
    19.9132  19.9132  20.1039  20.1039  20.1039  20.1039  20.4625  20.4625
    20.8719  20.8719  20.8719  20.8719  21.4517  21.4518  22.1806  22.1807
    22.1807  22.1807  23.5669  23.5670  24.5109  24.5109  24.5109  24.5109
    25.1871  25.1871  25.1872  25.1872  26.1309  26.1309  26.1310  26.1310
    27.5522  27.5522  28.2229  28.2229  28.2230  28.2230  28.8525  28.8525
    28.8525  28.8526  29.8682  29.8682  29.8683  29.8683  30.5169  30.5169
    30.5170  30.5170  30.5421  30.5422  31.4677  31.4677  31.4678  31.4678
    31.9962  31.9962

          k = 0.1667 0.2778 0.2778 ( 32108 PWs)   bands (ev):

   -64.2203 -64.2038 -64.2037 -64.1969 -64.1914 -64.1865 -64.1865 -64.1804
   -64.1797 -64.1749 -64.1748 -64.1740 -64.1739 -64.1724 -64.1700 -64.1700
   -64.1699 -64.1699 -64.1685 -64.1685 -64.1639 -64.1639 -64.1616 -64.1583
   -64.1583 -64.1582 -64.1582 -64.1577 -64.1577 -64.1568 -64.1568 -64.1563
   -30.1101 -30.1101 -30.1030 -30.0847 -30.0821 -30.0821 -30.0770 -30.0577
   -30.0576 -30.0526 -30.0526 -30.0431 -30.0431 -30.0392 -30.0392 -30.0383
   -30.0382 -30.0362 -30.0362 -30.0353 -30.0337 -30.0337 -30.0112 -30.0112
   -29.9951 -29.9951 -29.9946 -29.9573 -29.9533 -29.9533 -29.9519 -29.9484
   -29.9484 -29.9367 -29.9367 -29.9169 -29.9149 -29.9148 -29.9018 -29.8854
   -29.8854 -29.8823 -29.8823 -29.8806 -29.8806 -29.8733 -29.8733 -29.8610
   -29.8610 -29.8610 -29.8565 -29.8565 -29.8535 -29.8535 -29.8529 -29.8529
   -29.8475 -29.8474 -29.8381 -29.8381 -29.8237 -29.8237 -29.8206 -29.8189
   -29.8189 -29.8133 -29.8114 -29.8090 -29.8090 -29.8073 -29.8056 -29.8055
   -29.8046 -29.8046 -29.8037 -29.8015 -29.8015 -29.7918 -29.7918 -29.7905
   -29.7905 -29.7901 -29.7775 -29.7749 -29.7731 -29.7700 -29.7697 -29.7671
   -29.7671 -29.7577 -29.7577 -29.7545 -29.7545 -29.7498 -29.7304 -29.7249
    13.3194  14.4294  14.4294  14.7338  14.8152  14.8277  14.8291  14.8291
    14.9383  15.0008  15.0008  15.1055  15.1055  15.1416  15.1531  15.1660
    15.1660  15.2471  15.2471  15.3037  15.4230  15.4230  15.4783  15.4784
    15.5082  15.5082  15.5852  15.5852  15.6474  15.6474  15.6544  15.6544
    15.6575  15.6718  15.6718  15.7578  15.7578  15.8437  15.8437  15.8809
    15.8925  15.8925  16.0886  16.0886  16.3340  16.3340  16.3455  16.4024
    16.4137  16.4138  16.4247  16.4247  16.4670  16.4670  16.6079  16.6652
    16.6652  16.7580  16.7580  16.7983  16.7983  16.8498  16.9187  16.9203
    16.9203  16.9509  16.9509  17.0505  17.0505  17.0692  17.0692  17.1435
    17.1875  17.1978  17.2521  17.2522  17.2631  17.2836  17.3125  17.3462
    17.3462  17.3579  17.3763  17.3763  17.3959  17.3959  17.4250  17.4732
    17.4732  17.5263  17.5263  17.5734  17.6191  17.6191  17.7201  17.7201
    17.7355  17.8015  17.9902  17.9902  18.0314  18.0315  18.0568  18.0568
    18.1250  18.1250  18.3220  18.3432  18.3503  18.3621  18.3719  18.3719
    18.4090  18.4090  18.4464  18.4464  18.5827  18.6252  18.6252  18.7052
    18.7052  18.7082  18.7390  18.7391  18.7799  18.8196  18.8196  18.8847
    18.8847  18.9162  19.0464  19.0982  19.0982  19.1071  19.1071  19.2469
[...]
    27.1102  27.1102  27.1103  27.1103  27.1103  27.1103  27.1104  27.1104
    27.5802  27.5804  27.5805  27.5805  29.2753  29.2754  29.2755  29.2755
    29.8262  29.8263  29.8263  29.8263  29.8263  29.8264  29.8264  29.8264
    31.4984  31.4984

          k = 0.3853 0.3853 0.3853 ( 33005 PWs)   bands (ev):

   -64.8546 -64.8482 -64.8481 -64.8481 -64.8426 -64.8426 -64.8426 -64.8380
   -64.8179 -64.8179 -64.8179 -64.8171 -64.8169 -64.8169 -64.8169 -64.8169
   -64.8169 -64.8168 -64.8168 -64.8167 -64.8124 -64.8123 -64.8123 -64.8116
   -64.8115 -64.8115 -64.8114 -64.8114 -64.8114 -64.8113 -64.8113 -64.8113
   -30.7082 -30.7082 -30.7082 -30.6952 -30.6952 -30.6952 -30.6918 -30.6918
   -30.6918 -30.6891 -30.6891 -30.6891 -30.6890 -30.6890 -30.6890 -30.6882
   -30.6882 -30.6882 -30.6881 -30.6881 -30.6881 -30.6775 -30.6775 -30.6775
   -30.6339 -30.5923 -30.5923 -30.5923 -30.5565 -30.5565 -30.5565 -30.5565
   -30.5565 -30.5565 -30.5532 -30.5532 -30.5532 -30.5498 -30.5498 -30.5498
   -30.5449 -30.5449 -30.5449 -30.5170 -30.5170 -30.5170 -30.5170 -30.5170
   -30.5170 -30.5105 -30.5105 -30.5105 -30.5059 -30.5059 -30.5059 -30.5056
   -30.4933 -30.4933 -30.4933 -30.4863 -30.4863 -30.4863 -30.4862 -30.4862
   -30.4862 -30.4792 -30.4792 -30.4792 -30.4737 -30.4737 -30.4737 -30.4715
   -30.4715 -30.4715 -30.4714 -30.4714 -30.4714 -30.4637 -30.4637 -30.4637
   -30.4238 -30.4238 -30.4238 -30.4173 -30.4173 -30.4129 -30.4129 -30.4129
   -30.4076 -30.4076 -30.4076 -30.4057 -30.4056 -30.4056 -30.3986 -30.3986
    13.4478  13.8755  13.8756  13.8756  14.1319  14.1320  14.1320  14.1729
    14.6089  14.6089  14.6089  14.7366  14.7367  14.7367  14.7555  14.7555
    14.7555  14.8196  14.8196  14.8196  14.8197  14.8197  14.8197  14.8477
    14.8477  14.8477  14.8478  14.8478  14.8479  14.8817  14.8818  14.8818
    15.0697  15.0698  15.0698  15.3496  15.3497  15.3497  15.4158  15.4158
    15.4159  15.4159  15.4159  15.4160  15.6838  15.6839  15.6839  15.6970
    15.6970  15.6970  15.6970  15.6970  15.6971  15.9097  15.9098  15.9098
    16.2268  16.2269  16.2269  16.2649  16.4579  16.4580  16.4580  16.6950
    16.6950  16.7156  16.7156  16.7156  16.7157  16.7157  16.7157  16.7755
    16.7755  16.7844  16.7845  16.7845  16.8079  16.8080  16.8080  16.8086
    16.8086  16.8086  16.8505  16.8505  16.8506  16.8781  16.8782  16.8782
    16.9482  16.9482  16.9482  16.9508  16.9508  16.9508  16.9509  16.9509
    16.9509  17.0539  17.0540  17.0540  17.1028  17.2283  17.2283  17.2283
    17.4856  17.4856  17.4856  17.5812  17.5812  17.5814  17.5824  17.5824
    17.5824  17.5825  17.5825  17.5825  17.7878  17.7878  17.7880  17.9276
    17.9276  17.9276  17.9277  17.9277  17.9277  17.9850  17.9851  17.9851
    18.0119  18.0119  18.0510  18.0510  18.0511  18.1678  18.1678  18.1678
    18.3084  18.3084  18.3085  18.4648  18.4648  18.5950  18.5951  18.5951
    19.1408  19.1408  19.1409  19.1804  19.1804  19.1804  19.1804  19.1804
    19.1805  19.2161  19.2161  19.2162  19.2162  19.2162  19.2162  19.2466
    19.2466  19.2466  19.2540  19.2540  19.2540  19.3125  19.3125  19.3125
    21.3508  21.3509  21.3509  22.1088  22.1088  22.1088  22.1089  22.1089
    22.1089  22.5012  22.5013  22.5013  22.9951  22.9951  22.9951  23.8613
    23.8614  23.8614  23.8614  23.8614  23.8615  24.3259  24.3260  24.3260
    26.7387  26.7387  26.7387  27.4631  27.4631  27.4631  27.9812  27.9812
    27.9813  27.9814  27.9814  27.9814  28.8332  28.8332  28.8332  28.8334
    28.8334  28.8334  29.3151  29.3151  29.3151  30.2289  30.2289  30.2289
    31.4801  32.3495

          k = 0.3853 0.3853-0.4954 ( 32980 PWs)   bands (ev):

   -64.8517 -64.8516 -64.8457 -64.8456 -64.8456 -64.8455 -64.8406 -64.8405
   -64.8175 -64.8175 -64.8174 -64.8174 -64.8170 -64.8169 -64.8169 -64.8168
   -64.8145 -64.8144 -64.8144 -64.8143 -64.8139 -64.8139 -64.8139 -64.8138
   -64.8119 -64.8119 -64.8118 -64.8118 -64.8115 -64.8114 -64.8114 -64.8113
   -30.7037 -30.7037 -30.6991 -30.6991 -30.6990 -30.6989 -30.6917 -30.6917
   -30.6917 -30.6916 -30.6902 -30.6902 -30.6902 -30.6902 -30.6901 -30.6900
   -30.6900 -30.6899 -30.6861 -30.6860 -30.6834 -30.6834 -30.6833 -30.6833
   -30.6132 -30.6132 -30.5708 -30.5708 -30.5708 -30.5708 -30.5557 -30.5556
   -30.5556 -30.5556 -30.5510 -30.5510 -30.5510 -30.5510 -30.5368 -30.5368
   -30.5368 -30.5368 -30.5290 -30.5290 -30.5285 -30.5285 -30.5272 -30.5272
   -30.5131 -30.5131 -30.5131 -30.5131 -30.5107 -30.5106 -30.5106 -30.5106
   -30.4895 -30.4895 -30.4894 -30.4894 -30.4869 -30.4868 -30.4797 -30.4797
   -30.4796 -30.4796 -30.4796 -30.4796 -30.4795 -30.4795 -30.4755 -30.4755
   -30.4755 -30.4755 -30.4692 -30.4691 -30.4678 -30.4678 -30.4678 -30.4678
   -30.4190 -30.4189 -30.4167 -30.4167 -30.4167 -30.4166 -30.4120 -30.4119
   -30.4060 -30.4060 -30.4060 -30.4060 -30.4053 -30.4052 -30.4006 -30.4006
    13.6468  13.6471  13.9961  13.9961  13.9963  13.9963  14.1442  14.1443
    14.6769  14.6772  14.6986  14.6987  14.6987  14.6987  14.7813  14.7813
    14.7813  14.7814  14.7932  14.7932  14.7933  14.7934  14.8315  14.8316
    14.8403  14.8403  14.8404  14.8404  14.8449  14.8450  14.8451  14.8452
    15.1947  15.1950  15.2433  15.2433  15.2433  15.2433  15.5321  15.5321
    15.5322  15.5322  15.5383  15.5384  15.5386  15.5387  15.5593  15.5593
    15.5594  15.5594  15.7807  15.7810  15.8210  15.8210  15.8212  15.8212
    16.2624  16.2625  16.3545  16.3545  16.3546  16.3547  16.6971  16.6972
    16.7376  16.7377  16.7891  16.7892  16.7892  16.7892  16.7960  16.7961
    16.8031  16.8032  16.8197  16.8197  16.8198  16.8198  16.8216  16.8216
    16.8217  16.8217  16.8242  16.8242  16.8291  16.8291  16.8291  16.8292
    16.8758  16.8758  16.8759  16.8759  16.9041  16.9042  16.9187  16.9187
    16.9188  16.9189  17.2246  17.2247  17.2248  17.2248  17.2759  17.2760
    17.3819  17.3820  17.3821  17.3821  17.4003  17.4003  17.6675  17.6675
    17.6676  17.6676  17.7359  17.7360  17.7360  17.7361  17.7586  17.7586
    17.7586  17.7587  17.9652  17.9653  17.9793  17.9793  18.0363  18.0364
    18.0364  18.0365  18.0372  18.0372  18.0372  18.0373  18.1524  18.1526
    18.2594  18.2594  18.4009  18.4010  18.4010  18.4010  18.5094  18.5094
    19.1934  19.1934  19.1935  19.1935  19.2112  19.2112  19.2156  19.2156
    19.2156  19.2156  19.2410  19.2410  19.2410  19.2410  19.2432  19.2433
    19.2433  19.2434  19.2752  19.2752  19.2752  19.2753  19.2993  19.2993
    21.7083  21.7084  21.7084  21.7085  22.1580  22.1582  22.2935  22.2936
    22.2936  22.2937  22.9643  22.9644  22.9644  22.9644  23.4064  23.4065
    23.4151  23.4152  23.4153  23.4154  24.1192  24.1193  24.1193  24.1194
    27.0581  27.0582  27.2785  27.2785  27.2786  27.2786  28.0982  28.0983
    28.0985  28.0986  28.3755  28.3755  28.3756  28.3757  28.6175  28.6175
    28.6177  28.6178  29.5023  29.5023  29.5023  29.5024  29.7398  29.7399
    32.1803  32.1804

          k = 0.3853-0.4954-0.4954 ( 33008 PWs)   bands (ev):

   -64.8490 -64.8489 -64.8489 -64.8488 -64.8434 -64.8433 -64.8433 -64.8432
   -64.8173 -64.8172 -64.8172 -64.8171 -64.8144 -64.8142 -64.8142 -64.8142
   -64.8142 -64.8142 -64.8142 -64.8141 -64.8141 -64.8141 -64.8141 -64.8140
   -64.8140 -64.8140 -64.8140 -64.8140 -64.8117 -64.8116 -64.8116 -64.8115
   -30.6972 -30.6972 -30.6972 -30.6972 -30.6972 -30.6971 -30.6971 -30.6971
   -30.6915 -30.6914 -30.6914 -30.6913 -30.6909 -30.6907 -30.6907 -30.6907
   -30.6882 -30.6882 -30.6881 -30.6881 -30.6881 -30.6881 -30.6880 -30.6880
   -30.5921 -30.5920 -30.5920 -30.5920 -30.5540 -30.5540 -30.5540 -30.5540
   -30.5486 -30.5486 -30.5486 -30.5486 -30.5330 -30.5330 -30.5330 -30.5330
   -30.5330 -30.5330 -30.5330 -30.5330 -30.5326 -30.5326 -30.5326 -30.5326
   -30.5325 -30.5325 -30.5325 -30.5325 -30.5113 -30.5112 -30.5112 -30.5112
   -30.4841 -30.4841 -30.4841 -30.4841 -30.4832 -30.4832 -30.4832 -30.4832
   -30.4831 -30.4831 -30.4831 -30.4831 -30.4744 -30.4743 -30.4743 -30.4743
   -30.4742 -30.4742 -30.4742 -30.4742 -30.4719 -30.4719 -30.4719 -30.4718
   -30.4147 -30.4147 -30.4147 -30.4147 -30.4101 -30.4100 -30.4100 -30.4100
   -30.4096 -30.4095 -30.4095 -30.4094 -30.4025 -30.4025 -30.4025 -30.4025
    13.8105  13.8108  13.8108  13.8109  14.0633  14.0635  14.0635  14.0636
    14.7472  14.7472  14.7472  14.7473  14.7475  14.7475  14.7475  14.7475
    14.7557  14.7557  14.7557  14.7557  14.7780  14.7781  14.7781  14.7781
    14.8298  14.8298  14.8298  14.8299  14.8300  14.8300  14.8300  14.8301
    15.3709  15.3710  15.3710  15.3710  15.3713  15.3713  15.3713  15.3713
    15.4075  15.4076  15.4076  15.4076  15.6732  15.6732  15.6734  15.6734
    15.6736  15.6736  15.6737  15.6737  15.6945  15.6947  15.6947  15.6948
    16.3242  16.3244  16.3244  16.3244  16.5711  16.5712  16.5712  16.5712
    16.7617  16.7617  16.7617  16.7617  16.7730  16.7730  16.7730  16.7732
    16.7960  16.7962  16.7962  16.7963  16.7990  16.7990  16.7990  16.7992
    16.8399  16.8399  16.8399  16.8399  16.8622  16.8622  16.8622  16.8623
    16.8623  16.8623  16.8624  16.8625  17.0518  17.0518  17.0518  17.0519
    17.0519  17.0519  17.0520  17.0521  17.0831  17.0833  17.0833  17.0834
    17.4962  17.4962  17.4962  17.4963  17.5566  17.5566  17.5566  17.5567
    17.5567  17.5567  17.5567  17.5568  17.8539  17.8539  17.8539  17.8540
    17.8540  17.8540  17.8540  17.8541  17.8651  17.8652  17.8652  17.8652
    18.0052  18.0052  18.0052  18.0053  18.2024  18.2024  18.2025  18.2025
    18.2332  18.2333  18.2334  18.2334  18.3718  18.3718  18.3718  18.3719
    19.2361  19.2361  19.2361  19.2361  19.2361  19.2361  19.2362  19.2362
    19.2484  19.2485  19.2485  19.2486  19.2716  19.2716  19.2716  19.2717
    19.2752  19.2752  19.2752  19.2752  19.2753  19.2753  19.2753  19.2753
    21.9794  21.9796  21.9796  21.9796  22.5446  22.5447  22.5448  22.5448
    22.5449  22.5449  22.5449  22.5450  23.1883  23.1883  23.1884  23.1884
    23.1885  23.1885  23.1885  23.1885  23.7629  23.7631  23.7631  23.7632
    27.6558  27.6558  27.6558  27.6559  27.6559  27.6559  27.6559  27.6559
    27.9009  27.9011  27.9012  27.9012  28.7631  28.7632  28.7633  28.7633
    29.0276  29.0276  29.0276  29.0276  29.0277  29.0277  29.0277  29.0277
    32.5679  32.5679

          k =-0.4954-0.4954-0.4954 ( 32968 PWs)   bands (ev):

   -64.8465 -64.8464 -64.8464 -64.8464 -64.8463 -64.8463 -64.8463 -64.8462
   -64.8145 -64.8142 -64.8142 -64.8142 -64.8142 -64.8142 -64.8142 -64.8142
   -64.8142 -64.8142 -64.8142 -64.8142 -64.8141 -64.8141 -64.8141 -64.8140
   -64.8140 -64.8140 -64.8140 -64.8140 -64.8140 -64.8140 -64.8140 -64.8140
   -30.6929 -30.6929 -30.6929 -30.6928 -30.6928 -30.6928 -30.6927 -30.6927
   -30.6927 -30.6927 -30.6927 -30.6927 -30.6927 -30.6927 -30.6927 -30.6926
   -30.6926 -30.6926 -30.6926 -30.6926 -30.6926 -30.6926 -30.6926 -30.6926
   -30.5702 -30.5701 -30.5701 -30.5701 -30.5701 -30.5701 -30.5701 -30.5701
   -30.5329 -30.5329 -30.5329 -30.5329 -30.5329 -30.5329 -30.5329 -30.5329
   -30.5329 -30.5329 -30.5329 -30.5329 -30.5328 -30.5328 -30.5328 -30.5328
   -30.5328 -30.5328 -30.5328 -30.5328 -30.5328 -30.5328 -30.5328 -30.5327
   -30.4786 -30.4786 -30.4786 -30.4786 -30.4786 -30.4786 -30.4786 -30.4786
   -30.4786 -30.4786 -30.4785 -30.4785 -30.4785 -30.4785 -30.4785 -30.4785
   -30.4785 -30.4785 -30.4785 -30.4785 -30.4784 -30.4784 -30.4784 -30.4784
   -30.4082 -30.4082 -30.4082 -30.4081 -30.4081 -30.4081 -30.4081 -30.4081
   -30.4080 -30.4080 -30.4080 -30.4080 -30.4080 -30.4080 -30.4080 -30.4080
    13.9289  13.9292  13.9292  13.9292  13.9294  13.9294  13.9294  13.9294
    14.7771  14.7771  14.7771  14.7772  14.7772  14.7772  14.7772  14.7773
    14.7773  14.7773  14.7773  14.7773  14.7774  14.7774  14.7774  14.7774
    14.7774  14.7774  14.7774  14.7774  14.7774  14.7776  14.7776  14.7776
    15.5335  15.5335  15.5335  15.5337  15.5337  15.5337  15.5338  15.5338
    15.5338  15.5339  15.5339  15.5339  15.5340  15.5340  15.5340  15.5340
    15.5340  15.5340  15.5341  15.5341  15.5342  15.5342  15.5342  15.5342
    16.4654  16.4656  16.4656  16.4656  16.4657  16.4657  16.4657  16.4657
    16.7742  16.7742  16.7742  16.7742  16.7742  16.7743  16.7743  16.7743
    16.7743  16.7743  16.7743  16.7744  16.7744  16.7744  16.7745  16.7745
    16.9596  16.9596  16.9596  16.9597  16.9598  16.9598  16.9598  16.9598
    16.9598  16.9598  16.9598  16.9598  16.9599  16.9599  16.9599  16.9599
    16.9599  16.9599  16.9599  16.9599  16.9599  16.9599  16.9601  16.9601
    17.6787  17.6787  17.6787  17.6787  17.6787  17.6787  17.6788  17.6788
    17.6788  17.6788  17.6788  17.6788  17.6788  17.6788  17.6789  17.6789
    17.6789  17.6789  17.6789  17.6789  17.6790  17.6790  17.6790  17.6791
    18.1847  18.1847  18.1847  18.1848  18.1848  18.1848  18.1848  18.1848
    18.1849  18.1849  18.1849  18.1849  18.1849  18.1851  18.1851  18.1851
    19.2774  19.2774  19.2775  19.2775  19.2775  19.2775  19.2775  19.2775
    19.2776  19.2776  19.2776  19.2776  19.2776  19.2776  19.2776  19.2776
    19.2776  19.2776  19.2776  19.2777  19.2777  19.2777  19.2777  19.2777
    22.8536  22.8538  22.8538  22.8540  22.8540  22.8540  22.8540  22.8540
    22.8540  22.8540  22.8540  22.8540  22.8540  22.8540  22.8540  22.8541
    22.8541  22.8542  22.8542  22.8542  22.8542  22.8542  22.8542  22.8542
    28.2999  28.2999  28.2999  28.2999  28.2999  28.2999  28.2999  28.2999
    28.2999  28.3002  28.3002  28.3002  28.3002  28.3002  28.3003  28.3003
    28.3003  28.3004  28.3004  28.3004  28.3005  28.3006  28.3006  28.3006
    33.5309  33.5310

     the Fermi energy is    19.2985 ev

!    total energy              =  -16384.95810846 Ry
     Harris-Foulkes estimate   =  -16384.95810241 Ry
     estimated scf accuracy    <          1.2E-09 Ry

     total all-electron energy =   -322945.811816 Ry

     The total energy is the sum of the following terms:

     one-electron contribution =   -2484.49353304 Ry
     hartree contribution      =    1660.16025636 Ry
     xc contribution           =    -986.52919149 Ry
     ewald contribution        =   -6406.70136450 Ry
     one-center paw contrib.   =   -8167.42712637 Ry
     smearing contrib. (-TS)   =       0.03285058 Ry

     convergence has been achieved in  14 iterations

     Forces acting on atoms (cartesian axes, Ry/au):

     atom    1 type  1   force =     0.00000000    0.00000000    0.00000000
     atom    2 type  1   force =    -0.00000612   -0.00000612   -0.00000000
     atom    3 type  1   force =    -0.00000612    0.00000000   -0.00000612
     atom    4 type  1   force =     0.00000000   -0.00000612   -0.00000612
     atom    5 type  1   force =     0.00000000    0.00000000    0.00000000
     atom    6 type  1   force =    -0.00003796   -0.00003796    0.00000000
     atom    7 type  1   force =    -0.00000612    0.00000000    0.00000612
     atom    8 type  1   force =     0.00000000   -0.00000612    0.00000612
     atom    9 type  1   force =     0.00000000    0.00000000    0.00000000
     atom   10 type  1   force =    -0.00000612    0.00000612    0.00000000
     atom   11 type  1   force =    -0.00003796   -0.00000000   -0.00003796
     atom   12 type  1   force =     0.00000000    0.00000612   -0.00000612
     atom   13 type  1   force =     0.00000000    0.00000000    0.00000000
     atom   14 type  1   force =    -0.00003796    0.00003796   -0.00000000
     atom   15 type  1   force =    -0.00003796    0.00000000    0.00003796
     atom   16 type  1   force =    -0.00000000    0.00000612    0.00000612
     atom   17 type  1   force =     0.00000000    0.00000000    0.00000000
     atom   18 type  1   force =     0.00000612   -0.00000612    0.00000000
     atom   19 type  1   force =     0.00000612   -0.00000000   -0.00000612
     atom   20 type  1   force =    -0.00000000   -0.00003796   -0.00003796
     atom   21 type  1   force =     0.00000000    0.00000000    0.00000000
     atom   22 type  1   force =     0.00003796   -0.00003796    0.00000000
     atom   23 type  1   force =     0.00000612    0.00000000    0.00000612
     atom   24 type  1   force =     0.00000000   -0.00003796    0.00003796
     atom   25 type  1   force =     0.00000000    0.00000000    0.00000000
     atom   26 type  1   force =     0.00000612    0.00000612    0.00000000
     atom   27 type  1   force =     0.00003796    0.00000000   -0.00003796
     atom   28 type  1   force =    -0.00000000    0.00003796   -0.00003796
     atom   29 type  1   force =     0.00000000   -0.00000000    0.00000000
     atom   30 type  1   force =     0.00003796    0.00003796    0.00000000
     atom   31 type  1   force =     0.00003796    0.00000000    0.00003796
     atom   32 type  1   force =    -0.00000000    0.00003796    0.00003796

     Total force =     0.000188     Total SCF correction =     0.000183
     SCF correction compared to forces is large: reduce conv_thr to get better values


     Computing stress (Cartesian axis) and pressure

          total   stress  (Ry/bohr**3)                   (kbar)     P=    1.90
   0.00001293   0.00000000   0.00000000          1.90      0.00      0.00
   0.00000000   0.00001293   0.00000000          0.00      1.90      0.00
   0.00000000   0.00000000   0.00001293          0.00      0.00      1.90


     Writing output data file jhhxrirnQFyVvDce.save/
 
     init_run     :     38.56s CPU     41.78s WALL (       2 calls)
     electrons    :   4342.05s CPU   4576.29s WALL (       6 calls)
     update_pot   :      3.28s CPU      3.32s WALL (       4 calls)
     forces       :     53.18s CPU     55.13s WALL (       6 calls)
     stress       :    503.95s CPU    506.18s WALL (       6 calls)

     Called by init_run:
     wfcinit      :     36.87s CPU     39.97s WALL (       2 calls)
     potinit      :      0.76s CPU      0.78s WALL (       2 calls)
     hinit0       :      0.55s CPU      0.57s WALL (       2 calls)

     Called by electrons:
     c_bands      :   3946.71s CPU   4138.86s WALL (      56 calls)
     sum_band     :    376.33s CPU    416.85s WALL (      56 calls)
     v_of_rho     :      1.67s CPU      1.76s WALL (      58 calls)
     newd         :      3.98s CPU      5.10s WALL (      58 calls)
     PAW_pot      :     15.74s CPU     15.99s WALL (      62 calls)
     mix_rho      :      0.37s CPU      0.43s WALL (      56 calls)

     Called by c_bands:
     init_us_2    :     23.24s CPU     23.35s WALL (    4550 calls)
     cegterg      :   3821.90s CPU   4013.18s WALL (    1960 calls)

     Called by sum_band:
     sum_band:bec :      3.10s CPU      3.15s WALL (    2100 calls)
     addusdens    :      4.17s CPU      5.43s WALL (      56 calls)

     Called by *egterg:
     h_psi        :   1539.04s CPU   1706.42s WALL (    5470 calls)
     s_psi        :    183.03s CPU    183.67s WALL (    5470 calls)
     g_psi        :      5.45s CPU      5.49s WALL (    3440 calls)
     cdiaghg      :   1404.32s CPU   1408.83s WALL (    5120 calls)

     Called by h_psi:
     h_psi:pot    :   1524.62s CPU   1691.48s WALL (    5470 calls)
     h_psi:calbec :    196.08s CPU    205.51s WALL (    5470 calls)
     vloc_psi     :   1146.30s CPU   1302.81s WALL (    5470 calls)
     add_vuspsi   :    182.19s CPU    183.13s WALL (    5470 calls)

     General routines
     calbec       :    346.29s CPU    362.31s WALL (    8620 calls)
     fft          :      1.70s CPU      1.86s WALL (     906 calls)
     ffts         :      0.12s CPU      0.13s WALL (     114 calls)
     fftw         :   1323.10s CPU   1503.75s WALL ( 3792900 calls)
     interpolate  :      0.18s CPU      0.20s WALL (      58 calls)
 
     Parallel routines
     fft_scatt_xy :    108.79s CPU    121.46s WALL ( 3793920 calls)
     fft_scatt_yz :    866.83s CPU    994.98s WALL ( 3793920 calls)
 
     PWSCF        :     1h22m CPU       22h 1m WALL

      27h
 
   This run was terminated on:   7:48:16  11Nov2020            

=------------------------------------------------------------------------------=
   JOB DONE.
=------------------------------------------------------------------------------=
