
     Program PWSCF v.6.3 starts on  5Sep2020 at  6:52:40 

     This program is part of the open-source Quantum ESPRESSO suite
     for quantum simulation of materials; please cite
         "P. Giannozzi et al., J. Phys.:Condens. Matter 21 395502 (2009);
         "P. Giannozzi et al., J. Phys.:Condens. Matter 29 465901 (2017);
          URL http://www.quantum-espresso.org", 
     in publications or presentations arising from this work. More details at
     http://www.quantum-espresso.org/quote

     Parallel version (MPI & OpenMP), running on      40 processor cores
     Number of MPI processes:                40
     Threads/MPI process:                     1

     MPI processes distributed on     1 nodes
     R & G space division:  proc/nbgrp/npool/nimage =      40
     Reading input from wd/ec/ec_1_007.in
Warning: card &IONS ignored
Warning: card ION_DYNAMICS = 'BFGS', ignored
Warning: card / ignored
Warning: card &CELL ignored
Warning: card CELL_DYNAMICS = 'BFGS', ignored
Warning: card CELL_FACTOR = 2.0, ignored
Warning: card PRESS = 0.0, ignored
Warning: card / ignored

     Current dimensions of program PWSCF are:
     Max number of different atomic species (ntypx) = 10
     Max number of k-points (npk) =  40000
     Max angular momentum in pseudopotentials (lmaxx) =  3
               file Fe.pbe-spn-kjpaw_psl.1.0.0.UPF: wavefunction(s)  3P 3D renormalized

     Subspace diagonalization in iterative solution of the eigenvalue problem:
     a serial algorithm will be used

 
     Parallelization info
     --------------------
     sticks:   dense  smooth     PW     G-vecs:    dense   smooth      PW
     Min          92      61     17                 4238     2275     339
     Max          93      62     18                 4245     2280     343
     Sum        3709    2445    681               169661    91079   13613
 


     bravais-lattice index     =            0
     lattice parameter (alat)  =      10.3915  a.u.
     unit-cell volume          =    1126.3052 (a.u.)^3
     number of atoms/cell      =           16
     number of atomic types    =            1
     number of electrons       =       256.00
     number of Kohn-Sham states=          154
     kinetic-energy cutoff     =      71.0000  Ry
     charge density cutoff     =     430.0000  Ry
     convergence threshold     =      5.0E-05
     mixing beta               =       0.1000
     number of iterations used =           10  plain     mixing
     Exchange-correlation      = SLA PW PBX PBC ( 1  4  3  4 0 0)

     celldm(1)=  10.391466  celldm(2)=   0.000000  celldm(3)=   0.000000
     celldm(4)=   0.000000  celldm(5)=   0.000000  celldm(6)=   0.000000

     crystal axes: (cart. coord. in units of alat)
               a(1) = (   1.003750   0.000000   0.000000 )  
               a(2) = (   0.000000   1.000000   0.000000 )  
               a(3) = (   0.000000   0.000000   1.000000 )  

     reciprocal axes: (cart. coord. in units 2 pi/alat)
               b(1) = (  0.996264  0.000000  0.000000 )  
               b(2) = (  0.000000  1.000000  0.000000 )  
               b(3) = (  0.000000  0.000000  1.000000 )  


     PseudoPot. # 1 for Fe read from file:
     /rds/homes/b/bxp912/pp/Fe.pbe-spn-kjpaw_psl.1.0.0.UPF
     MD5 check sum: 42f43b795421b414b0dc916aa790dbcb
     Pseudo is Projector augmented-wave + core cor, Zval = 16.0
     Generated using "atomic" code by A. Dal Corso v.6.3
     Shape of augmentation charge: PSQ
     Using radial grid of 1191 points,  6 beta functions with: 
                l(1) =   0
                l(2) =   0
                l(3) =   1
                l(4) =   1
                l(5) =   2
                l(6) =   2
     Q(r) pseudized with 0 coefficients 


     atomic species   valence    mass     pseudopotential
        Fe            16.00    55.84500     Fe( 1.00)

     16 Sym. Ops., with inversion, found



   Cartesian axes

     site n.     atom                  positions (alat units)
         1           Fe  tau(   1) = (   0.0000000   0.0000000   0.0000000  )
         2           Fe  tau(   2) = (   0.2509464   0.2500089   0.2500089  )
         3           Fe  tau(   3) = (   0.0000000   0.0000000   0.4999995  )
         4           Fe  tau(   4) = (   0.2509464   0.2500089   0.7499911  )
         5           Fe  tau(   5) = (   0.0000000   0.5000001   0.0000000  )
         6           Fe  tau(   6) = (   0.2509464   0.7499912   0.2500089  )
         7           Fe  tau(   7) = (   0.0000000   0.5000001   0.4999995  )
         8           Fe  tau(   8) = (   0.2509464   0.7499912   0.7499911  )
         9           Fe  tau(   9) = (   0.5018751   0.0000000   0.0000000  )
        10           Fe  tau(  10) = (   0.7528037   0.2500089   0.2500089  )
        11           Fe  tau(  11) = (   0.5018751   0.0000000   0.4999995  )
        12           Fe  tau(  12) = (   0.7528037   0.2500089   0.7499911  )
        13           Fe  tau(  13) = (   0.5018751   0.5000001   0.0000000  )
        14           Fe  tau(  14) = (   0.7528037   0.7499912   0.2500089  )
        15           Fe  tau(  15) = (   0.5018751   0.5000001   0.4999995  )
        16           Fe  tau(  16) = (   0.7528037   0.7499912   0.7499911  )

     number of k points=    75  Marzari-Vanderbilt smearing, width (Ry)=  0.0400
                       cart. coord. in units 2pi/alat
        k(    1) = (   0.0553480   0.0555556   0.0555556), wk =   0.0219479
        k(    2) = (   0.0553480   0.0555556   0.1666667), wk =   0.0438957
        k(    3) = (   0.0553480   0.0555556   0.2777778), wk =   0.0438957
        k(    4) = (   0.0553480   0.0555556   0.3888889), wk =   0.0438957
        k(    5) = (   0.0553480   0.0555556  -0.5000000), wk =   0.0219479
        k(    6) = (   0.0553480   0.1666667   0.1666667), wk =   0.0219479
        k(    7) = (   0.0553480   0.1666667   0.2777778), wk =   0.0438957
        k(    8) = (   0.0553480   0.1666667   0.3888889), wk =   0.0438957
        k(    9) = (   0.0553480   0.1666667  -0.5000000), wk =   0.0219479
        k(   10) = (   0.0553480   0.2777778   0.2777778), wk =   0.0219479
        k(   11) = (   0.0553480   0.2777778   0.3888889), wk =   0.0438957
        k(   12) = (   0.0553480   0.2777778  -0.5000000), wk =   0.0219479
        k(   13) = (   0.0553480   0.3888889   0.3888889), wk =   0.0219479
        k(   14) = (   0.0553480   0.3888889  -0.5000000), wk =   0.0219479
        k(   15) = (   0.0553480  -0.5000000  -0.5000000), wk =   0.0054870
        k(   16) = (   0.1660440   0.0555556   0.0555556), wk =   0.0219479
        k(   17) = (   0.1660440   0.0555556   0.1666667), wk =   0.0438957
        k(   18) = (   0.1660440   0.0555556   0.2777778), wk =   0.0438957
        k(   19) = (   0.1660440   0.0555556   0.3888889), wk =   0.0438957
        k(   20) = (   0.1660440   0.0555556  -0.5000000), wk =   0.0219479
        k(   21) = (   0.1660440   0.1666667   0.1666667), wk =   0.0219479
        k(   22) = (   0.1660440   0.1666667   0.2777778), wk =   0.0438957
        k(   23) = (   0.1660440   0.1666667   0.3888889), wk =   0.0438957
        k(   24) = (   0.1660440   0.1666667  -0.5000000), wk =   0.0219479
        k(   25) = (   0.1660440   0.2777778   0.2777778), wk =   0.0219479
        k(   26) = (   0.1660440   0.2777778   0.3888889), wk =   0.0438957
        k(   27) = (   0.1660440   0.2777778  -0.5000000), wk =   0.0219479
        k(   28) = (   0.1660440   0.3888889   0.3888889), wk =   0.0219479
        k(   29) = (   0.1660440   0.3888889  -0.5000000), wk =   0.0219479
        k(   30) = (   0.1660440  -0.5000000  -0.5000000), wk =   0.0054870
        k(   31) = (   0.2767400   0.0555556   0.0555556), wk =   0.0219479
        k(   32) = (   0.2767400   0.0555556   0.1666667), wk =   0.0438957
        k(   33) = (   0.2767400   0.0555556   0.2777778), wk =   0.0438957
        k(   34) = (   0.2767400   0.0555556   0.3888889), wk =   0.0438957
        k(   35) = (   0.2767400   0.0555556  -0.5000000), wk =   0.0219479
        k(   36) = (   0.2767400   0.1666667   0.1666667), wk =   0.0219479
        k(   37) = (   0.2767400   0.1666667   0.2777778), wk =   0.0438957
        k(   38) = (   0.2767400   0.1666667   0.3888889), wk =   0.0438957
        k(   39) = (   0.2767400   0.1666667  -0.5000000), wk =   0.0219479
        k(   40) = (   0.2767400   0.2777778   0.2777778), wk =   0.0219479
        k(   41) = (   0.2767400   0.2777778   0.3888889), wk =   0.0438957
        k(   42) = (   0.2767400   0.2777778  -0.5000000), wk =   0.0219479
        k(   43) = (   0.2767400   0.3888889   0.3888889), wk =   0.0219479
        k(   44) = (   0.2767400   0.3888889  -0.5000000), wk =   0.0219479
        k(   45) = (   0.2767400  -0.5000000  -0.5000000), wk =   0.0054870
        k(   46) = (   0.3874360   0.0555556   0.0555556), wk =   0.0219479
        k(   47) = (   0.3874360   0.0555556   0.1666667), wk =   0.0438957
        k(   48) = (   0.3874360   0.0555556   0.2777778), wk =   0.0438957
        k(   49) = (   0.3874360   0.0555556   0.3888889), wk =   0.0438957
        k(   50) = (   0.3874360   0.0555556  -0.5000000), wk =   0.0219479
        k(   51) = (   0.3874360   0.1666667   0.1666667), wk =   0.0219479
        k(   52) = (   0.3874360   0.1666667   0.2777778), wk =   0.0438957
        k(   53) = (   0.3874360   0.1666667   0.3888889), wk =   0.0438957
        k(   54) = (   0.3874360   0.1666667  -0.5000000), wk =   0.0219479
        k(   55) = (   0.3874360   0.2777778   0.2777778), wk =   0.0219479
        k(   56) = (   0.3874360   0.2777778   0.3888889), wk =   0.0438957
        k(   57) = (   0.3874360   0.2777778  -0.5000000), wk =   0.0219479
        k(   58) = (   0.3874360   0.3888889   0.3888889), wk =   0.0219479
        k(   59) = (   0.3874360   0.3888889  -0.5000000), wk =   0.0219479
        k(   60) = (   0.3874360  -0.5000000  -0.5000000), wk =   0.0054870
        k(   61) = (  -0.4981320   0.0555556   0.0555556), wk =   0.0109739
        k(   62) = (  -0.4981320   0.0555556   0.1666667), wk =   0.0219479
        k(   63) = (  -0.4981320   0.0555556   0.2777778), wk =   0.0219479
        k(   64) = (  -0.4981320   0.0555556   0.3888889), wk =   0.0219479
        k(   65) = (  -0.4981320   0.0555556  -0.5000000), wk =   0.0109739
        k(   66) = (  -0.4981320   0.1666667   0.1666667), wk =   0.0109739
        k(   67) = (  -0.4981320   0.1666667   0.2777778), wk =   0.0219479
        k(   68) = (  -0.4981320   0.1666667   0.3888889), wk =   0.0219479
        k(   69) = (  -0.4981320   0.1666667  -0.5000000), wk =   0.0109739
        k(   70) = (  -0.4981320   0.2777778   0.2777778), wk =   0.0109739
        k(   71) = (  -0.4981320   0.2777778   0.3888889), wk =   0.0219479
        k(   72) = (  -0.4981320   0.2777778  -0.5000000), wk =   0.0109739
        k(   73) = (  -0.4981320   0.3888889   0.3888889), wk =   0.0109739
        k(   74) = (  -0.4981320   0.3888889  -0.5000000), wk =   0.0109739
        k(   75) = (  -0.4981320  -0.5000000  -0.5000000), wk =   0.0027435

     Dense  grid:   169661 G-vectors     FFT dimensions: (  72,  72,  72)

     Smooth grid:    91079 G-vectors     FFT dimensions: (  60,  60,  60)

     Estimated max dynamical RAM per process >      83.49 MB

     Estimated total dynamical RAM >       3.26 GB

     Check: negative/imaginary core charge=   -0.000006    0.000000

     Initial potential from superposition of free atoms

     starting charge  255.99300, renormalised to  256.00000
     Starting wfcs are  160 randomized atomic wfcs
     Checking if some PAW data can be deallocated... 

     total cpu time spent up to now is        7.6 secs

     Self-consistent Calculation

     iteration #  1     ecut=    71.00 Ry     beta= 0.10
     Davidson diagonalization with overlap
     ethr =  1.00E-02,  avg # of iterations =  3.4

     Threshold (ethr) on eigenvalues was too large:
     Diagonalizing with lowered threshold

     Davidson diagonalization with overlap
     ethr =  2.51E-04,  avg # of iterations =  3.1

     total cpu time spent up to now is       62.0 secs

     total energy              =   -5267.75252701 Ry
     Harris-Foulkes estimate   =   -5267.86735617 Ry
     estimated scf accuracy    <       0.72846048 Ry

     iteration #  2     ecut=    71.00 Ry     beta= 0.10
     Davidson diagonalization with overlap
     ethr =  2.85E-04,  avg # of iterations =  1.0

     total cpu time spent up to now is       78.5 secs

     total energy              =   -5267.61831468 Ry
     Harris-Foulkes estimate   =   -5267.76765718 Ry
     estimated scf accuracy    <       0.36047805 Ry

     iteration #  3     ecut=    71.00 Ry     beta= 0.10
     Davidson diagonalization with overlap
     ethr =  1.41E-04,  avg # of iterations =  3.2

     total cpu time spent up to now is      109.0 secs

     total energy              =   -5267.70170292 Ry
     Harris-Foulkes estimate   =   -5267.72161498 Ry
     estimated scf accuracy    <       0.46054200 Ry

     iteration #  4     ecut=    71.00 Ry     beta= 0.10
     Davidson diagonalization with overlap
     ethr =  1.41E-04,  avg # of iterations =  1.0

     total cpu time spent up to now is      125.5 secs

     total energy              =   -5267.70583803 Ry
     Harris-Foulkes estimate   =   -5267.71213663 Ry
     estimated scf accuracy    <       0.02927902 Ry

     iteration #  5     ecut=    71.00 Ry     beta= 0.10
     Davidson diagonalization with overlap
     ethr =  1.14E-05,  avg # of iterations =  2.2

     total cpu time spent up to now is      146.9 secs

     total energy              =   -5267.70630836 Ry
     Harris-Foulkes estimate   =   -5267.70823673 Ry
     estimated scf accuracy    <       0.02218128 Ry

     iteration #  6     ecut=    71.00 Ry     beta= 0.10
     Davidson diagonalization with overlap
     ethr =  8.66E-06,  avg # of iterations =  2.8

     total cpu time spent up to now is      172.2 secs

     total energy              =   -5267.70882555 Ry
     Harris-Foulkes estimate   =   -5267.70841555 Ry
     estimated scf accuracy    <       0.01145477 Ry

     iteration #  7     ecut=    71.00 Ry     beta= 0.10
     Davidson diagonalization with overlap
     ethr =  4.47E-06,  avg # of iterations =  1.2

     total cpu time spent up to now is      189.4 secs

     total energy              =   -5267.70794763 Ry
     Harris-Foulkes estimate   =   -5267.70917156 Ry
     estimated scf accuracy    <       0.01215931 Ry

     iteration #  8     ecut=    71.00 Ry     beta= 0.10
     Davidson diagonalization with overlap
     ethr =  4.47E-06,  avg # of iterations =  1.0

     total cpu time spent up to now is      205.9 secs

     total energy              =   -5267.70840604 Ry
     Harris-Foulkes estimate   =   -5267.70865449 Ry
     estimated scf accuracy    <       0.00488856 Ry

     iteration #  9     ecut=    71.00 Ry     beta= 0.10
     Davidson diagonalization with overlap
     ethr =  1.91E-06,  avg # of iterations =  2.5

     total cpu time spent up to now is      227.6 secs

     total energy              =   -5267.70861379 Ry
     Harris-Foulkes estimate   =   -5267.70863956 Ry
     estimated scf accuracy    <       0.00041735 Ry

     iteration # 10     ecut=    71.00 Ry     beta= 0.10
     Davidson diagonalization with overlap
     ethr =  1.63E-07,  avg # of iterations =  2.5

     total cpu time spent up to now is      249.7 secs

     total energy              =   -5267.70863824 Ry
     Harris-Foulkes estimate   =   -5267.70864402 Ry
     estimated scf accuracy    <       0.00017539 Ry

     iteration # 11     ecut=    71.00 Ry     beta= 0.10
     Davidson diagonalization with overlap
     ethr =  6.85E-08,  avg # of iterations =  1.0

     total cpu time spent up to now is      266.1 secs

     total energy              =   -5267.70861558 Ry
     Harris-Foulkes estimate   =   -5267.70864296 Ry
     estimated scf accuracy    <       0.00016590 Ry

     iteration # 12     ecut=    71.00 Ry     beta= 0.10
     Davidson diagonalization with overlap
     ethr =  6.48E-08,  avg # of iterations =  2.1

     total cpu time spent up to now is      286.7 secs

     total energy              =   -5267.70862616 Ry
     Harris-Foulkes estimate   =   -5267.70862811 Ry
     estimated scf accuracy    <       0.00005126 Ry

     iteration # 13     ecut=    71.00 Ry     beta= 0.10
     Davidson diagonalization with overlap
     ethr =  2.00E-08,  avg # of iterations =  2.6

     total cpu time spent up to now is      309.0 secs

     End of self-consistent calculation

          k = 0.0553 0.0556 0.0556 ( 11330 PWs)   bands (ev):

   -66.8635 -66.7655 -66.7652 -66.7651 -66.7492 -66.7490 -66.7487 -66.7482
   -66.7478 -66.7477 -66.7476 -66.7474 -66.7471 -66.7402 -66.7399 -66.6647
   -33.1583 -33.1582 -33.1572 -33.1552 -33.1551 -33.1542 -32.9941 -32.9899
   -32.9848 -32.9161 -32.9134 -32.9133 -32.9128 -32.8919 -32.8915 -32.8786
   -32.8784 -32.8776 -32.8414 -32.8407 -32.8169 -32.8015 -32.8015 -32.8000
   -32.7899 -32.7897 -32.7888 -32.7779 -32.7754 -32.7752 -32.7748 -32.7722
   -32.7720 -32.7660 -32.7659 -32.7645 -32.7548 -32.7548 -32.7537 -32.5920
   -32.5910 -32.5900 -32.5899 -32.5881 -32.5869 -32.5868 -32.5856 -32.5851
    11.3951  15.2615  15.2841  15.2842  15.4065  15.4078  15.4078  15.4325
    15.4339  15.4339  15.6742  15.6844  15.7745  15.7979  15.7979  17.1656
    17.2444  17.2519  17.2582  17.2584  17.2765  17.2765  17.2904  17.2904
    17.3897  17.4020  17.4425  17.6935  17.7019  17.7020  18.0853  18.0955
    18.0956  18.5658  18.5798  18.6253  18.8943  18.8943  18.9093  19.0008
    19.0008  19.0124  19.0850  19.0850  19.1016  19.1820  19.1821  19.1968
    19.9281  19.9282  19.9388  20.1436  20.1437  20.1649  20.1784  20.1785
    20.1865  20.3101  20.3102  20.3136  20.3137  20.3392  20.3409  20.3416
    20.3685  20.5909  20.5910  20.6133  20.6134  20.6227  20.6253  20.6548
    20.6551  20.6699  20.6702  21.1398  21.1398  21.1630  21.3738  21.3961
    21.4350  21.4351  21.4503  21.4545  21.8684  21.8770  21.8770  21.8830
    21.9182  21.9466

          k = 0.0553 0.0556 0.1667 ( 11359 PWs)   bands (ev):

   -66.8600 -66.7827 -66.7648 -66.7644 -66.7511 -66.7507 -66.7486 -66.7480
   -66.7475 -66.7471 -66.7466 -66.7461 -66.7408 -66.7404 -66.7311 -66.6673
   -33.1503 -33.1493 -33.1491 -33.1463 -33.1413 -33.1405 -32.9946 -32.9863
   -32.9753 -32.9528 -32.9440 -32.9438 -32.9419 -32.9413 -32.9104 -32.9099
   -32.8758 -32.8483 -32.8382 -32.8372 -32.8246 -32.8024 -32.7999 -32.7921
   -32.7817 -32.7814 -32.7791 -32.7790 -32.7776 -32.7722 -32.7694 -32.7674
   -32.7651 -32.7612 -32.7609 -32.7311 -32.7276 -32.7271 -32.7210 -32.6068
   -32.6004 -32.5996 -32.5979 -32.5951 -32.5912 -32.5911 -32.5900 -32.5878
    11.5330  14.6518  15.3194  15.3409  15.4172  15.4175  15.4972  15.4981
    15.5087  15.5334  15.7388  15.7476  15.8196  15.8415  16.1341  17.0588
    17.1676  17.1804  17.2579  17.2703  17.2928  17.2950  17.3105  17.3268
    17.3364  17.3681  17.5795  17.5912  17.6492  17.6562  17.9881  17.9961
    18.4467  18.5444  18.5767  18.6724  18.6819  18.6958  18.7470  18.8522
    18.8760  18.9087  19.1856  19.1867  19.3008  19.3038  19.3196  19.4211
    19.6123  19.6309  19.6836  19.9024  19.9053  19.9255  20.0605  20.1572
    20.1667  20.2489  20.2780  20.2872  20.3294  20.3331  20.3588  20.3614
    20.3802  20.4008  20.4080  20.4272  20.6157  20.6401  20.6404  20.6594
    20.6597  20.8294  20.9379  20.9565  21.1199  21.1992  21.3117  21.4055
    21.4432  21.4462  21.4753  21.4922  21.7810  21.7858  21.9147  21.9633
    22.0377  22.0538

          k = 0.0553 0.0556 0.2778 ( 11369 PWs)   bands (ev):

   -66.8533 -66.8000 -66.7633 -66.7629 -66.7535 -66.7531 -66.7476 -66.7475
   -66.7470 -66.7462 -66.7461 -66.7457 -66.7418 -66.7412 -66.7156 -66.6724
   -33.1320 -33.1313 -33.1311 -33.1291 -33.1174 -33.1166 -32.9952 -32.9945
   -32.9890 -32.9856 -32.9851 -32.9738 -32.9636 -32.9608 -32.9542 -32.9540
   -32.8714 -32.8605 -32.8584 -32.8430 -32.8005 -32.7978 -32.7940 -32.7925
   -32.7880 -32.7857 -32.7830 -32.7702 -32.7676 -32.7676 -32.7651 -32.7459
   -32.7383 -32.7264 -32.7259 -32.6983 -32.6947 -32.6941 -32.6890 -32.6325
   -32.6157 -32.6147 -32.6133 -32.6117 -32.6028 -32.6005 -32.5995 -32.5975
    11.8049  13.9740  15.4096  15.4283  15.4533  15.4550  15.5950  15.5956
    15.7025  15.7243  15.8595  15.8715  15.8736  15.8921  16.2793  16.8987
    16.9394  16.9455  17.1277  17.1770  17.2243  17.2348  17.4078  17.4388
    17.4761  17.5072  17.6403  17.6473  17.8301  17.8519  17.9202  17.9272
    18.3821  18.4070  18.5290  18.5432  18.5688  18.5695  18.5953  18.6438
    18.7721  19.0468  19.0501  19.0674  19.2647  19.2840  19.4405  19.4478
    19.4520  19.4710  19.4796  19.4843  19.5168  19.5983  19.7094  20.1441
    20.1507  20.1775  20.2477  20.2760  20.3716  20.3852  20.4371  20.4605
    20.4676  20.6002  20.6011  20.6212  20.6524  20.6542  20.6667  20.6938
    20.6988  20.7023  20.9081  20.9355  21.0608  21.1300  21.1487  21.3740
    21.4227  21.4578  21.5318  21.5406  21.6538  21.6595  21.9994  22.0447
    22.1659  22.1913

          k = 0.0553 0.0556 0.3889 ( 11374 PWs)   bands (ev):

   -66.8435 -66.8162 -66.7612 -66.7608 -66.7561 -66.7556 -66.7469 -66.7465
   -66.7463 -66.7461 -66.7456 -66.7450 -66.7433 -66.7424 -66.7018 -66.6799
   -33.1055 -33.1043 -33.1042 -33.1033 -33.0843 -33.0837 -33.0354 -33.0331
   -33.0284 -33.0280 -33.0003 -33.0000 -32.9938 -32.9788 -32.9553 -32.9416
   -32.9032 -32.8897 -32.8439 -32.8320 -32.8081 -32.8018 -32.7977 -32.7947
   -32.7897 -32.7871 -32.7688 -32.7677 -32.7662 -32.7651 -32.7492 -32.7038
   -32.6995 -32.6924 -32.6917 -32.6685 -32.6659 -32.6639 -32.6630 -32.6597
   -32.6363 -32.6357 -32.6356 -32.6353 -32.6201 -32.6156 -32.6147 -32.6135
    12.2022  13.3123  15.4875  15.4959  15.5007  15.5019  15.7107  15.7139
    15.8815  15.8944  15.9729  15.9897  16.0095  16.0597  16.2691  16.6009
    16.6253  16.6331  17.1241  17.1413  17.1840  17.1927  17.5778  17.6080
    17.6717  17.7019  17.7587  17.7671  17.9587  17.9592  18.1262  18.1431
    18.1548  18.1759  18.2347  18.2610  18.5207  18.5235  18.5364  18.5652
    18.5670  18.5933  18.6948  18.7118  18.8963  19.0002  19.0038  19.2400
    19.3581  19.6738  19.6854  19.7012  19.7142  19.9170  19.9345  20.0191
    20.0363  20.0423  20.1176  20.1414  20.4236  20.4325  20.5201  20.5449
    20.5474  20.6117  20.6286  20.6450  20.6508  20.6625  20.7395  20.7513
    20.7624  20.7658  20.8891  20.9819  20.9840  21.1636  21.1763  21.2507
    21.4248  21.4293  21.4447  21.4757  21.5325  21.5454  22.1028  22.1436
    22.2259  22.2574

          k = 0.0553 0.0556-0.5000 ( 11372 PWs)   bands (ev):

   -66.8310 -66.8308 -66.7589 -66.7586 -66.7583 -66.7581 -66.7465 -66.7463
   -66.7461 -66.7459 -66.7449 -66.7447 -66.7438 -66.7436 -66.6899 -66.6897
   -33.0728 -33.0726 -33.0725 -33.0723 -33.0688 -33.0688 -33.0682 -33.0682
   -33.0447 -33.0446 -33.0440 -33.0439 -32.9886 -32.9885 -32.9316 -32.9313
   -32.9180 -32.9178 -32.8261 -32.8259 -32.8175 -32.8173 -32.7941 -32.7939
   -32.7912 -32.7910 -32.7680 -32.7678 -32.7656 -32.7654 -32.7053 -32.7052
   -32.6667 -32.6665 -32.6651 -32.6649 -32.6621 -32.6621 -32.6613 -32.6612
   -32.6423 -32.6421 -32.6368 -32.6368 -32.6363 -32.6362 -32.6344 -32.6342
    12.7113  12.7118  15.5162  15.5164  15.5255  15.5258  15.8188  15.8190
    15.8260  15.8262  16.1604  16.1607  16.2944  16.2948  16.3026  16.3030
    16.3049  16.3054  17.1468  17.1470  17.1560  17.1562  17.7945  17.7946
    17.8226  17.8228  17.8941  17.8943  17.9169  17.9170  18.1110  18.1113
    18.1178  18.1181  18.2675  18.2678  18.2806  18.2809  18.5342  18.5343
    18.5472  18.5474  18.5610  18.5612  18.5717  18.5719  19.0530  19.0534
    19.6675  19.6677  19.8581  19.8582  19.8759  19.8761  19.9328  19.9329
    19.9518  19.9519  20.2621  20.2622  20.3872  20.3873  20.4833  20.4836
    20.4884  20.4887  20.6251  20.6253  20.6367  20.6369  20.6512  20.6514
    21.0191  21.0192  21.0219  21.0219  21.0863  21.0865  21.2327  21.2327
    21.2337  21.2338  21.4721  21.4723  21.4966  21.4968  22.1922  22.1924
    22.2284  22.2287

          k = 0.0553 0.1667 0.1667 ( 11365 PWs)   bands (ev):

   -66.8567 -66.7815 -66.7814 -66.7640 -66.7556 -66.7506 -66.7505 -66.7477
   -66.7462 -66.7461 -66.7422 -66.7417 -66.7405 -66.7314 -66.7313 -66.6698
   -33.1473 -33.1416 -33.1415 -33.1336 -33.1335 -33.1211 -33.0004 -32.9840
   -32.9762 -32.9706 -32.9706 -32.9631 -32.9594 -32.9563 -32.9312 -32.8864
   -32.8710 -32.8707 -32.8374 -32.8373 -32.8373 -32.8059 -32.7952 -32.7949
   -32.7914 -32.7860 -32.7859 -32.7752 -32.7750 -32.7728 -32.7695 -32.7633
   -32.7514 -32.7382 -32.7332 -32.7331 -32.7074 -32.6951 -32.6950 -32.6278
   -32.6155 -32.6058 -32.6056 -32.5978 -32.5978 -32.5965 -32.5879 -32.5852
    11.6694  14.7275  14.7276  15.3609  15.3835  15.5201  15.5202  15.5968
    15.5969  15.6072  15.7995  15.8130  15.8733  16.1758  16.1758  16.9616
    17.0755  17.2504  17.3000  17.3001  17.3052  17.3052  17.3174  17.3422
    17.3422  17.3698  17.4412  17.5601  17.5905  17.5995  17.8843  18.2718
    18.2719  18.4782  18.5379  18.5380  18.5685  18.6072  18.7509  18.7812
    19.0740  19.0741  19.1623  19.1624  19.2094  19.2668  19.3712  19.4532
    19.4533  19.4753  19.4755  19.6511  19.6512  19.8271  19.9139  19.9140
    20.1705  20.2725  20.2726  20.2831  20.3295  20.3296  20.3402  20.3513
    20.3847  20.5459  20.5995  20.6324  20.6326  20.6395  20.6396  20.6417
    20.6427  20.7486  20.7486  20.9703  21.0739  21.0740  21.1059  21.1060
    21.2078  21.4384  21.4736  21.6043  21.6795  21.9924  22.3465  22.3465
    22.5577  22.7167

          k = 0.0553 0.1667 0.2778 ( 11378 PWs)   bands (ev):

   -66.8501 -66.7981 -66.7790 -66.7626 -66.7608 -66.7529 -66.7495 -66.7472
   -66.7457 -66.7453 -66.7429 -66.7411 -66.7390 -66.7320 -66.7164 -66.6746
   -33.1349 -33.1245 -33.1243 -33.1183 -33.1112 -33.0921 -33.0090 -33.0067
   -33.0059 -32.9946 -32.9927 -32.9902 -32.9718 -32.9654 -32.9397 -32.9162
   -32.8750 -32.8710 -32.8336 -32.8333 -32.8286 -32.8270 -32.8076 -32.8013
   -32.7988 -32.7911 -32.7852 -32.7735 -32.7718 -32.7596 -32.7553 -32.7356
   -32.7355 -32.7195 -32.7102 -32.7011 -32.6822 -32.6652 -32.6652 -32.6580
   -32.6359 -32.6181 -32.6178 -32.6129 -32.6080 -32.6053 -32.5910 -32.5891
    11.9380  14.0681  14.8608  15.3137  15.4853  15.5575  15.6935  15.7173
    15.7456  15.7855  15.9156  15.9382  15.9435  16.2110  16.3276  16.8454
    16.9286  16.9537  17.1882  17.2670  17.2774  17.2971  17.3400  17.4019
    17.4090  17.4681  17.5518  17.6067  17.7236  17.7883  17.7902  18.1372
    18.2808  18.4016  18.4062  18.4213  18.4687  18.5220  18.5513  18.7374
    18.7516  18.9127  18.9430  19.0956  19.1561  19.2341  19.2756  19.2761
    19.3375  19.4582  19.4717  19.5251  19.5558  19.6775  19.7079  20.0458
    20.1687  20.1772  20.2203  20.2521  20.3103  20.3187  20.3566  20.3991
    20.5676  20.5878  20.5893  20.6382  20.6434  20.6681  20.6698  20.6971
    20.7372  20.8412  20.8662  20.8790  20.8842  20.9164  20.9674  21.0771
    21.1803  21.4012  21.4568  21.5119  21.6731  22.1368  22.1852  22.7391
    22.8659  22.9913

          k = 0.0553 0.1667 0.3889 ( 11364 PWs)   bands (ev):

   -66.8405 -66.8140 -66.7754 -66.7660 -66.7605 -66.7555 -66.7480 -66.7467
   -66.7457 -66.7446 -66.7443 -66.7420 -66.7363 -66.7329 -66.7029 -66.6819
   -33.1130 -33.0999 -33.0985 -33.0963 -33.0808 -33.0546 -33.0475 -33.0381
   -33.0321 -33.0307 -33.0100 -33.0049 -33.0026 -32.9644 -32.9536 -32.9168
   -32.9023 -32.8604 -32.8566 -32.8275 -32.8249 -32.8163 -32.8109 -32.8056
   -32.7982 -32.7964 -32.7817 -32.7728 -32.7723 -32.7486 -32.7388 -32.7237
   -32.6978 -32.6947 -32.6880 -32.6823 -32.6717 -32.6608 -32.6574 -32.6386
   -32.6380 -32.6361 -32.6353 -32.6351 -32.6246 -32.6181 -32.6002 -32.5997
    12.3301  13.4212  15.0171  15.2531  15.5773  15.6002  15.8089  15.9027
    15.9682  15.9920  16.0456  16.0674  16.1183  16.1743  16.3243  16.6338
    16.6365  16.6519  17.1596  17.2029  17.2212  17.2449  17.5114  17.5439
    17.5581  17.6196  17.6297  17.7711  17.8244  17.9645  18.0123  18.0739
    18.1952  18.2061  18.2696  18.2785  18.3805  18.3824  18.4211  18.4660
    18.4984  18.5328  18.5867  18.7427  18.7879  18.7880  19.0695  19.4533
    19.5020  19.6416  19.6610  19.7110  19.7127  19.7436  19.9137  19.9843
    19.9954  20.0490  20.1208  20.1847  20.3290  20.3821  20.4059  20.4854
    20.5255  20.5310  20.5327  20.6360  20.6424  20.6517  20.6565  20.7232
    20.7268  20.7618  20.8113  20.9220  20.9225  21.0350  21.0719  21.1681
    21.1709  21.1829  21.3782  21.5756  21.6371  22.0022  22.3231  22.6654
    23.0414  23.1902

          k = 0.0553 0.1667-0.5000 ( 11350 PWs)   bands (ev):

   -66.8284 -66.8281 -66.7711 -66.7708 -66.7581 -66.7579 -66.7465 -66.7463
   -66.7461 -66.7459 -66.7433 -66.7430 -66.7344 -66.7342 -66.6915 -66.6913
   -33.0832 -33.0832 -33.0691 -33.0689 -33.0688 -33.0685 -33.0661 -33.0660
   -33.0442 -33.0441 -33.0115 -33.0114 -33.0090 -33.0089 -32.9303 -32.9300
   -32.8902 -32.8901 -32.8368 -32.8366 -32.8200 -32.8197 -32.8126 -32.8125
   -32.8015 -32.8014 -32.7724 -32.7722 -32.7432 -32.7429 -32.7367 -32.7366
   -32.6905 -32.6905 -32.6638 -32.6636 -32.6598 -32.6597 -32.6568 -32.6568
   -32.6460 -32.6458 -32.6355 -32.6355 -32.6165 -32.6164 -32.6161 -32.6160
    12.8313  12.8318  15.1557  15.1560  15.6167  15.6169  15.9144  15.9147
    16.0576  16.0579  16.2190  16.2193  16.3170  16.3174  16.3459  16.3462
    16.3520  16.3525  17.1798  17.1799  17.2040  17.2042  17.7160  17.7162
    17.7327  17.7330  17.7364  17.7365  17.8220  17.8224  18.1203  18.1204
    18.1752  18.1755  18.2392  18.2394  18.3673  18.3674  18.3693  18.3695
    18.3727  18.3729  18.4144  18.4146  18.5164  18.5165  19.2506  19.2508
    19.7536  19.7538  19.7827  19.7829  19.8912  19.8914  19.9372  19.9373
    19.9778  19.9779  19.9922  19.9923  20.3205  20.3207  20.4536  20.4538
    20.4667  20.4670  20.5938  20.5940  20.6357  20.6359  20.6743  20.6745
    20.7943  20.7944  20.8823  20.8824  21.0078  21.0079  21.0733  21.0734
    21.2461  21.2462  21.4080  21.4080  21.8100  21.8101  22.5138  22.5140
    23.1772  23.1774

          k = 0.0553 0.2778 0.2778 ( 11355 PWs)   bands (ev):

   -66.8438 -66.7947 -66.7946 -66.7687 -66.7611 -66.7518 -66.7517 -66.7467
   -66.7451 -66.7450 -66.7445 -66.7414 -66.7330 -66.7180 -66.7178 -66.6792
   -33.1286 -33.1095 -33.1094 -33.0992 -33.0991 -33.0583 -33.0243 -33.0243
   -33.0221 -33.0195 -33.0118 -33.0093 -32.9865 -32.9606 -32.9149 -32.8761
   -32.8728 -32.8724 -32.8652 -32.8652 -32.8286 -32.8169 -32.8163 -32.8059
   -32.8058 -32.7928 -32.7925 -32.7838 -32.7837 -32.7783 -32.7417 -32.7118
   -32.7052 -32.7052 -32.6966 -32.6931 -32.6895 -32.6656 -32.6605 -32.6388
   -32.6388 -32.6257 -32.6256 -32.6185 -32.6172 -32.6171 -32.5878 -32.5860
    12.1997  14.2437  14.2437  15.1546  15.6115  15.7572  15.7573  15.8806
    15.8806  15.9062  16.0168  16.0483  16.0705  16.3686  16.3687  16.7850
    16.8473  17.0325  17.0326  17.2483  17.3238  17.3566  17.3566  17.4007
    17.4007  17.4567  17.4574  17.6558  17.6679  17.7666  17.7963  18.1728
    18.1729  18.3020  18.3166  18.3213  18.3214  18.3489  18.3970  18.5174
    18.7378  18.7379  18.8003  18.8004  18.9811  19.0041  19.0042  19.0903
    19.5450  19.5451  19.5953  19.6394  19.6841  19.6843  19.9104  19.9765
    19.9767  20.1660  20.2310  20.2311  20.2792  20.2793  20.2821  20.3390
    20.3709  20.5467  20.5475  20.5545  20.6326  20.6418  20.6811  20.7407
    20.7425  20.7425  20.7974  20.8365  20.8367  20.9294  20.9294  21.1200
    21.1200  21.1592  21.5095  21.6958  21.7012  22.3769  22.8135  22.8136
    23.4118  23.4119

          k = 0.0553 0.2778 0.3889 ( 11370 PWs)   bands (ev):

   -66.8347 -66.8096 -66.7897 -66.7764 -66.7592 -66.7542 -66.7501 -66.7464
   -66.7461 -66.7451 -66.7441 -66.7421 -66.7279 -66.7204 -66.7054 -66.6859
   -33.1127 -33.0885 -33.0880 -33.0825 -33.0737 -33.0585 -33.0418 -33.0355
   -33.0349 -33.0324 -33.0290 -33.0178 -33.0142 -32.9436 -32.9222 -32.8949
   -32.8874 -32.8644 -32.8565 -32.8316 -32.8267 -32.8254 -32.8252 -32.8215
   -32.8196 -32.8128 -32.7969 -32.7835 -32.7821 -32.7563 -32.7343 -32.7299
   -32.7115 -32.6893 -32.6839 -32.6778 -32.6740 -32.6690 -32.6495 -32.6374
   -32.6369 -32.6348 -32.6338 -32.6247 -32.6169 -32.6167 -32.5905 -32.5897
    12.5805  13.6302  14.4753  14.9597  15.7360  15.7984  15.9932  16.0331
    16.0702  16.1160  16.1345  16.1505  16.2550  16.3326  16.3793  16.6521
    16.6538  16.7424  17.2283  17.2369  17.2736  17.2952  17.3252  17.4525
    17.4735  17.5125  17.5687  17.5903  17.8288  17.9243  17.9356  17.9376
    18.0471  18.1584  18.1654  18.2334  18.2348  18.2803  18.3472  18.3883
    18.3908  18.4532  18.4680  18.4777  18.6212  18.6596  19.2886  19.2984
    19.6797  19.6972  19.7408  19.7832  19.7947  19.7986  19.8039  19.8866
    19.9827  20.0585  20.1110  20.1515  20.1932  20.2887  20.3068  20.3340
    20.4292  20.4520  20.4774  20.4813  20.5859  20.6373  20.6587  20.6692
    20.6793  20.7566  20.7681  20.7802  20.7853  20.8628  20.8958  20.9493
    21.2924  21.3525  21.4974  21.6532  21.9549  22.5418  22.6702  23.2298
    23.4870  24.1322

          k = 0.0553 0.2778-0.5000 ( 11386 PWs)   bands (ev):

   -66.8232 -66.8230 -66.7836 -66.7834 -66.7569 -66.7567 -66.7484 -66.7482
   -66.7457 -66.7454 -66.7432 -66.7430 -66.7238 -66.7236 -66.6948 -66.6946
   -33.0890 -33.0890 -33.0630 -33.0629 -33.0628 -33.0626 -33.0623 -33.0622
   -33.0445 -33.0444 -33.0337 -33.0337 -32.9715 -32.9714 -32.9214 -32.9212
   -32.8571 -32.8570 -32.8462 -32.8461 -32.8451 -32.8449 -32.8181 -32.8179
   -32.8106 -32.8105 -32.7834 -32.7833 -32.7797 -32.7797 -32.7216 -32.7216
   -32.7199 -32.7197 -32.6576 -32.6574 -32.6540 -32.6539 -32.6538 -32.6536
   -32.6514 -32.6514 -32.6356 -32.6356 -32.6002 -32.6002 -32.6001 -32.6001
    13.0647  13.0652  14.7262  14.7265  15.8024  15.8026  16.0893  16.0896
    16.2210  16.2213  16.2874  16.2878  16.3513  16.3516  16.4150  16.4153
    16.4809  16.4813  17.2434  17.2436  17.2698  17.2699  17.5326  17.5329
    17.5548  17.5552  17.5640  17.5643  17.7317  17.7319  18.1145  18.1147
    18.1474  18.1476  18.1561  18.1562  18.1787  18.1788  18.1809  18.1811
    18.3336  18.3337  18.3744  18.3745  18.4367  18.4368  19.5041  19.5043
    19.6289  19.6289  19.7151  19.7153  19.8887  19.8889  19.9634  19.9636
    19.9800  19.9802  20.0275  20.0276  20.1532  20.1533  20.3930  20.3933
    20.4055  20.4058  20.5366  20.5368  20.5813  20.5814  20.6503  20.6505
    20.6964  20.6965  20.6992  20.6994  20.7897  20.7898  20.9194  20.9195
    21.4219  21.4220  21.5348  21.5348  22.2487  22.2489  22.9687  22.9689
    24.1797  24.1799

          k = 0.0553 0.3889 0.3889 ( 11367 PWs)   bands (ev):

   -66.8263 -66.8033 -66.8032 -66.7862 -66.7573 -66.7526 -66.7525 -66.7484
   -66.7454 -66.7444 -66.7443 -66.7426 -66.7204 -66.7092 -66.7091 -66.6918
   -33.1030 -33.0738 -33.0737 -33.0649 -33.0647 -33.0611 -33.0611 -33.0477
   -33.0451 -33.0446 -33.0438 -33.0284 -32.9737 -32.9277 -32.8833 -32.8833
   -32.8758 -32.8755 -32.8620 -32.8556 -32.8509 -32.8322 -32.8322 -32.8301
   -32.8169 -32.7964 -32.7964 -32.7904 -32.7898 -32.7895 -32.7795 -32.7205
   -32.7130 -32.6869 -32.6869 -32.6665 -32.6604 -32.6568 -32.6476 -32.6427
   -32.6414 -32.6412 -32.6355 -32.6353 -32.6001 -32.6001 -32.5869 -32.5863
    12.9424  13.9209  13.9209  14.6228  15.9137  16.0651  16.0652  16.2111
    16.2354  16.2355  16.2457  16.2582  16.3760  16.3761  16.4552  16.5684
    16.6261  16.9614  16.9615  17.2720  17.2910  17.3513  17.3784  17.3784
    17.3886  17.3886  17.4687  17.5986  17.6487  17.7712  17.8795  17.9519
    17.9520  18.0632  18.1055  18.1363  18.1438  18.1439  18.1763  18.1763
    18.3008  18.3289  18.3291  18.4189  18.4536  18.9440  18.9441  19.5263
    19.6200  19.7213  19.7777  19.7779  19.9060  19.9061  19.9147  19.9277
    20.0347  20.0349  20.0941  20.1802  20.2005  20.2006  20.2009  20.2182
    20.2184  20.4000  20.4020  20.4036  20.5011  20.5968  20.5970  20.6190
    20.6506  20.6802  20.7130  20.7131  20.7488  20.8069  20.8070  20.8301
    21.4786  21.4787  21.5578  21.6642  22.3328  23.0689  23.1183  23.1184
    23.8415  23.8416

          k = 0.0553 0.3889-0.5000 ( 11384 PWs)   bands (ev):

   -66.8158 -66.8156 -66.7955 -66.7952 -66.7551 -66.7549 -66.7506 -66.7504
   -66.7449 -66.7447 -66.7436 -66.7433 -66.7143 -66.7141 -66.6997 -66.6995
   -33.0855 -33.0854 -33.0581 -33.0580 -33.0579 -33.0578 -33.0565 -33.0565
   -33.0557 -33.0555 -33.0460 -33.0458 -32.9256 -32.9256 -32.9076 -32.9074
   -32.8687 -32.8684 -32.8502 -32.8501 -32.8345 -32.8344 -32.8275 -32.8274
   -32.8229 -32.8228 -32.8085 -32.8084 -32.7950 -32.7949 -32.7544 -32.7544
   -32.6987 -32.6984 -32.6654 -32.6652 -32.6497 -32.6495 -32.6492 -32.6491
   -32.6475 -32.6474 -32.6378 -32.6377 -32.5901 -32.5901 -32.5899 -32.5899
    13.3977  13.3982  14.2640  14.2644  16.0366  16.0369  16.3004  16.3006
    16.3159  16.3163  16.3328  16.3332  16.3508  16.3512  16.4774  16.4777
    16.6962  16.6966  17.2598  17.2602  17.3032  17.3033  17.3037  17.3039
    17.3676  17.3679  17.4240  17.4243  17.7788  17.7789  17.9116  17.9117
    17.9956  17.9958  18.0093  18.0094  18.0095  18.0095  18.0688  18.0690
    18.3455  18.3456  18.3693  18.3694  18.6059  18.6060  19.2676  19.2676
    19.7150  19.7152  19.7748  19.7749  19.9607  19.9609  20.0268  20.0270
    20.0697  20.0699  20.0711  20.0712  20.0808  20.0809  20.3026  20.3028
    20.3082  20.3085  20.3302  20.3303  20.4710  20.4712  20.5245  20.5246
    20.6736  20.6738  20.7242  20.7244  20.7357  20.7359  20.8174  20.8176
    21.5499  21.5499  21.6054  21.6054  22.7289  22.7291  23.4718  23.4719
    23.7085  23.7086

          k = 0.0553-0.5000-0.5000 ( 11412 PWs)   bands (ev):

   -66.8065 -66.8063 -66.8062 -66.8061 -66.7531 -66.7529 -66.7528 -66.7527
   -66.7443 -66.7442 -66.7440 -66.7440 -66.7063 -66.7062 -66.7061 -66.7060
   -33.0743 -33.0743 -33.0743 -33.0742 -33.0563 -33.0563 -33.0562 -33.0560
   -33.0499 -33.0499 -33.0498 -33.0496 -32.8898 -32.8897 -32.8896 -32.8894
   -32.8771 -32.8771 -32.8768 -32.8768 -32.8463 -32.8463 -32.8463 -32.8462
   -32.8037 -32.8037 -32.8037 -32.8037 -32.7886 -32.7886 -32.7883 -32.7882
   -32.6805 -32.6805 -32.6803 -32.6802 -32.6470 -32.6469 -32.6468 -32.6467
   -32.6427 -32.6427 -32.6425 -32.6424 -32.5866 -32.5866 -32.5866 -32.5866
    13.8079  13.8082  13.8083  13.8086  16.2471  16.2473  16.2474  16.2476
    16.3479  16.3481  16.3482  16.3486  16.4567  16.4568  16.4569  16.4571
    16.9651  16.9655  16.9656  16.9658  17.2948  17.2951  17.2951  17.2952
    17.3409  17.3412  17.3412  17.3413  17.8732  17.8734  17.8734  17.8734
    17.8933  17.8934  17.8934  17.8935  17.9782  17.9784  17.9784  17.9785
    18.3366  18.3367  18.3368  18.3369  18.9210  18.9210  18.9211  18.9212
    19.8010  19.8013  19.8014  19.8014  20.0483  20.0483  20.0483  20.0486
    20.1093  20.1093  20.1094  20.1094  20.1893  20.1895  20.1896  20.1896
    20.1898  20.1900  20.1901  20.1902  20.4478  20.4479  20.4481  20.4482
    20.7006  20.7008  20.7009  20.7010  20.7582  20.7584  20.7585  20.7585
    21.6120  21.6121  21.6121  21.6121  23.2214  23.2214  23.2215  23.2217
    23.9819  23.9819

          k = 0.1660 0.0556 0.0556 ( 11347 PWs)   bands (ev):

   -66.8600 -66.7831 -66.7644 -66.7643 -66.7511 -66.7510 -66.7482 -66.7476
   -66.7475 -66.7467 -66.7465 -66.7465 -66.7407 -66.7403 -66.7315 -66.6673
   -33.1504 -33.1503 -33.1481 -33.1455 -33.1415 -33.1414 -32.9971 -32.9836
   -32.9751 -32.9529 -32.9448 -32.9447 -32.9419 -32.9414 -32.9111 -32.9110
   -32.8751 -32.8475 -32.8372 -32.8355 -32.8235 -32.8000 -32.7999 -32.7927
   -32.7838 -32.7801 -32.7794 -32.7790 -32.7789 -32.7695 -32.7694 -32.7651
   -32.7649 -32.7627 -32.7626 -32.7301 -32.7288 -32.7288 -32.7202 -32.6073
   -32.5995 -32.5994 -32.5989 -32.5964 -32.5907 -32.5902 -32.5901 -32.5880
    11.5320  14.6313  15.3399  15.3400  15.4178  15.4178  15.4984  15.4984
    15.5064  15.5310  15.7360  15.7488  15.8405  15.8406  16.1113  17.0539
    17.1670  17.1676  17.2274  17.2400  17.2835  17.3047  17.3264  17.3265
    17.3678  17.3678  17.5919  17.6044  17.6561  17.6561  17.9954  17.9955
    18.4382  18.5502  18.5621  18.6908  18.6909  18.6927  18.7588  18.8695
    18.8696  18.9132  19.1681  19.1682  19.2834  19.2835  19.3369  19.4377
    19.6101  19.6102  19.6966  19.8989  19.8989  19.9255  20.0876  20.1581
    20.1582  20.2539  20.2540  20.2685  20.3407  20.3408  20.3596  20.3854
    20.3963  20.4012  20.4012  20.4327  20.6279  20.6359  20.6363  20.6678
    20.6681  20.8455  20.9372  20.9373  21.0920  21.2020  21.3173  21.4424
    21.4425  21.4427  21.4767  21.4767  21.7803  21.7804  21.9620  21.9621
    22.0385  22.0386

          k = 0.1660 0.0556 0.1667 ( 11363 PWs)   bands (ev):

   -66.8567 -66.7819 -66.7814 -66.7637 -66.7560 -66.7505 -66.7501 -66.7473
   -66.7462 -66.7457 -66.7426 -66.7416 -66.7404 -66.7317 -66.7314 -66.6698
   -33.1483 -33.1417 -33.1406 -33.1335 -33.1327 -33.1219 -33.0031 -32.9804
   -32.9762 -32.9714 -32.9708 -32.9636 -32.9602 -32.9560 -32.9320 -32.8860
   -32.8715 -32.8705 -32.8368 -32.8347 -32.8345 -32.8069 -32.7968 -32.7947
   -32.7887 -32.7883 -32.7859 -32.7773 -32.7750 -32.7732 -32.7705 -32.7607
   -32.7516 -32.7396 -32.7313 -32.7312 -32.7086 -32.6963 -32.6948 -32.6283
   -32.6146 -32.6066 -32.6056 -32.5989 -32.5979 -32.5958 -32.5868 -32.5857
    11.6683  14.7078  14.7266  15.3600  15.4028  15.5188  15.5204  15.5949
    15.5970  15.6083  15.8011  15.8100  15.8930  16.1545  16.1750  16.9573
    17.0684  17.2459  17.2752  17.2949  17.2998  17.3048  17.3124  17.3418
    17.3485  17.3610  17.4723  17.5707  17.5956  17.6119  17.8893  18.2650
    18.2691  18.4920  18.5476  18.5550  18.5588  18.5951  18.7390  18.7905
    19.0893  19.0971  19.1461  19.1555  19.1916  19.2594  19.3588  19.4523
    19.4610  19.4731  19.4820  19.6492  19.6737  19.7994  19.9155  19.9254
    20.1455  20.2615  20.2747  20.2986  20.3325  20.3349  20.3567  20.3574
    20.3704  20.5433  20.5893  20.6216  20.6219  20.6394  20.6445  20.6565
    20.6580  20.7519  20.7640  20.9729  21.0767  21.0785  21.0907  21.1057
    21.2126  21.4700  21.4728  21.6015  21.6718  22.0364  22.3465  22.3551
    22.5295  22.6535

          k = 0.1660 0.0556 0.2778 ( 11378 PWs)   bands (ev):

   -66.8501 -66.7982 -66.7794 -66.7622 -66.7612 -66.7525 -66.7495 -66.7468
   -66.7454 -66.7453 -66.7429 -66.7411 -66.7394 -66.7323 -66.7164 -66.6747
   -33.1359 -33.1246 -33.1234 -33.1184 -33.1105 -33.0928 -33.0095 -33.0087
   -33.0060 -32.9946 -32.9927 -32.9911 -32.9683 -32.9657 -32.9409 -32.9161
   -32.8748 -32.8681 -32.8331 -32.8305 -32.8301 -32.8275 -32.8094 -32.7988
   -32.7985 -32.7936 -32.7852 -32.7758 -32.7734 -32.7592 -32.7530 -32.7360
   -32.7334 -32.7197 -32.7112 -32.6993 -32.6831 -32.6662 -32.6648 -32.6584
   -32.6350 -32.6191 -32.6180 -32.6130 -32.6070 -32.6064 -32.5899 -32.5895
    11.9369  14.0671  14.8430  15.3104  15.5022  15.5580  15.6928  15.7173
    15.7459  15.7856  15.9222  15.9301  15.9600  16.1938  16.3271  16.8417
    16.9225  16.9530  17.1892  17.2666  17.2760  17.2964  17.3339  17.3798
    17.4322  17.4391  17.5556  17.6373  17.7274  17.7924  17.7930  18.1348
    18.2996  18.3856  18.4138  18.4373  18.4689  18.5060  18.5303  18.7211
    18.7766  18.9202  18.9611  19.1154  19.1560  19.2337  19.2534  19.2658
    19.3499  19.4474  19.4731  19.5219  19.5543  19.6799  19.6976  20.0221
    20.1605  20.2005  20.2292  20.2757  20.2835  20.3179  20.3542  20.4046
    20.5691  20.5810  20.5824  20.6493  20.6543  20.6736  20.6751  20.6841
    20.7407  20.8463  20.8657  20.8841  20.8971  20.9197  20.9695  21.0512
    21.1961  21.4003  21.4542  21.5406  21.6679  22.1751  22.1933  22.7578
    22.8102  22.9560

          k = 0.1660 0.0556 0.3889 ( 11361 PWs)   bands (ev):

   -66.8405 -66.8140 -66.7758 -66.7664 -66.7601 -66.7551 -66.7480 -66.7462
   -66.7454 -66.7446 -66.7442 -66.7420 -66.7367 -66.7332 -66.7029 -66.6820
   -33.1140 -33.0999 -33.0979 -33.0965 -33.0802 -33.0553 -33.0482 -33.0382
   -33.0322 -33.0302 -33.0117 -33.0046 -33.0036 -32.9646 -32.9503 -32.9182
   -32.8992 -32.8620 -32.8566 -32.8248 -32.8243 -32.8163 -32.8079 -32.8077
   -32.7990 -32.7982 -32.7823 -32.7750 -32.7743 -32.7463 -32.7365 -32.7232
   -32.6982 -32.6952 -32.6883 -32.6831 -32.6703 -32.6601 -32.6582 -32.6395
   -32.6373 -32.6364 -32.6362 -32.6353 -32.6235 -32.6189 -32.6002 -32.5992
    12.3291  13.4202  15.0023  15.2463  15.5901  15.6037  15.8106  15.9009
    15.9795  15.9917  16.0454  16.0713  16.1130  16.1634  16.3246  16.6323
    16.6343  16.6492  17.1599  17.2025  17.2207  17.2443  17.5022  17.5307
    17.5733  17.6029  17.6218  17.7672  17.8538  17.9883  18.0136  18.0754
    18.1877  18.1958  18.2550  18.2630  18.4003  18.4015  18.4478  18.4796
    18.4811  18.5120  18.6032  18.7248  18.7880  18.7882  19.0753  19.4574
    19.4950  19.6510  19.6519  19.7164  19.7206  19.7292  19.8933  19.9797
    19.9888  20.0676  20.1399  20.1623  20.3345  20.3791  20.4014  20.4870
    20.5201  20.5253  20.5379  20.6457  20.6510  20.6558  20.6610  20.7233
    20.7338  20.7716  20.7945  20.9313  20.9409  21.0123  21.0709  21.1714
    21.1825  21.1839  21.3760  21.5723  21.6579  22.0116  22.3553  22.6879
    22.9904  23.1488

          k = 0.1660 0.0556-0.5000 ( 11376 PWs)   bands (ev):

   -66.8284 -66.8282 -66.7714 -66.7712 -66.7578 -66.7575 -66.7465 -66.7463
   -66.7458 -66.7456 -66.7433 -66.7430 -66.7348 -66.7346 -66.6915 -66.6913
   -33.0843 -33.0842 -33.0694 -33.0691 -33.0689 -33.0686 -33.0657 -33.0656
   -33.0438 -33.0438 -33.0119 -33.0118 -33.0103 -33.0103 -32.9270 -32.9268
   -32.8919 -32.8918 -32.8368 -32.8366 -32.8168 -32.8166 -32.8126 -32.8124
   -32.8041 -32.8039 -32.7747 -32.7745 -32.7409 -32.7407 -32.7373 -32.7372
   -32.6900 -32.6899 -32.6642 -32.6640 -32.6602 -32.6600 -32.6578 -32.6577
   -32.6448 -32.6446 -32.6363 -32.6363 -32.6173 -32.6172 -32.6152 -32.6152
    12.8303  12.8308  15.1449  15.1452  15.6244  15.6246  15.9201  15.9204
    16.0522  16.0524  16.2204  16.2207  16.3159  16.3163  16.3450  16.3453
    16.3491  16.3496  17.1794  17.1796  17.2034  17.2036  17.6945  17.6947
    17.7186  17.7189  17.7644  17.7646  17.8117  17.8121  18.1462  18.1463
    18.1768  18.1771  18.2477  18.2479  18.3558  18.3560  18.3731  18.3733
    18.3866  18.3867  18.4150  18.4152  18.4961  18.4962  19.2550  19.2553
    19.7490  19.7492  19.7671  19.7673  19.9039  19.9041  19.9510  19.9511
    19.9739  19.9740  19.9850  19.9851  20.3169  20.3171  20.4492  20.4495
    20.4614  20.4617  20.5942  20.5945  20.6449  20.6451  20.6824  20.6826
    20.7890  20.7891  20.8987  20.8989  20.9957  20.9958  21.0856  21.0856
    21.2445  21.2446  21.4067  21.4067  21.8232  21.8233  22.5406  22.5407
    23.1307  23.1310

          k = 0.1660 0.1667 0.1667 ( 11357 PWs)   bands (ev):

   -66.8534 -66.7806 -66.7803 -66.7802 -66.7554 -66.7552 -66.7550 -66.7433
   -66.7424 -66.7423 -66.7420 -66.7398 -66.7320 -66.7316 -66.7315 -66.6721
   -33.1395 -33.1394 -33.1385 -33.1157 -33.1156 -33.1149 -32.9969 -32.9967
   -32.9937 -32.9880 -32.9879 -32.9877 -32.9406 -32.9349 -32.9348 -32.8940
   -32.8938 -32.8932 -32.8432 -32.8431 -32.8418 -32.8000 -32.7976 -32.7974
   -32.7892 -32.7883 -32.7715 -32.7713 -32.7701 -32.7677 -32.7652 -32.7651
   -32.7349 -32.7348 -32.7340 -32.7263 -32.6796 -32.6795 -32.6786 -32.6491
   -32.6193 -32.6183 -32.6182 -32.5959 -32.5949 -32.5948 -32.5916 -32.5911
    11.8033  14.7883  14.8063  14.8063  15.4669  15.4671  15.4671  15.7020
    15.7042  15.7043  15.8633  15.8730  16.2089  16.2282  16.2283  16.8773
    17.1784  17.1788  17.2707  17.2744  17.2745  17.2979  17.3274  17.3275
    17.4077  17.4367  17.4367  17.4515  17.5233  17.5400  18.1155  18.1188
    18.1188  18.4664  18.4681  18.4681  18.4799  18.4838  18.8988  18.8989
    18.9021  18.9103  19.0845  19.0846  19.1028  19.2695  19.2696  19.2698
    19.4789  19.4789  19.5038  19.5442  19.5443  19.5598  20.1145  20.1146
    20.1221  20.1822  20.1823  20.2053  20.2916  20.3156  20.3323  20.3325
    20.3578  20.5923  20.5924  20.6025  20.6197  20.6215  20.6324  20.6358
    20.6968  20.7468  20.7468  20.7475  21.0769  21.1023  21.1025  21.3032
    21.3032  21.3162  21.3300  21.3375  22.0499  22.0500  22.0548  22.7713
    22.8258  22.8259

          k = 0.1660 0.1667 0.2778 ( 11385 PWs)   bands (ev):

   -66.8470 -66.7965 -66.7781 -66.7777 -66.7604 -66.7601 -66.7541 -66.7453
   -66.7418 -66.7397 -66.7392 -66.7388 -66.7325 -66.7321 -66.7172 -66.6769
   -33.1274 -33.1265 -33.1219 -33.1035 -33.0886 -33.0879 -33.0187 -33.0158
   -33.0153 -33.0063 -33.0049 -32.9829 -32.9819 -32.9298 -32.9295 -32.9177
   -32.9118 -32.8783 -32.8510 -32.8451 -32.8431 -32.8138 -32.8120 -32.8092
   -32.8033 -32.7970 -32.7732 -32.7593 -32.7570 -32.7432 -32.7407 -32.7400
   -32.7383 -32.7369 -32.7013 -32.7008 -32.6805 -32.6573 -32.6565 -32.6531
   -32.6363 -32.6353 -32.6259 -32.6113 -32.6035 -32.5986 -32.5975 -32.5921
    12.0690  14.1635  14.9312  14.9475  15.4213  15.4235  15.6735  15.8390
    15.8405  15.8865  15.9829  15.9918  16.2687  16.2846  16.3890  16.7986
    16.9536  17.0199  17.1540  17.2821  17.2857  17.2890  17.3755  17.3780
    17.3901  17.4067  17.5521  17.5544  17.5825  17.7445  17.9731  17.9733
    18.2615  18.2850  18.2983  18.3733  18.3915  18.4566  18.6367  18.6510
    18.6512  18.6677  18.8789  19.0182  19.0343  19.0394  19.0542  19.0960
    19.3947  19.4936  19.4996  19.6396  19.6470  19.7956  19.8821  20.0724
    20.0927  20.1921  20.2489  20.2767  20.2991  20.3524  20.3638  20.3646
    20.3866  20.3889  20.5810  20.5820  20.5976  20.6222  20.6339  20.6361
    20.6485  20.8648  20.9121  20.9162  20.9431  21.0090  21.0834  21.0845
    21.1048  21.3816  21.3843  21.3960  21.7885  21.7908  22.6753  22.9750
    23.0246  23.4301

          k = 0.1660 0.1667 0.3889 ( 11388 PWs)   bands (ev):

   -66.8376 -66.8118 -66.7747 -66.7743 -66.7655 -66.7651 -66.7522 -66.7476
   -66.7411 -66.7399 -66.7367 -66.7363 -66.7334 -66.7330 -66.7041 -66.6839
   -33.1070 -33.1061 -33.0965 -33.0859 -33.0539 -33.0535 -33.0478 -33.0473
   -33.0419 -33.0253 -33.0141 -33.0140 -32.9715 -32.9715 -32.9641 -32.9107
   -32.8925 -32.8865 -32.8414 -32.8389 -32.8356 -32.8344 -32.8236 -32.8208
   -32.8062 -32.7975 -32.7828 -32.7521 -32.7500 -32.7419 -32.7402 -32.7183
   -32.7106 -32.7097 -32.7016 -32.6765 -32.6706 -32.6575 -32.6566 -32.6382
   -32.6362 -32.6354 -32.6348 -32.6301 -32.6210 -32.6060 -32.6049 -32.5990
    12.4563  13.5303  15.1008  15.1141  15.3581  15.3635  15.9634  15.9956
    15.9961  16.1343  16.1411  16.1601  16.2545  16.2640  16.3939  16.6526
    16.6531  16.6813  17.1630  17.2419  17.2764  17.3073  17.4189  17.4242
    17.5097  17.5368  17.7224  17.7469  17.8295  17.8456  17.8583  18.0064
    18.1654  18.1671  18.2385  18.2520  18.3156  18.3345  18.3434  18.3605
    18.3772  18.4251  18.5616  18.5785  18.5878  18.6035  19.2316  19.3515
    19.5960  19.6504  19.7407  19.7423  19.7432  19.7534  19.9569  19.9731
    20.0099  20.0250  20.0972  20.1562  20.1742  20.3339  20.3989  20.4550
    20.5103  20.5228  20.6047  20.6179  20.6193  20.6272  20.6618  20.6985
    20.6999  20.7185  20.7700  20.8225  21.0912  21.0983  21.1197  21.1346
    21.1469  21.3530  21.3551  21.3656  21.5338  21.5344  23.2130  23.2575
    23.3659  23.5207

          k = 0.1660 0.1667-0.5000 ( 11386 PWs)   bands (ev):

   -66.8259 -66.8256 -66.7704 -66.7702 -66.7700 -66.7698 -66.7501 -66.7499
   -66.7406 -66.7404 -66.7349 -66.7347 -66.7345 -66.7343 -66.6931 -66.6929
   -33.0796 -33.0796 -33.0788 -33.0788 -33.0651 -33.0648 -33.0640 -33.0637
   -33.0170 -33.0169 -33.0141 -33.0140 -33.0138 -33.0137 -32.9398 -32.9396
   -32.8646 -32.8644 -32.8609 -32.8607 -32.8338 -32.8336 -32.8310 -32.8308
   -32.7918 -32.7916 -32.7612 -32.7612 -32.7464 -32.7462 -32.7444 -32.7442
   -32.6823 -32.6823 -32.6815 -32.6815 -32.6652 -32.6650 -32.6555 -32.6553
   -32.6438 -32.6436 -32.6186 -32.6186 -32.6177 -32.6177 -32.6119 -32.6118
    12.9505  12.9509  15.2525  15.2528  15.2620  15.2623  16.1474  16.1476
    16.1514  16.1516  16.2922  16.2925  16.3111  16.3115  16.3843  16.3848
    16.4104  16.4107  17.1961  17.1963  17.2598  17.2599  17.6781  17.6783
    17.6786  17.6789  17.6792  17.6795  17.7019  17.7021  18.1339  18.1341
    18.1455  18.1457  18.1802  18.1804  18.2531  18.2532  18.2638  18.2640
    18.3004  18.3007  18.3073  18.3074  18.3880  18.3882  19.4309  19.4311
    19.6629  19.6629  19.8190  19.8192  19.8445  19.8446  19.8542  19.8544
    19.9728  19.9729  19.9867  19.9868  20.4244  20.4247  20.4301  20.4302
    20.4586  20.4590  20.5663  20.5665  20.6118  20.6120  20.7168  20.7170
    20.7178  20.7180  20.7356  20.7357  21.2485  21.2485  21.2576  21.2576
    21.2610  21.2611  21.2948  21.2949  21.2973  21.2973  23.4211  23.4213
    23.4607  23.4610

          k = 0.1660 0.2778 0.2778 ( 11392 PWs)   bands (ev):

   -66.8408 -66.7931 -66.7930 -66.7758 -66.7677 -66.7589 -66.7588 -66.7481
   -66.7390 -66.7389 -66.7388 -66.7331 -66.7329 -66.7187 -66.7186 -66.6813
   -33.1199 -33.1110 -33.1109 -33.0806 -33.0804 -33.0566 -33.0313 -33.0290
   -33.0283 -33.0283 -33.0127 -32.9915 -32.9810 -32.9538 -32.9231 -32.8913
   -32.8885 -32.8882 -32.8798 -32.8797 -32.8539 -32.8301 -32.8288 -32.8287
   -32.7823 -32.7718 -32.7715 -32.7634 -32.7633 -32.7442 -32.7414 -32.7261
   -32.7157 -32.7140 -32.7052 -32.7052 -32.6823 -32.6574 -32.6446 -32.6376
   -32.6374 -32.6348 -32.6348 -32.6122 -32.6121 -32.6112 -32.5955 -32.5921
    12.3284  14.3437  14.3437  15.0900  15.2697  15.6354  15.6355  15.9983
    16.0191  16.0192  16.0854  16.1212  16.3756  16.4537  16.4538  16.7712
    16.9612  17.0080  17.0081  17.2103  17.2318  17.3611  17.3611  17.4281
    17.4327  17.4367  17.4902  17.4902  17.7182  17.7200  17.8174  18.0784
    18.0784  18.1920  18.2328  18.2329  18.2949  18.3032  18.4049  18.4631
    18.5127  18.5128  18.6602  18.6603  18.7508  18.7959  18.7959  19.2397
    19.6028  19.6029  19.6300  19.7648  19.8270  19.8272  19.9827  20.0088
    20.1613  20.1614  20.1692  20.1693  20.2030  20.2818  20.2993  20.2994
    20.3309  20.5534  20.5569  20.5581  20.5730  20.6014  20.6101  20.6101
    20.6249  20.8295  20.8297  20.9288  20.9604  21.0852  21.0852  21.0949
    21.0950  21.1853  21.3745  21.4698  21.4802  22.3349  22.3350  23.2513
    24.0778  24.0779

          k = 0.1660 0.2778 0.3889 ( 11383 PWs)   bands (ev):

   -66.8320 -66.8075 -66.7882 -66.7752 -66.7724 -66.7636 -66.7566 -66.7510
   -66.7387 -66.7384 -66.7366 -66.7337 -66.7282 -66.7209 -66.7065 -66.6877
   -33.1048 -33.0933 -33.0872 -33.0694 -33.0558 -33.0514 -33.0485 -33.0437
   -33.0334 -33.0239 -33.0233 -33.0190 -32.9848 -32.9641 -32.9317 -32.9117
   -32.9061 -32.8736 -32.8631 -32.8569 -32.8537 -32.8473 -32.8437 -32.8421
   -32.8024 -32.7804 -32.7707 -32.7556 -32.7540 -32.7456 -32.7397 -32.7310
   -32.7113 -32.6935 -32.6918 -32.6818 -32.6753 -32.6655 -32.6522 -32.6427
   -32.6337 -32.6327 -32.6274 -32.6181 -32.6164 -32.6160 -32.5977 -32.5949
    12.7055  13.7414  14.5817  15.0763  15.2819  15.5729  15.9364  16.1631
    16.1733  16.2255  16.2579  16.2960  16.4120  16.4290  16.4700  16.6715
    16.6973  16.7428  17.1980  17.2156  17.2930  17.3050  17.3439  17.3898
    17.4727  17.5401  17.5875  17.6140  17.7033  17.8439  17.8755  17.8800
    18.0003  18.0709  18.1128  18.1683  18.1768  18.2045  18.2533  18.2598
    18.2774  18.2958  18.3189  18.3555  18.4359  18.4946  19.0157  19.4505
    19.6452  19.7577  19.8203  19.8263  19.8283  19.8732  19.8941  19.9276
    20.0672  20.0789  20.0952  20.1827  20.1956  20.2713  20.3504  20.4026
    20.4627  20.4846  20.4900  20.5734  20.5999  20.6024  20.6515  20.6522
    20.6609  20.6698  20.6852  20.7961  20.8798  20.9835  21.1018  21.1724
    21.2301  21.2485  21.3803  21.4012  21.4708  22.0118  22.9426  23.5725
    24.0768  24.2125

          k = 0.1660 0.2778-0.5000 ( 11384 PWs)   bands (ev):

   -66.8208 -66.8206 -66.7822 -66.7820 -66.7684 -66.7682 -66.7540 -66.7538
   -66.7386 -66.7384 -66.7350 -66.7348 -66.7242 -66.7240 -66.6962 -66.6960
   -33.0826 -33.0825 -33.0714 -33.0713 -33.0574 -33.0571 -33.0568 -33.0566
   -33.0315 -33.0314 -33.0188 -33.0187 -32.9763 -32.9763 -32.9404 -32.9402
   -32.8808 -32.8807 -32.8623 -32.8621 -32.8523 -32.8522 -32.8330 -32.8329
   -32.7982 -32.7982 -32.7771 -32.7770 -32.7502 -32.7500 -32.7201 -32.7199
   -32.7095 -32.7094 -32.6703 -32.6703 -32.6613 -32.6611 -32.6522 -32.6520
   -32.6491 -32.6489 -32.6231 -32.6230 -32.6052 -32.6052 -32.6030 -32.6029
    13.1841  13.1845  14.8391  14.8395  15.4555  15.4558  16.2967  16.2971
    16.3165  16.3168  16.3230  16.3232  16.3727  16.3731  16.5037  16.5041
    16.5105  16.5108  17.2508  17.2510  17.3218  17.3220  17.4909  17.4912
    17.5091  17.5095  17.5981  17.5983  17.6931  17.6932  17.9189  17.9191
    18.0780  18.0781  18.0952  18.0954  18.1020  18.1022  18.1432  18.1433
    18.2121  18.2122  18.2303  18.2304  18.3032  18.3033  19.3049  19.3049
    19.6796  19.6798  19.8414  19.8416  19.9361  19.9363  19.9716  19.9717
    20.0153  20.0154  20.0351  20.0352  20.3751  20.3752  20.3839  20.3842
    20.4179  20.4181  20.5154  20.5156  20.6003  20.6006  20.6077  20.6079
    20.6819  20.6821  20.7408  20.7410  20.8979  20.8979  21.0533  21.0534
    21.3326  21.3327  21.3869  21.3870  21.6945  21.6946  23.5734  23.5735
    23.8728  23.8730

          k = 0.1660 0.3889 0.3889 ( 11391 PWs)   bands (ev):

   -66.8238 -66.8015 -66.8013 -66.7848 -66.7693 -66.7612 -66.7611 -66.7545
   -66.7375 -66.7368 -66.7366 -66.7343 -66.7210 -66.7102 -66.7101 -66.6934
   -33.0950 -33.0746 -33.0745 -33.0565 -33.0565 -33.0527 -33.0488 -33.0487
   -33.0448 -33.0380 -33.0333 -33.0036 -32.9781 -32.9510 -32.9070 -32.9035
   -32.9035 -32.8877 -32.8873 -32.8701 -32.8695 -32.8676 -32.8675 -32.8321
   -32.7964 -32.7729 -32.7701 -32.7698 -32.7623 -32.7623 -32.7510 -32.7122
   -32.7090 -32.6841 -32.6840 -32.6746 -32.6744 -32.6566 -32.6500 -32.6498
   -32.6412 -32.6322 -32.6321 -32.6311 -32.6044 -32.6044 -32.5945 -32.5929
    13.0653  14.0350  14.0351  14.7413  15.5098  15.8701  15.8701  16.3050
    16.3242  16.4045  16.4045  16.4713  16.4714  16.4920  16.5154  16.5525
    16.7214  16.9597  16.9598  17.2199  17.2781  17.3308  17.3958  17.3958
    17.4267  17.4267  17.5589  17.5754  17.5900  17.6205  17.8368  17.9146
    17.9147  17.9447  17.9997  17.9997  18.0664  18.0665  18.0767  18.1239
    18.1353  18.1932  18.1933  18.2820  18.2920  18.6885  18.6886  19.2835
    19.6956  19.8645  19.9376  19.9377  19.9527  19.9862  19.9864  20.0038
    20.1294  20.1925  20.1977  20.1978  20.2296  20.2297  20.2459  20.2461
    20.3820  20.4184  20.4238  20.4644  20.5002  20.5891  20.5892  20.6032
    20.6285  20.6285  20.6754  20.6864  20.8543  20.8977  20.8978  20.9170
    21.3604  21.3604  21.4218  21.5002  21.7563  22.5400  22.5401  23.6454
    23.9862  24.7112

          k = 0.1660 0.3889-0.5000 ( 11384 PWs)   bands (ev):

   -66.8136 -66.8133 -66.7938 -66.7936 -66.7655 -66.7653 -66.7581 -66.7579
   -66.7370 -66.7368 -66.7354 -66.7352 -66.7151 -66.7149 -66.7010 -66.7008
   -33.0783 -33.0782 -33.0619 -33.0618 -33.0529 -33.0527 -33.0498 -33.0498
   -33.0463 -33.0461 -33.0259 -33.0258 -32.9334 -32.9334 -32.9298 -32.9295
   -32.8912 -32.8911 -32.8889 -32.8886 -32.8738 -32.8737 -32.8418 -32.8417
   -32.8007 -32.8007 -32.7680 -32.7679 -32.7562 -32.7562 -32.7387 -32.7386
   -32.6967 -32.6965 -32.6606 -32.6605 -32.6604 -32.6602 -32.6525 -32.6523
   -32.6513 -32.6512 -32.6311 -32.6310 -32.5969 -32.5969 -32.5960 -32.5960
    13.5172  13.5176  14.3811  14.3815  15.7251  15.7254  16.2102  16.2106
    16.4108  16.4111  16.4197  16.4201  16.5361  16.5363  16.6239  16.6242
    16.7199  16.7203  17.2585  17.2589  17.3161  17.3165  17.3216  17.3217
    17.3261  17.3262  17.4859  17.4862  17.7308  17.7310  17.7469  17.7471
    17.8838  17.8840  17.9336  17.9338  17.9778  17.9779  18.0183  18.0185
    18.1958  18.1959  18.2357  18.2358  18.3906  18.3907  18.9557  18.9558
    19.8993  19.8994  19.9512  19.9513  20.0654  20.0655  20.0989  20.0990
    20.1050  20.1052  20.1113  20.1115  20.2114  20.2115  20.3235  20.3237
    20.3306  20.3308  20.4569  20.4572  20.4946  20.4947  20.5687  20.5687
    20.6137  20.6139  20.6576  20.6578  20.7612  20.7614  20.8979  20.8980
    21.4200  21.4201  21.4595  21.4595  22.1440  22.1441  23.0888  23.0889
    24.3897  24.3899

          k = 0.1660-0.5000-0.5000 ( 11376 PWs)   bands (ev):

   -66.8045 -66.8044 -66.8042 -66.8042 -66.7621 -66.7620 -66.7618 -66.7618
   -66.7361 -66.7360 -66.7358 -66.7358 -66.7074 -66.7073 -66.7071 -66.7070
   -33.0666 -33.0666 -33.0666 -33.0665 -33.0546 -33.0546 -33.0544 -33.0543
   -33.0354 -33.0354 -33.0353 -33.0351 -32.9119 -32.9118 -32.9117 -32.9115
   -32.8885 -32.8885 -32.8885 -32.8884 -32.8879 -32.8879 -32.8876 -32.8875
   -32.7692 -32.7692 -32.7689 -32.7688 -32.7619 -32.7619 -32.7619 -32.7619
   -32.6766 -32.6765 -32.6764 -32.6763 -32.6541 -32.6541 -32.6539 -32.6538
   -32.6416 -32.6416 -32.6414 -32.6414 -32.5937 -32.5937 -32.5937 -32.5937
    13.9269  13.9271  13.9273  13.9276  16.0045  16.0047  16.0048  16.0051
    16.4389  16.4392  16.4392  16.4396  16.6704  16.6706  16.6706  16.6708
    16.9829  16.9833  16.9834  16.9836  17.2528  17.2531  17.2531  17.2532
    17.3963  17.3966  17.3966  17.3967  17.7353  17.7354  17.7355  17.7355
    17.8425  17.8428  17.8428  17.8428  17.9328  17.9329  17.9329  17.9331
    18.1959  18.1960  18.1961  18.1961  18.6439  18.6440  18.6440  18.6441
    20.0321  20.0324  20.0324  20.0325  20.1232  20.1232  20.1234  20.1234
    20.2184  20.2186  20.2187  20.2187  20.2334  20.2336  20.2337  20.2337
    20.2541  20.2542  20.2542  20.2544  20.4395  20.4397  20.4398  20.4399
    20.6352  20.6353  20.6355  20.6356  20.8039  20.8041  20.8042  20.8042
    21.4695  21.4695  21.4696  21.4696  22.6131  22.6131  22.6131  22.6133
    24.9110  24.9111

          k = 0.2767 0.0556 0.0556 ( 11367 PWs)   bands (ev):

   -66.8533 -66.8003 -66.7630 -66.7629 -66.7535 -66.7533 -66.7473 -66.7471
   -66.7470 -66.7461 -66.7460 -66.7458 -66.7418 -66.7411 -66.7160 -66.6724
   -33.1322 -33.1321 -33.1305 -33.1284 -33.1177 -33.1176 -32.9979 -32.9945
   -32.9889 -32.9865 -32.9864 -32.9710 -32.9643 -32.9601 -32.9553 -32.9552
   -32.8695 -32.8604 -32.8572 -32.8427 -32.7978 -32.7976 -32.7947 -32.7932
   -32.7900 -32.7830 -32.7829 -32.7676 -32.7675 -32.7650 -32.7649 -32.7467
   -32.7391 -32.7276 -32.7275 -32.6975 -32.6956 -32.6956 -32.6883 -32.6327
   -32.6151 -32.6150 -32.6142 -32.6126 -32.6024 -32.5997 -32.5996 -32.5973
    11.8018  13.9568  15.4259  15.4259  15.4543  15.4544  15.5961  15.5961
    15.6983  15.7200  15.8502  15.8762  15.8898  15.8899  16.2582  16.8878
    16.9325  16.9363  17.1213  17.1685  17.1972  17.2077  17.4379  17.4379
    17.5062  17.5063  17.6464  17.6465  17.8468  17.8685  17.9262  17.9263
    18.4030  18.4030  18.5324  18.5567  18.5640  18.5640  18.5992  18.6497
    18.7875  19.0358  19.0504  19.0504  19.2650  19.2651  19.4265  19.4266
    19.4646  19.4647  19.4671  19.4944  19.5416  19.6154  19.7265  20.1246
    20.1546  20.1548  20.2522  20.2524  20.3950  20.4092  20.4509  20.4613
    20.4613  20.5998  20.6012  20.6333  20.6627  20.6648  20.6698  20.6936
    20.6936  20.7158  20.8906  20.9420  21.0697  21.1355  21.1356  21.3706
    21.4557  21.4558  21.5332  21.5333  21.6531  21.6532  22.0409  22.0410
    22.1723  22.1724

          k = 0.2767 0.0556 0.1667 ( 11376 PWs)   bands (ev):

   -66.8502 -66.7985 -66.7790 -66.7622 -66.7611 -66.7528 -66.7492 -66.7469
   -66.7457 -66.7450 -66.7429 -66.7410 -66.7393 -66.7320 -66.7167 -66.6747
   -33.1361 -33.1245 -33.1237 -33.1177 -33.1115 -33.0931 -33.0102 -33.0094
   -33.0060 -32.9953 -32.9925 -32.9911 -32.9678 -32.9664 -32.9404 -32.9171
   -32.8748 -32.8679 -32.8329 -32.8303 -32.8284 -32.8269 -32.8079 -32.8008
   -32.7985 -32.7911 -32.7871 -32.7735 -32.7721 -32.7608 -32.7529 -32.7366
   -32.7331 -32.7202 -32.7115 -32.6994 -32.6834 -32.6659 -32.6649 -32.6583
   -32.6352 -32.6188 -32.6185 -32.6141 -32.6070 -32.6056 -32.5901 -32.5891
    11.9349  14.0513  14.8583  15.3112  15.5007  15.5584  15.6943  15.7139
    15.7465  15.7816  15.9138  15.9355  15.9588  16.2094  16.3078  16.8360
    16.9156  16.9506  17.1810  17.2401  17.2669  17.2705  17.3386  17.4078
    17.4317  17.4667  17.5554  17.6365  17.7409  17.7938  17.8055  18.1385
    18.2967  18.3962  18.4128  18.4351  18.4745  18.5175  18.5314  18.7216
    18.7713  18.9252  18.9442  19.0965  19.1770  19.2546  19.2569  19.2632
    19.3584  19.4383  19.4611  19.5110  19.5395  19.6905  19.7173  20.0239
    20.1467  20.1783  20.2221  20.2516  20.2839  20.3400  20.3780  20.4151
    20.5693  20.5824  20.5844  20.6537  20.6594  20.6765  20.6839  20.6887
    20.7405  20.8579  20.8667  20.8689  20.8889  20.9155  20.9749  21.0763
    21.1866  21.3991  21.4533  21.5392  21.6677  22.1728  22.1851  22.7434
    22.8608  22.9637

          k = 0.2767 0.0556 0.2778 ( 11365 PWs)   bands (ev):

   -66.8439 -66.7950 -66.7947 -66.7690 -66.7608 -66.7517 -66.7514 -66.7464
   -66.7450 -66.7446 -66.7444 -66.7413 -66.7333 -66.7183 -66.7180 -66.6793
   -33.1297 -33.1098 -33.1088 -33.0995 -33.0986 -33.0592 -33.0259 -33.0255
   -33.0222 -33.0219 -33.0124 -33.0093 -32.9871 -32.9566 -32.9162 -32.8758
   -32.8735 -32.8727 -32.8619 -32.8618 -32.8283 -32.8173 -32.8138 -32.8078
   -32.8057 -32.7942 -32.7926 -32.7855 -32.7837 -32.7792 -32.7395 -32.7125
   -32.7035 -32.7032 -32.6971 -32.6938 -32.6906 -32.6668 -32.6600 -32.6394
   -32.6383 -32.6266 -32.6258 -32.6183 -32.6176 -32.6174 -32.5869 -32.5861
    12.1967  14.2280  14.2410  15.1496  15.6246  15.7554  15.7576  15.8776
    15.8809  15.9068  16.0202  16.0610  16.0625  16.3533  16.3680  16.7767
    16.8358  17.0271  17.0297  17.2440  17.3159  17.3309  17.3554  17.3755
    17.3991  17.4586  17.4858  17.6571  17.6810  17.7802  17.8256  18.1937
    18.1938  18.2936  18.3122  18.3145  18.3334  18.3341  18.3908  18.4971
    18.7397  18.7566  18.8014  18.8203  18.9612  19.0217  19.0272  19.1002
    19.5291  19.5307  19.5908  19.6300  19.6717  19.6859  19.8906  19.9793
    19.9868  20.1442  20.2283  20.2484  20.2553  20.2741  20.2965  20.3472
    20.3861  20.5381  20.5399  20.5481  20.6512  20.6611  20.6938  20.7447
    20.7574  20.7627  20.8100  20.8201  20.8364  20.9404  20.9485  21.1179
    21.1213  21.1595  21.5059  21.6966  21.7142  22.4059  22.8145  22.8216
    23.4167  23.4279

          k = 0.2767 0.0556 0.3889 ( 11370 PWs)   bands (ev):

   -66.8347 -66.8097 -66.7901 -66.7767 -66.7588 -66.7539 -66.7501 -66.7463
   -66.7458 -66.7448 -66.7440 -66.7420 -66.7282 -66.7207 -66.7055 -66.6860
   -33.1138 -33.0889 -33.0875 -33.0829 -33.0734 -33.0596 -33.0419 -33.0355
   -33.0351 -33.0340 -33.0311 -33.0185 -33.0143 -32.9394 -32.9225 -32.8911
   -32.8888 -32.8642 -32.8531 -32.8282 -32.8275 -32.8269 -32.8252 -32.8212
   -32.8211 -32.8147 -32.7968 -32.7852 -32.7833 -32.7562 -32.7349 -32.7277
   -32.7096 -32.6888 -32.6844 -32.6761 -32.6744 -32.6701 -32.6503 -32.6380
   -32.6379 -32.6352 -32.6326 -32.6257 -32.6174 -32.6159 -32.5900 -32.5897
    12.5775  13.6275  14.4614  14.9516  15.7454  15.7991  15.9923  16.0324
    16.0693  16.1239  16.1336  16.1545  16.2466  16.3240  16.3803  16.6449
    16.6479  16.7377  17.2274  17.2283  17.2709  17.2940  17.3232  17.4507
    17.4516  17.4909  17.5875  17.5968  17.8337  17.9241  17.9306  17.9624
    18.0730  18.1590  18.1800  18.2287  18.2522  18.2700  18.3619  18.3758
    18.4039  18.4541  18.4581  18.4701  18.6047  18.6847  19.2966  19.3134
    19.6741  19.6881  19.7418  19.7781  19.7847  19.7877  19.7962  19.8785
    19.9929  20.0449  20.1229  20.1640  20.1707  20.2958  20.3010  20.3265
    20.4353  20.4522  20.4689  20.4734  20.5753  20.6563  20.6696  20.6778
    20.6970  20.7532  20.7774  20.7949  20.8085  20.8818  20.8986  20.9701
    21.2898  21.3520  21.4942  21.6497  21.9666  22.5495  22.6939  23.2479
    23.4892  24.0709

          k = 0.2767 0.0556-0.5000 ( 11378 PWs)   bands (ev):

   -66.8233 -66.8230 -66.7839 -66.7837 -66.7565 -66.7563 -66.7484 -66.7481
   -66.7453 -66.7451 -66.7431 -66.7429 -66.7241 -66.7239 -66.6949 -66.6947
   -33.0901 -33.0900 -33.0632 -33.0631 -33.0630 -33.0629 -33.0619 -33.0618
   -33.0442 -33.0442 -33.0356 -33.0356 -32.9719 -32.9719 -32.9175 -32.9173
   -32.8589 -32.8588 -32.8461 -32.8460 -32.8417 -32.8415 -32.8197 -32.8195
   -32.8105 -32.8104 -32.7849 -32.7848 -32.7804 -32.7803 -32.7213 -32.7213
   -32.7179 -32.7176 -32.6580 -32.6578 -32.6543 -32.6542 -32.6524 -32.6524
   -32.6523 -32.6521 -32.6366 -32.6365 -32.6005 -32.6004 -32.5994 -32.5993
    13.0619  13.0623  14.7150  14.7153  15.8071  15.8074  16.0921  16.0923
    16.2174  16.2176  16.2902  16.2905  16.3483  16.3486  16.4122  16.4126
    16.4739  16.4744  17.2429  17.2430  17.2678  17.2679  17.5226  17.5229
    17.5426  17.5430  17.5502  17.5504  17.7584  17.7586  18.1163  18.1165
    18.1528  18.1529  18.1592  18.1593  18.1841  18.1843  18.1992  18.1994
    18.3603  18.3604  18.3612  18.3614  18.4188  18.4190  19.5104  19.5106
    19.6413  19.6413  19.7032  19.7033  19.8774  19.8776  19.9686  19.9687
    19.9871  19.9873  20.0088  20.0089  20.1492  20.1493  20.3854  20.3857
    20.3974  20.3977  20.5384  20.5387  20.5811  20.5812  20.6693  20.6695
    20.6882  20.6884  20.7169  20.7171  20.8136  20.8137  20.9406  20.9408
    21.4188  21.4189  21.5325  21.5326  22.2573  22.2574  22.9892  22.9894
    24.1832  24.1834

          k = 0.2767 0.1667 0.1667 ( 11381 PWs)   bands (ev):

   -66.8470 -66.7968 -66.7778 -66.7777 -66.7604 -66.7603 -66.7537 -66.7453
   -66.7415 -66.7397 -66.7392 -66.7390 -66.7323 -66.7321 -66.7175 -66.6769
   -33.1276 -33.1275 -33.1211 -33.1027 -33.0888 -33.0887 -33.0188 -33.0165
   -33.0164 -33.0083 -33.0052 -32.9818 -32.9807 -32.9304 -32.9302 -32.9178
   -32.9119 -32.8767 -32.8505 -32.8437 -32.8436 -32.8159 -32.8092 -32.8091
   -32.8024 -32.7968 -32.7749 -32.7571 -32.7569 -32.7440 -32.7412 -32.7410
   -32.7371 -32.7370 -32.7010 -32.7006 -32.6805 -32.6576 -32.6576 -32.6522
   -32.6356 -32.6355 -32.6269 -32.6120 -32.6031 -32.5977 -32.5976 -32.5920
    12.0670  14.1482  14.9459  14.9459  15.4221  15.4221  15.6714  15.8410
    15.8410  15.8823  15.9805  15.9911  16.2836  16.2837  16.3705  16.7935
    16.9519  17.0083  17.1479  17.2628  17.2845  17.2845  17.3503  17.3783
    17.4061  17.4061  17.5680  17.5814  17.5814  17.7596  17.9765  17.9765
    18.2604  18.2910  18.2910  18.3841  18.4027  18.4445  18.6468  18.6468
    18.6522  18.6523  18.8976  19.0191  19.0192  19.0574  19.0591  19.1071
    19.3875  19.4890  19.4891  19.6316  19.6316  19.8123  19.8912  20.0729
    20.0730  20.1750  20.2684  20.2732  20.2733  20.3676  20.3753  20.3774
    20.3871  20.3872  20.5773  20.5798  20.6078  20.6307  20.6433  20.6433
    20.6466  20.8484  20.9150  20.9150  20.9423  21.0229  21.0934  21.1042
    21.1043  21.3761  21.3868  21.3869  21.7869  21.7869  22.6809  23.0213
    23.0214  23.4366

          k = 0.2767 0.1667 0.2778 ( 11380 PWs)   bands (ev):

   -66.8409 -66.7934 -66.7931 -66.7754 -66.7680 -66.7588 -66.7585 -66.7481
   -66.7390 -66.7387 -66.7386 -66.7333 -66.7326 -66.7190 -66.7186 -66.6813
   -33.1211 -33.1112 -33.1101 -33.0805 -33.0799 -33.0577 -33.0311 -33.0293
   -33.0292 -33.0290 -33.0150 -32.9914 -32.9781 -32.9542 -32.9231 -32.8915
   -32.8888 -32.8882 -32.8781 -32.8774 -32.8551 -32.8309 -32.8287 -32.8272
   -32.7819 -32.7721 -32.7709 -32.7649 -32.7632 -32.7420 -32.7419 -32.7269
   -32.7167 -32.7142 -32.7042 -32.7040 -32.6823 -32.6566 -32.6456 -32.6384
   -32.6377 -32.6350 -32.6340 -32.6132 -32.6123 -32.6104 -32.5946 -32.5922
    12.3265  14.3294  14.3420  15.1031  15.2657  15.6353  15.6359  16.0000
    16.0156  16.0194  16.0895  16.1141  16.3882  16.4390  16.4537  16.7667
    16.9474  17.0049  17.0058  17.2105  17.2323  17.3358  17.3607  17.4257
    17.4404  17.4605  17.4664  17.4886  17.7321  17.7459  17.8189  18.0867
    18.0908  18.1816  18.2269  18.2370  18.2882  18.3101  18.3896  18.4580
    18.5146  18.5300  18.6608  18.6806  18.7318  18.8038  18.8091  19.2441
    19.5925  19.5948  19.6309  19.7518  19.8227  19.8381  19.9660  20.0123
    20.1601  20.1700  20.1750  20.1768  20.1838  20.2572  20.2938  20.3170
    20.3462  20.5466  20.5483  20.5506  20.5825  20.6150  20.6223  20.6260
    20.6416  20.8150  20.8295  20.9403  20.9680  21.0809  21.0838  21.1000
    21.1104  21.1966  21.3688  21.4690  21.4714  22.3341  22.3381  23.2924
    24.0165  24.0738

          k = 0.2767 0.1667 0.3889 ( 11380 PWs)   bands (ev):

   -66.8320 -66.8076 -66.7885 -66.7755 -66.7721 -66.7633 -66.7566 -66.7510
   -66.7386 -66.7384 -66.7363 -66.7334 -66.7284 -66.7212 -66.7066 -66.6878
   -33.1059 -33.0925 -33.0874 -33.0696 -33.0568 -33.0509 -33.0482 -33.0439
   -33.0345 -33.0255 -33.0233 -33.0194 -32.9850 -32.9619 -32.9317 -32.9101
   -32.9061 -32.8708 -32.8633 -32.8586 -32.8537 -32.8444 -32.8442 -32.8440
   -32.8030 -32.7801 -32.7707 -32.7571 -32.7543 -32.7466 -32.7391 -32.7291
   -32.7098 -32.6938 -32.6927 -32.6811 -32.6742 -32.6657 -32.6531 -32.6429
   -32.6339 -32.6338 -32.6267 -32.6173 -32.6171 -32.6167 -32.5968 -32.5950
    12.7036  13.7397  14.5692  15.0694  15.2924  15.5759  15.9360  16.1635
    16.1714  16.2303  16.2576  16.2882  16.4189  16.4214  16.4716  16.6655
    16.6940  16.7387  17.1907  17.2181  17.2937  17.3048  17.3401  17.3877
    17.4497  17.5664  17.5684  17.6161  17.6983  17.8483  17.8814  17.8989
    18.0057  18.0652  18.1328  18.1628  18.1904  18.2201  18.2374  18.2542
    18.2774  18.3113  18.3214  18.3406  18.4205  18.5103  19.0216  19.4544
    19.6492  19.7526  19.8158  19.8254  19.8290  19.8667  19.8822  19.9277
    20.0767  20.0775  20.0856  20.1762  20.1955  20.2681  20.3443  20.4076
    20.4611  20.4774  20.4838  20.5617  20.6132  20.6155  20.6518  20.6729
    20.6744  20.6893  20.6895  20.7875  20.8876  20.9997  21.1184  21.1745
    21.2278  21.2421  21.3766  21.4034  21.4626  22.0128  22.9423  23.6094
    24.1060  24.2139

          k = 0.2767 0.1667-0.5000 ( 11382 PWs)   bands (ev):

   -66.8209 -66.8206 -66.7825 -66.7823 -66.7681 -66.7679 -66.7540 -66.7537
   -66.7385 -66.7383 -66.7347 -66.7345 -66.7245 -66.7243 -66.6963 -66.6961
   -33.0837 -33.0836 -33.0708 -33.0707 -33.0575 -33.0573 -33.0568 -33.0566
   -33.0328 -33.0327 -33.0186 -33.0185 -32.9766 -32.9765 -32.9386 -32.9383
   -32.8809 -32.8808 -32.8594 -32.8592 -32.8543 -32.8541 -32.8333 -32.8332
   -32.7986 -32.7986 -32.7768 -32.7766 -32.7515 -32.7514 -32.7185 -32.7183
   -32.7089 -32.7088 -32.6714 -32.6713 -32.6616 -32.6614 -32.6524 -32.6523
   -32.6482 -32.6480 -32.6240 -32.6240 -32.6044 -32.6044 -32.6032 -32.6032
    13.1822  13.1827  14.8292  14.8295  15.4623  15.4627  16.2948  16.2952
    16.3141  16.3144  16.3243  16.3246  16.3764  16.3768  16.4972  16.4977
    16.5089  16.5092  17.2514  17.2516  17.3194  17.3195  17.4868  17.4871
    17.4998  17.5002  17.5817  17.5819  17.7169  17.7171  17.9193  17.9195
    18.0847  18.0848  18.0985  18.0987  18.1014  18.1015  18.1606  18.1607
    18.2191  18.2192  18.2299  18.2300  18.2879  18.2881  19.3096  19.3097
    19.6833  19.6835  19.8361  19.8363  19.9283  19.9285  19.9733  19.9735
    20.0198  20.0199  20.0241  20.0243  20.3766  20.3767  20.3789  20.3791
    20.4118  20.4121  20.5167  20.5169  20.5932  20.5934  20.6137  20.6139
    20.7043  20.7045  20.7514  20.7515  20.9016  20.9016  21.0705  21.0705
    21.3296  21.3297  21.3794  21.3794  21.6946  21.6947  23.5741  23.5742
    23.9061  23.9063

          k = 0.2767 0.2778 0.2778 ( 11390 PWs)   bands (ev):

   -66.8350 -66.7902 -66.7899 -66.7898 -66.7661 -66.7660 -66.7657 -66.7519
   -66.7368 -66.7336 -66.7335 -66.7332 -66.7203 -66.7200 -66.7199 -66.6853
   -33.1044 -33.1043 -33.1032 -33.0543 -33.0542 -33.0538 -33.0383 -33.0376
   -33.0375 -33.0371 -33.0019 -32.9988 -32.9687 -32.9681 -32.9158 -32.9155
   -32.9154 -32.8916 -32.8915 -32.8902 -32.8630 -32.8531 -32.8510 -32.8509
   -32.7468 -32.7465 -32.7453 -32.7452 -32.7445 -32.7443 -32.7437 -32.7383
   -32.7375 -32.7069 -32.7068 -32.7064 -32.6692 -32.6533 -32.6527 -32.6526
   -32.6281 -32.6281 -32.6272 -32.6109 -32.6101 -32.6100 -32.6047 -32.6045
    12.5811  14.5199  14.5316  14.5317  15.4909  15.4910  15.4927  16.1719
    16.1755  16.1756  16.2114  16.2208  16.5677  16.5812  16.5813  16.7864
    16.9937  16.9938  16.9943  16.9973  17.2074  17.2148  17.3897  17.4142
    17.4142  17.5643  17.5815  17.5937  17.6143  17.6143  17.9433  17.9454
    17.9455  18.0937  18.0937  18.1051  18.1972  18.1972  18.2123  18.2532
    18.2709  18.3911  18.3911  18.4092  18.5344  18.5344  18.5398  19.4519
    19.6373  19.7274  19.7331  19.7332  19.9488  19.9488  19.9638  20.0926
    20.0926  20.1047  20.2532  20.2726  20.2871  20.2872  20.3084  20.4308
    20.4334  20.4335  20.5519  20.5548  20.5548  20.5604  20.5608  20.5773
    20.5919  20.8271  20.8354  20.8355  21.0593  21.0695  21.0695  21.1236
    21.1356  21.1888  21.1889  21.2007  21.9414  21.9414  21.9426  24.2253
    24.3153  24.3688

          k = 0.2767 0.2778 0.3889 ( 11388 PWs)   bands (ev):

   -66.8266 -66.8035 -66.7855 -66.7852 -66.7731 -66.7728 -66.7632 -66.7560
   -66.7354 -66.7338 -66.7290 -66.7287 -66.7224 -66.7221 -66.7088 -66.6913
   -33.0905 -33.0894 -33.0795 -33.0532 -33.0524 -33.0500 -33.0417 -33.0382
   -33.0219 -33.0214 -33.0181 -33.0107 -32.9810 -32.9493 -32.9492 -32.9410
   -32.9254 -32.8946 -32.8928 -32.8795 -32.8729 -32.8727 -32.8704 -32.8333
   -32.7859 -32.7734 -32.7482 -32.7459 -32.7318 -32.7304 -32.7176 -32.7169
   -32.7119 -32.7111 -32.6977 -32.6748 -32.6716 -32.6709 -32.6591 -32.6507
   -32.6329 -32.6230 -32.6208 -32.6199 -32.6148 -32.6117 -32.6108 -32.6028
    12.9500  13.9551  14.7732  14.7833  15.2970  15.3017  15.8106  16.3387
    16.3412  16.3590  16.3806  16.4078  16.6011  16.6072  16.6218  16.6240
    16.7596  16.7781  17.1209  17.1240  17.2437  17.3555  17.4016  17.4123
    17.4729  17.4888  17.5116  17.6745  17.6869  17.7337  17.7852  17.7940
    17.9275  17.9363  17.9979  17.9997  18.0297  18.0419  18.0610  18.0659
    18.1378  18.1452  18.1521  18.2073  18.2734  18.2795  18.6858  19.2675
    19.6884  19.8711  19.8998  19.9082  20.0040  20.0142  20.0460  20.0516
    20.1557  20.2064  20.2068  20.2129  20.2284  20.2395  20.3418  20.3587
    20.4869  20.5000  20.5548  20.5586  20.5590  20.5668  20.5859  20.6018
    20.6194  20.6487  20.8252  20.9449  20.9611  20.9650  21.0951  21.1087
    21.1729  21.2029  21.2161  21.2184  21.5888  21.5902  22.4815  23.6279
    24.6540  24.7036

          k = 0.2767 0.2778-0.5000 ( 11382 PWs)   bands (ev):

   -66.8161 -66.8159 -66.7798 -66.7796 -66.7795 -66.7793 -66.7599 -66.7597
   -66.7345 -66.7343 -66.7254 -66.7252 -66.7250 -66.7249 -66.6992 -66.6990
   -33.0722 -33.0721 -33.0712 -33.0711 -33.0482 -33.0479 -33.0459 -33.0457
   -33.0313 -33.0312 -32.9859 -32.9858 -32.9857 -32.9856 -32.9556 -32.9554
   -32.9108 -32.9107 -32.8875 -32.8874 -32.8855 -32.8853 -32.8292 -32.8291
   -32.8031 -32.8030 -32.7490 -32.7489 -32.7202 -32.7200 -32.7190 -32.7188
   -32.6930 -32.6930 -32.6924 -32.6923 -32.6626 -32.6623 -32.6529 -32.6528
   -32.6466 -32.6463 -32.6150 -32.6150 -32.6141 -32.6141 -32.6064 -32.6063
    13.4161  13.4165  15.0478  15.0481  15.0555  15.0558  16.2002  16.2006
    16.4969  16.4971  16.4972  16.4974  16.5335  16.5338  16.5450  16.5455
    16.6424  16.6427  17.2947  17.2949  17.3768  17.3769  17.4078  17.4082
    17.4120  17.4124  17.6254  17.6256  17.6438  17.6440  17.6918  17.6920
    17.9054  17.9057  17.9997  17.9998  18.0078  18.0079  18.0441  18.0442
    18.0501  18.0503  18.0735  18.0737  18.1339  18.1340  18.9380  18.9381
    19.9433  19.9435  20.0195  20.0197  20.0238  20.0239  20.0259  20.0261
    20.0722  20.0723  20.0834  20.0836  20.3805  20.3807  20.4117  20.4120
    20.4767  20.4770  20.5074  20.5075  20.5602  20.5604  20.5869  20.5871
    20.6033  20.6035  20.7653  20.7655  21.1598  21.1599  21.1738  21.1739
    21.2282  21.2283  21.2536  21.2537  21.2577  21.2578  23.0483  23.0484
    24.9320  24.9328

[...]
   -32.8640 -32.8640 -32.8619 -32.8617 -32.8310 -32.8310 -32.8309 -32.8309
   -32.7925 -32.7922 -32.7610 -32.7608 -32.7444 -32.7443 -32.7442 -32.7441
   -32.6827 -32.6825 -32.6824 -32.6824 -32.6661 -32.6660 -32.6561 -32.6560
   -32.6432 -32.6431 -32.6185 -32.6184 -32.6183 -32.6183 -32.6114 -32.6113
    12.9422  12.9428  15.2583  15.2584  15.2587  15.2587  16.1517  16.1517
    16.1519  16.1520  16.2777  16.2781  16.3033  16.3037  16.3870  16.3876
    16.4017  16.4020  17.1791  17.1792  17.2443  17.2444  17.6769  17.6771
    17.6774  17.6774  17.7009  17.7009  17.7010  17.7011  18.1490  18.1491
    18.1491  18.1492  18.2008  18.2009  18.2552  18.2552  18.2553  18.2554
    18.3181  18.3181  18.3190  18.3191  18.3821  18.3823  19.4402  19.4404
    19.6716  19.6717  19.8037  19.8038  19.8396  19.8396  19.8397  19.8398
    19.9655  19.9656  19.9656  19.9657  20.4334  20.4338  20.4450  20.4451
    20.4709  20.4713  20.5670  20.5674  20.6213  20.6214  20.7295  20.7296
    20.7355  20.7356  20.7356  20.7357  21.2530  21.2530  21.2530  21.2531
    21.2575  21.2576  21.2942  21.2943  21.2944  21.2944  23.4482  23.4483
    23.4486  23.4487

          k =-0.4981 0.1667 0.2778 ( 11386 PWs)   bands (ev):

   -66.8209 -66.8208 -66.7823 -66.7822 -66.7682 -66.7681 -66.7538 -66.7537
   -66.7383 -66.7383 -66.7348 -66.7347 -66.7243 -66.7242 -66.6964 -66.6963
   -33.0843 -33.0842 -33.0719 -33.0718 -33.0568 -33.0567 -33.0566 -33.0565
   -33.0333 -33.0331 -33.0192 -33.0192 -32.9771 -32.9770 -32.9376 -32.9375
   -32.8820 -32.8817 -32.8594 -32.8594 -32.8525 -32.8524 -32.8328 -32.8327
   -32.7983 -32.7981 -32.7775 -32.7772 -32.7500 -32.7500 -32.7183 -32.7183
   -32.7096 -32.7094 -32.6710 -32.6709 -32.6622 -32.6621 -32.6529 -32.6528
   -32.6481 -32.6480 -32.6239 -32.6238 -32.6050 -32.6048 -32.6026 -32.6024
    13.1760  13.1767  14.8342  14.8347  15.4603  15.4607  16.2895  16.2900
    16.3177  16.3180  16.3262  16.3264  16.3666  16.3670  16.4985  16.4991
    16.5018  16.5021  17.2355  17.2356  17.3076  17.3077  17.4861  17.4864
    17.5001  17.5005  17.5989  17.5991  17.7168  17.7169  17.9374  17.9375
    18.0760  18.0761  18.1088  18.1089  18.1129  18.1130  18.1612  18.1613
    18.2188  18.2188  18.2307  18.2308  18.2914  18.2915  19.3143  19.3144
    19.6879  19.6881  19.8319  19.8319  19.9187  19.9188  19.9635  19.9636
    20.0095  20.0097  20.0153  20.0155  20.3862  20.3866  20.3878  20.3879
    20.4241  20.4245  20.5171  20.5174  20.6085  20.6086  20.6164  20.6165
    20.7041  20.7042  20.7591  20.7591  20.8970  20.8971  21.0664  21.0664
    21.3265  21.3266  21.3814  21.3815  21.6923  21.6925  23.5761  23.5764
    23.8977  23.8980

          k =-0.4981 0.1667 0.3889 ( 11394 PWs)   bands (ev):

   -66.8137 -66.8136 -66.7939 -66.7939 -66.7653 -66.7652 -66.7579 -66.7578
   -66.7368 -66.7367 -66.7351 -66.7350 -66.7152 -66.7151 -66.7011 -66.7011
   -33.0798 -33.0797 -33.0621 -33.0620 -33.0525 -33.0524 -33.0517 -33.0516
   -33.0464 -33.0464 -33.0262 -33.0261 -32.9341 -32.9340 -32.9268 -32.9268
   -32.8923 -32.8921 -32.8859 -32.8858 -32.8741 -32.8740 -32.8420 -32.8418
   -32.8008 -32.8007 -32.7683 -32.7681 -32.7563 -32.7562 -32.7387 -32.7386
   -32.6950 -32.6950 -32.6612 -32.6611 -32.6592 -32.6592 -32.6535 -32.6534
   -32.6521 -32.6520 -32.6321 -32.6320 -32.5967 -32.5965 -32.5957 -32.5956
    13.5095  13.5102  14.3750  14.3755  15.7276  15.7280  16.2052  16.2056
    16.4123  16.4127  16.4186  16.4190  16.5367  16.5369  16.6161  16.6163
    16.7105  16.7110  17.2482  17.2486  17.3103  17.3106  17.3111  17.3112
    17.3168  17.3168  17.4880  17.4882  17.7417  17.7418  17.7703  17.7704
    17.8793  17.8793  17.9484  17.9485  17.9978  17.9978  18.0263  18.0264
    18.1830  18.1831  18.2234  18.2235  18.4068  18.4068  18.9665  18.9666
    19.8954  19.8954  19.9585  19.9586  20.0447  20.0448  20.0793  20.0794
    20.1011  20.1013  20.1014  20.1017  20.2189  20.2190  20.3187  20.3190
    20.3324  20.3327  20.4606  20.4610  20.4979  20.4980  20.5689  20.5690
    20.6340  20.6341  20.6811  20.6812  20.7841  20.7842  20.9182  20.9183
    21.4135  21.4137  21.4535  21.4535  22.1423  22.1425  23.0901  23.0904
    24.4140  24.4143

          k =-0.4981 0.1667-0.5000 ( 11372 PWs)   bands (ev):

   -66.8046 -66.8046 -66.8044 -66.8043 -66.7619 -66.7618 -66.7617 -66.7615
   -66.7359 -66.7358 -66.7357 -66.7355 -66.7075 -66.7075 -66.7073 -66.7072
   -33.0684 -33.0683 -33.0682 -33.0680 -33.0544 -33.0544 -33.0543 -33.0542
   -33.0356 -33.0355 -33.0354 -33.0354 -32.9088 -32.9088 -32.9086 -32.9085
   -32.8893 -32.8892 -32.8891 -32.8889 -32.8882 -32.8882 -32.8881 -32.8880
   -32.7692 -32.7692 -32.7692 -32.7691 -32.7621 -32.7620 -32.7619 -32.7617
   -32.6752 -32.6752 -32.6750 -32.6750 -32.6548 -32.6547 -32.6547 -32.6546
   -32.6425 -32.6424 -32.6424 -32.6423 -32.5935 -32.5934 -32.5933 -32.5931
    13.9198  13.9202  13.9204  13.9208  16.0035  16.0038  16.0038  16.0042
    16.4397  16.4399  16.4400  16.4405  16.6659  16.6661  16.6661  16.6663
    16.9725  16.9729  16.9729  16.9734  17.2469  17.2471  17.2472  17.2474
    17.3963  17.3965  17.3966  17.3966  17.7343  17.7344  17.7345  17.7345
    17.8644  17.8646  17.8646  17.8647  17.9426  17.9426  17.9426  17.9429
    18.1831  18.1832  18.1832  18.1833  18.6570  18.6570  18.6571  18.6572
    20.0342  20.0343  20.0344  20.0344  20.1044  20.1044  20.1046  20.1046
    20.2175  20.2176  20.2177  20.2180  20.2240  20.2242  20.2242  20.2244
    20.2552  20.2553  20.2554  20.2554  20.4444  20.4446  20.4446  20.4450
    20.6578  20.6579  20.6580  20.6582  20.8281  20.8281  20.8282  20.8283
    21.4632  21.4633  21.4634  21.4635  22.6129  22.6130  22.6131  22.6132
    24.9351  24.9352

          k =-0.4981 0.2778 0.2778 ( 11384 PWs)   bands (ev):

   -66.8161 -66.8160 -66.7796 -66.7796 -66.7796 -66.7794 -66.7597 -66.7597
   -66.7344 -66.7343 -66.7252 -66.7252 -66.7251 -66.7250 -66.6992 -66.6992
   -33.0724 -33.0723 -33.0723 -33.0722 -33.0474 -33.0473 -33.0459 -33.0459
   -33.0325 -33.0323 -32.9865 -32.9862 -32.9862 -32.9861 -32.9537 -32.9536
   -32.9122 -32.9120 -32.8855 -32.8855 -32.8855 -32.8854 -32.8290 -32.8289
   -32.8027 -32.8026 -32.7495 -32.7492 -32.7189 -32.7189 -32.7188 -32.7188
   -32.6932 -32.6929 -32.6928 -32.6928 -32.6633 -32.6633 -32.6534 -32.6533
   -32.6461 -32.6460 -32.6147 -32.6147 -32.6146 -32.6146 -32.6058 -32.6056
    13.4101  13.4108  15.0521  15.0523  15.0526  15.0527  16.1961  16.1966
    16.5001  16.5002  16.5004  16.5005  16.5224  16.5228  16.5482  16.5487
    16.6349  16.6352  17.2791  17.2793  17.3655  17.3655  17.4042  17.4044
    17.4047  17.4047  17.6456  17.6456  17.6457  17.6459  17.7086  17.7088
    17.9202  17.9204  17.9953  17.9954  17.9954  17.9955  18.0547  18.0548
    18.0549  18.0549  18.0872  18.0873  18.1254  18.1256  18.9432  18.9432
    19.9479  19.9479  20.0072  20.0074  20.0190  20.0190  20.0190  20.0191
    20.0695  20.0696  20.0697  20.0698  20.3815  20.3818  20.4213  20.4217
    20.4782  20.4786  20.5217  20.5219  20.5658  20.5659  20.6038  20.6039
    20.6039  20.6041  20.7782  20.7782  21.1680  21.1680  21.1680  21.1680
    21.2188  21.2189  21.2527  21.2528  21.2528  21.2529  23.0491  23.0493
    24.9647  24.9649

          k =-0.4981 0.2778 0.3889 ( 11384 PWs)   bands (ev):

   -66.8093 -66.8092 -66.7906 -66.7905 -66.7758 -66.7757 -66.7655 -66.7654
   -66.7311 -66.7310 -66.7265 -66.7264 -66.7167 -66.7166 -66.7037 -66.7036
   -33.0655 -33.0654 -33.0573 -33.0573 -33.0403 -33.0403 -33.0396 -33.0394
   -33.0309 -33.0309 -32.9993 -32.9992 -32.9546 -32.9546 -32.9482 -32.9481
   -32.9308 -32.9306 -32.9154 -32.9154 -32.9117 -32.9116 -32.8667 -32.8666
   -32.7728 -32.7727 -32.7307 -32.7305 -32.7199 -32.7199 -32.7175 -32.7174
   -32.6914 -32.6914 -32.6774 -32.6773 -32.6575 -32.6574 -32.6574 -32.6573
   -32.6529 -32.6529 -32.6286 -32.6285 -32.6096 -32.6094 -32.6070 -32.6069
    13.7435  13.7441  14.6029  14.6034  15.3517  15.3522  15.9968  15.9973
    16.5848  16.5852  16.5964  16.5967  16.7387  16.7389  16.7554  16.7559
    16.7933  16.7936  17.2410  17.2414  17.2673  17.2676  17.3466  17.3467
    17.3608  17.3609  17.5593  17.5595  17.5749  17.5750  17.7105  17.7106
    17.7561  17.7564  17.7659  17.7660  17.8943  17.8944  17.9374  17.9375
    17.9595  17.9595  18.0377  18.0378  18.1040  18.1040  18.5903  18.5904
    20.1085  20.1086  20.1363  20.1363  20.1371  20.1372  20.1588  20.1591
    20.1963  20.1964  20.2423  20.2424  20.3630  20.3634  20.3720  20.3723
    20.4351  20.4355  20.4693  20.4694  20.5024  20.5026  20.5547  20.5547
    20.5897  20.5898  20.7896  20.7896  20.8856  20.8856  20.9711  20.9711
    21.1970  21.1970  21.2222  21.2222  21.6710  21.6711  22.5710  22.5712
    25.4972  25.4975

          k =-0.4981 0.2778-0.5000 ( 11384 PWs)   bands (ev):

   -66.8007 -66.8007 -66.8005 -66.8004 -66.7711 -66.7710 -66.7708 -66.7707
   -66.7286 -66.7285 -66.7283 -66.7282 -66.7096 -66.7096 -66.7094 -66.7093
   -33.0532 -33.0531 -33.0530 -33.0528 -33.0440 -33.0440 -33.0439 -33.0438
   -33.0147 -33.0147 -33.0146 -33.0145 -32.9400 -32.9400 -32.9398 -32.9398
   -32.9301 -32.9300 -32.9299 -32.9297 -32.9075 -32.9075 -32.9075 -32.9073
   -32.7442 -32.7441 -32.7441 -32.7440 -32.7227 -32.7226 -32.7225 -32.7223
   -32.6689 -32.6688 -32.6687 -32.6687 -32.6655 -32.6654 -32.6654 -32.6653
   -32.6443 -32.6442 -32.6442 -32.6441 -32.6075 -32.6074 -32.6073 -32.6071
    14.1523  14.1526  14.1528  14.1533  15.6901  15.6905  15.6905  15.6909
    16.6151  16.6153  16.6154  16.6159  16.9026  16.9028  16.9028  16.9030
    17.0063  17.0067  17.0067  17.0072  17.2027  17.2030  17.2030  17.2033
    17.4663  17.4665  17.4666  17.4666  17.5988  17.5989  17.5990  17.5990
    17.7765  17.7765  17.7765  17.7768  17.8048  17.8050  17.8051  17.8051
    17.9796  17.9797  17.9797  17.9798  18.2951  18.2951  18.2952  18.2953
    20.1680  20.1680  20.1682  20.1683  20.2641  20.2643  20.2643  20.2646
    20.3035  20.3035  20.3036  20.3036  20.3200  20.3203  20.3203  20.3204
    20.4269  20.4271  20.4271  20.4275  20.5566  20.5567  20.5568  20.5568
    20.5708  20.5709  20.5710  20.5711  20.8403  20.8404  20.8404  20.8405
    21.2239  21.2239  21.2240  21.2241  22.1142  22.1143  22.1143  22.1145
    26.0271  26.0274

          k =-0.4981 0.3889 0.3889 ( 11402 PWs)   bands (ev):

   -66.8030 -66.8029 -66.7859 -66.7858 -66.7858 -66.7856 -66.7729 -66.7729
   -66.7262 -66.7261 -66.7190 -66.7190 -66.7189 -66.7188 -66.7075 -66.7074
   -33.0456 -33.0455 -33.0455 -33.0454 -33.0272 -33.0270 -33.0258 -33.0257
   -33.0111 -33.0111 -32.9757 -32.9756 -32.9676 -32.9674 -32.9673 -32.9673
   -32.9620 -32.9618 -32.9455 -32.9455 -32.9455 -32.9454 -32.8982 -32.8981
   -32.7452 -32.7451 -32.7000 -32.6998 -32.6973 -32.6970 -32.6969 -32.6969
   -32.6877 -32.6876 -32.6876 -32.6875 -32.6667 -32.6666 -32.6592 -32.6592
   -32.6502 -32.6501 -32.6280 -32.6280 -32.6279 -32.6278 -32.6211 -32.6209
    14.0758  14.0764  14.9221  14.9223  14.9227  14.9227  15.6819  15.6824
    16.7907  16.7912  16.8289  16.8293  16.8518  16.8519  16.8521  16.8523
    16.9857  16.9860  17.2152  17.2154  17.2157  17.2157  17.3918  17.3919
    17.4291  17.4292  17.4974  17.4978  17.5207  17.5209  17.6349  17.6350
    17.6350  17.6352  17.7329  17.7331  17.7331  17.7331  17.8032  17.8033
    17.8034  17.8034  17.8575  17.8576  17.8631  17.8633  18.2284  18.2284
    20.1988  20.1989  20.2206  20.2207  20.2208  20.2209  20.3487  20.3487
    20.3488  20.3488  20.3766  20.3770  20.3955  20.3959  20.4539  20.4542
    20.4793  20.4793  20.4867  20.4867  20.4868  20.4869  20.5698  20.5699
    20.6160  20.6161  20.7680  20.7681  20.9813  20.9813  20.9814  20.9814
    20.9910  20.9911  21.2721  21.2723  21.2723  21.2724  22.1131  22.1132
    26.6630  26.6633

          k =-0.4981 0.3889-0.5000 ( 11412 PWs)   bands (ev):

   -66.7951 -66.7951 -66.7949 -66.7948 -66.7799 -66.7799 -66.7797 -66.7796
   -66.7222 -66.7222 -66.7220 -66.7219 -66.7128 -66.7127 -66.7125 -66.7124
   -33.0309 -33.0309 -33.0307 -33.0305 -33.0260 -33.0260 -33.0258 -33.0258
   -32.9892 -32.9891 -32.9891 -32.9890 -32.9717 -32.9717 -32.9716 -32.9715
   -32.9681 -32.9681 -32.9679 -32.9678 -32.9329 -32.9328 -32.9328 -32.9327
   -32.7199 -32.7198 -32.7198 -32.7197 -32.6863 -32.6862 -32.6860 -32.6859
   -32.6799 -32.6798 -32.6798 -32.6797 -32.6618 -32.6617 -32.6616 -32.6616
   -32.6487 -32.6486 -32.6485 -32.6485 -32.6281 -32.6280 -32.6279 -32.6277
    14.4809  14.4813  14.4814  14.4819  15.2998  15.3002  15.3003  15.3007
    16.8539  16.8541  16.8542  16.8547  17.0516  17.0519  17.0520  17.0524
    17.1367  17.1369  17.1369  17.1372  17.1555  17.1558  17.1558  17.1562
    17.5452  17.5453  17.5454  17.5455  17.5627  17.5628  17.5628  17.5630
    17.5644  17.5644  17.5645  17.5646  17.7254  17.7256  17.7257  17.7258
    17.7811  17.7811  17.7812  17.7812  17.9320  17.9320  17.9321  17.9321
    20.2551  20.2552  20.2554  20.2554  20.3149  20.3151  20.3151  20.3154
    20.3995  20.3997  20.3997  20.4001  20.4680  20.4681  20.4683  20.4684
    20.4773  20.4775  20.4775  20.4776  20.5332  20.5333  20.5333  20.5333
    20.8028  20.8029  20.8029  20.8030  20.9106  20.9106  20.9107  20.9108
    20.9516  20.9517  20.9518  20.9518  21.6845  21.6846  21.6846  21.6847
    27.2187  27.2191

          k =-0.4981-0.5000-0.5000 ( 11376 PWs)   bands (ev):

   -66.7883 -66.7881 -66.7880 -66.7879 -66.7879 -66.7878 -66.7877 -66.7877
   -66.7171 -66.7169 -66.7168 -66.7167 -66.7167 -66.7166 -66.7165 -66.7165
   -33.0027 -33.0026 -33.0026 -33.0024 -33.0023 -33.0023 -33.0022 -33.0020
   -33.0005 -33.0004 -33.0003 -33.0003 -33.0003 -33.0003 -33.0002 -33.0002
   -32.9612 -32.9612 -32.9610 -32.9610 -32.9609 -32.9608 -32.9608 -32.9607
   -32.6980 -32.6980 -32.6978 -32.6978 -32.6977 -32.6977 -32.6976 -32.6976
   -32.6549 -32.6549 -32.6549 -32.6548 -32.6547 -32.6547 -32.6547 -32.6547
   -32.6546 -32.6545 -32.6545 -32.6544 -32.6543 -32.6542 -32.6542 -32.6540
    14.8778  14.8779  14.8781  14.8782  14.8784  14.8785  14.8787  14.8790
    17.1000  17.1000  17.1001  17.1002  17.1005  17.1005  17.1006  17.1010
    17.1112  17.1114  17.1114  17.1115  17.1116  17.1119  17.1120  17.1122
    17.6150  17.6150  17.6151  17.6152  17.6152  17.6152  17.6152  17.6154
    17.6257  17.6260  17.6261  17.6261  17.6261  17.6262  17.6262  17.6264
    17.6412  17.6413  17.6413  17.6413  17.6414  17.6415  17.6416  17.6417
    20.3573  20.3576  20.3577  20.3577  20.3578  20.3579  20.3579  20.3579
    20.3627  20.3627  20.3629  20.3630  20.3631  20.3632  20.3633  20.3634
    20.6886  20.6888  20.6888  20.6888  20.6888  20.6890  20.6891  20.6891
    20.7063  20.7064  20.7065  20.7065  20.7066  20.7066  20.7066  20.7067
    21.2883  21.2883  21.2883  21.2883  21.2885  21.2885  21.2885  21.2886
    28.3510  28.3516

     the Fermi energy is    20.4267 ev

!    total energy              =   -5267.70862027 Ry
     Harris-Foulkes estimate   =   -5267.70862967 Ry
     estimated scf accuracy    <       0.00001203 Ry

     total all-electron energy =    -40728.453149 Ry

     The total energy is the sum of the following terms:

     one-electron contribution =   -1625.55455382 Ry
     hartree contribution      =     991.02143435 Ry
     xc contribution           =    -442.91265754 Ry
     ewald contribution        =   -2865.37229040 Ry
     one-center paw contrib.   =   -1324.75874211 Ry
     smearing contrib. (-TS)   =      -0.13181074 Ry

     convergence has been achieved in  13 iterations

     Forces acting on atoms (cartesian axes, Ry/au):

     atom    1 type  1   force =     0.00000000    0.00000000    0.00000000
     atom    2 type  1   force =     0.00028942   -0.00022580   -0.00022580
     atom    3 type  1   force =     0.00000000    0.00000000    0.00000000
     atom    4 type  1   force =     0.00028942   -0.00022580    0.00022580
     atom    5 type  1   force =     0.00000000    0.00000000    0.00000000
     atom    6 type  1   force =     0.00028942    0.00022580   -0.00022580
     atom    7 type  1   force =     0.00000000    0.00000000   -0.00000000
     atom    8 type  1   force =     0.00028942    0.00022580    0.00022580
     atom    9 type  1   force =     0.00000000    0.00000000   -0.00000000
     atom   10 type  1   force =    -0.00028942   -0.00022580   -0.00022580
     atom   11 type  1   force =     0.00000000    0.00000000    0.00000000
     atom   12 type  1   force =    -0.00028942   -0.00022580    0.00022580
     atom   13 type  1   force =     0.00000000    0.00000000   -0.00000000
     atom   14 type  1   force =    -0.00028942    0.00022580   -0.00022580
     atom   15 type  1   force =     0.00000000    0.00000000    0.00000000
     atom   16 type  1   force =    -0.00028942    0.00022580    0.00022580

     Total force =     0.001219     Total SCF correction =     0.009051
     SCF correction compared to forces is large: reduce conv_thr to get better values


     Computing stress (Cartesian axis) and pressure

          total   stress  (Ry/bohr**3)                   (kbar)     P=  -29.30
  -0.00016121   0.00000000   0.00000000        -23.72      0.00      0.00
   0.00000000  -0.00021811   0.00000000          0.00    -32.09      0.00
   0.00000000   0.00000000  -0.00021811          0.00      0.00    -32.09


     Writing output data file UOLwHMDdkRuUFXCz.save/
 
     init_run     :      6.51s CPU      6.84s WALL (       1 calls)
     electrons    :    291.90s CPU    301.46s WALL (       1 calls)
     forces       :      2.25s CPU      2.47s WALL (       1 calls)
     stress       :      5.99s CPU      6.08s WALL (       1 calls)

     Called by init_run:
     wfcinit      :      6.16s CPU      6.44s WALL (       1 calls)
     potinit      :      0.11s CPU      0.14s WALL (       1 calls)
     hinit0       :      0.16s CPU      0.17s WALL (       1 calls)

     Called by electrons:
     c_bands      :    262.18s CPU    269.85s WALL (      14 calls)
     sum_band     :     28.38s CPU     29.96s WALL (      14 calls)
     v_of_rho     :      0.17s CPU      0.30s WALL (      14 calls)
     newd         :      0.20s CPU      0.26s WALL (      14 calls)
     PAW_pot      :      0.98s CPU      1.05s WALL (      14 calls)
     mix_rho      :      0.05s CPU      0.08s WALL (      14 calls)

     Called by c_bands:
     init_us_2    :      1.52s CPU      1.54s WALL (    2325 calls)
     cegterg      :    254.94s CPU    262.53s WALL (    1050 calls)

     Called by sum_band:
     sum_band:bec :      0.42s CPU      0.43s WALL (    1050 calls)
     addusdens    :      0.21s CPU      0.26s WALL (      14 calls)

     Called by *egterg:
     h_psi        :    112.14s CPU    116.95s WALL (    3343 calls)
     s_psi        :      6.09s CPU      6.13s WALL (    3343 calls)
     g_psi        :      0.24s CPU      0.25s WALL (    2218 calls)
     cdiaghg      :    112.66s CPU    112.98s WALL (    3193 calls)

     Called by h_psi:
     h_psi:pot    :    111.53s CPU    116.33s WALL (    3343 calls)
     h_psi:calbec :      9.11s CPU     10.64s WALL (    3343 calls)
     vloc_psi     :     96.24s CPU     99.48s WALL (    3343 calls)
     add_vuspsi   :      6.15s CPU      6.20s WALL (    3343 calls)

     General routines
     calbec       :     14.52s CPU     17.04s WALL (    4768 calls)
     fft          :      0.21s CPU      0.44s WALL (     207 calls)
     ffts         :      0.04s CPU      0.09s WALL (      28 calls)
     fftw         :    112.12s CPU    115.84s WALL (  874304 calls)
     interpolate  :      0.02s CPU      0.05s WALL (      14 calls)
 
     Parallel routines
     fft_scatt_xy :      7.71s CPU      7.95s WALL (  874539 calls)
     fft_scatt_yz :     74.80s CPU     77.57s WALL (  874539 calls)
 
     PWSCF        :  5m11.91s CPU     5m29.80s WALL

 
   This run was terminated on:   6:58:10   5Sep2020            

=------------------------------------------------------------------------------=
   JOB DONE.
=------------------------------------------------------------------------------=
