--------------------------------------------------------------------------
WARNING: There was an error initializing an OpenFabrics device.

  Local host:   bear-pg0211u07b
  Local device: mlx5_0
--------------------------------------------------------------------------

     Program PWSCF v.6.3 starts on  5Sep2020 at  6:32: 3 

     This program is part of the open-source Quantum ESPRESSO suite
     for quantum simulation of materials; please cite
         "P. Giannozzi et al., J. Phys.:Condens. Matter 21 395502 (2009);
         "P. Giannozzi et al., J. Phys.:Condens. Matter 29 465901 (2017);
          URL http://www.quantum-espresso.org", 
     in publications or presentations arising from this work. More details at
     http://www.quantum-espresso.org/quote

     Parallel version (MPI & OpenMP), running on      40 processor cores
     Number of MPI processes:                40
     Threads/MPI process:                     1

     MPI processes distributed on     1 nodes
     R & G space division:  proc/nbgrp/npool/nimage =      40
     Reading input from wd/ec/ec_1_003.in
Warning: card &IONS ignored
Warning: card ION_DYNAMICS = 'BFGS', ignored
Warning: card / ignored
Warning: card &CELL ignored
Warning: card CELL_DYNAMICS = 'BFGS', ignored
Warning: card CELL_FACTOR = 2.0, ignored
Warning: card PRESS = 0.0, ignored
Warning: card / ignored

     Current dimensions of program PWSCF are:
     Max number of different atomic species (ntypx) = 10
     Max number of k-points (npk) =  40000
     Max angular momentum in pseudopotentials (lmaxx) =  3
               file Fe.pbe-spn-kjpaw_psl.1.0.0.UPF: wavefunction(s)  3P 3D renormalized

     Subspace diagonalization in iterative solution of the eigenvalue problem:
     a serial algorithm will be used

 
     Parallelization info
     --------------------
     sticks:   dense  smooth     PW     G-vecs:    dense   smooth      PW
     Min          92      61     17                 4228     2271     339
     Max          93      62     18                 4233     2273     343
     Sum        3705    2445    681               169205    90871   13613
 


     bravais-lattice index     =            0
     lattice parameter (alat)  =      10.3915  a.u.
     unit-cell volume          =    1123.4999 (a.u.)^3
     number of atoms/cell      =           16
     number of atomic types    =            1
     number of electrons       =       256.00
     number of Kohn-Sham states=          154
     kinetic-energy cutoff     =      71.0000  Ry
     charge density cutoff     =     430.0000  Ry
     convergence threshold     =      5.0E-05
     mixing beta               =       0.1000
     number of iterations used =           10  plain     mixing
     Exchange-correlation      = SLA PW PBX PBC ( 1  4  3  4 0 0)

     celldm(1)=  10.391466  celldm(2)=   0.000000  celldm(3)=   0.000000
     celldm(4)=   0.000000  celldm(5)=   0.000000  celldm(6)=   0.000000

     crystal axes: (cart. coord. in units of alat)
               a(1) = (   1.001250   0.000000   0.000000 )  
               a(2) = (   0.000000   1.000000   0.000000 )  
               a(3) = (   0.000000   0.000000   1.000000 )  

     reciprocal axes: (cart. coord. in units 2 pi/alat)
               b(1) = (  0.998752  0.000000  0.000000 )  
               b(2) = (  0.000000  1.000000  0.000000 )  
               b(3) = (  0.000000  0.000000  1.000000 )  


     PseudoPot. # 1 for Fe read from file:
     /rds/homes/b/bxp912/pp/Fe.pbe-spn-kjpaw_psl.1.0.0.UPF
     MD5 check sum: 42f43b795421b414b0dc916aa790dbcb
     Pseudo is Projector augmented-wave + core cor, Zval = 16.0
     Generated using "atomic" code by A. Dal Corso v.6.3
     Shape of augmentation charge: PSQ
     Using radial grid of 1191 points,  6 beta functions with: 
                l(1) =   0
                l(2) =   0
                l(3) =   1
                l(4) =   1
                l(5) =   2
                l(6) =   2
     Q(r) pseudized with 0 coefficients 


     atomic species   valence    mass     pseudopotential
        Fe            16.00    55.84500     Fe( 1.00)

     16 Sym. Ops., with inversion, found



   Cartesian axes

     site n.     atom                  positions (alat units)
         1           Fe  tau(   1) = (   0.0000000   0.0000000   0.0000000  )
         2           Fe  tau(   2) = (   0.2503214   0.2500089   0.2500089  )
         3           Fe  tau(   3) = (   0.0000000   0.0000000   0.4999995  )
         4           Fe  tau(   4) = (   0.2503214   0.2500089   0.7499911  )
         5           Fe  tau(   5) = (   0.0000000   0.5000001   0.0000000  )
         6           Fe  tau(   6) = (   0.2503214   0.7499912   0.2500089  )
         7           Fe  tau(   7) = (   0.0000000   0.5000001   0.4999995  )
         8           Fe  tau(   8) = (   0.2503214   0.7499912   0.7499911  )
         9           Fe  tau(   9) = (   0.5006251   0.0000000   0.0000000  )
        10           Fe  tau(  10) = (   0.7509287   0.2500089   0.2500089  )
        11           Fe  tau(  11) = (   0.5006251   0.0000000   0.4999995  )
        12           Fe  tau(  12) = (   0.7509287   0.2500089   0.7499911  )
        13           Fe  tau(  13) = (   0.5006251   0.5000001   0.0000000  )
        14           Fe  tau(  14) = (   0.7509287   0.7499912   0.2500089  )
        15           Fe  tau(  15) = (   0.5006251   0.5000001   0.4999995  )
        16           Fe  tau(  16) = (   0.7509287   0.7499912   0.7499911  )

     number of k points=    75  Marzari-Vanderbilt smearing, width (Ry)=  0.0400
                       cart. coord. in units 2pi/alat
        k(    1) = (   0.0554862   0.0555556   0.0555556), wk =   0.0219479
        k(    2) = (   0.0554862   0.0555556   0.1666667), wk =   0.0438957
        k(    3) = (   0.0554862   0.0555556   0.2777778), wk =   0.0438957
        k(    4) = (   0.0554862   0.0555556   0.3888889), wk =   0.0438957
        k(    5) = (   0.0554862   0.0555556  -0.5000000), wk =   0.0219479
        k(    6) = (   0.0554862   0.1666667   0.1666667), wk =   0.0219479
        k(    7) = (   0.0554862   0.1666667   0.2777778), wk =   0.0438957
        k(    8) = (   0.0554862   0.1666667   0.3888889), wk =   0.0438957
        k(    9) = (   0.0554862   0.1666667  -0.5000000), wk =   0.0219479
        k(   10) = (   0.0554862   0.2777778   0.2777778), wk =   0.0219479
        k(   11) = (   0.0554862   0.2777778   0.3888889), wk =   0.0438957
        k(   12) = (   0.0554862   0.2777778  -0.5000000), wk =   0.0219479
        k(   13) = (   0.0554862   0.3888889   0.3888889), wk =   0.0219479
        k(   14) = (   0.0554862   0.3888889  -0.5000000), wk =   0.0219479
        k(   15) = (   0.0554862  -0.5000000  -0.5000000), wk =   0.0054870
        k(   16) = (   0.1664586   0.0555556   0.0555556), wk =   0.0219479
        k(   17) = (   0.1664586   0.0555556   0.1666667), wk =   0.0438957
        k(   18) = (   0.1664586   0.0555556   0.2777778), wk =   0.0438957
        k(   19) = (   0.1664586   0.0555556   0.3888889), wk =   0.0438957
        k(   20) = (   0.1664586   0.0555556  -0.5000000), wk =   0.0219479
        k(   21) = (   0.1664586   0.1666667   0.1666667), wk =   0.0219479
        k(   22) = (   0.1664586   0.1666667   0.2777778), wk =   0.0438957
        k(   23) = (   0.1664586   0.1666667   0.3888889), wk =   0.0438957
        k(   24) = (   0.1664586   0.1666667  -0.5000000), wk =   0.0219479
        k(   25) = (   0.1664586   0.2777778   0.2777778), wk =   0.0219479
        k(   26) = (   0.1664586   0.2777778   0.3888889), wk =   0.0438957
        k(   27) = (   0.1664586   0.2777778  -0.5000000), wk =   0.0219479
        k(   28) = (   0.1664586   0.3888889   0.3888889), wk =   0.0219479
        k(   29) = (   0.1664586   0.3888889  -0.5000000), wk =   0.0219479
        k(   30) = (   0.1664586  -0.5000000  -0.5000000), wk =   0.0054870
        k(   31) = (   0.2774310   0.0555556   0.0555556), wk =   0.0219479
        k(   32) = (   0.2774310   0.0555556   0.1666667), wk =   0.0438957
        k(   33) = (   0.2774310   0.0555556   0.2777778), wk =   0.0438957
        k(   34) = (   0.2774310   0.0555556   0.3888889), wk =   0.0438957
        k(   35) = (   0.2774310   0.0555556  -0.5000000), wk =   0.0219479
        k(   36) = (   0.2774310   0.1666667   0.1666667), wk =   0.0219479
        k(   37) = (   0.2774310   0.1666667   0.2777778), wk =   0.0438957
        k(   38) = (   0.2774310   0.1666667   0.3888889), wk =   0.0438957
        k(   39) = (   0.2774310   0.1666667  -0.5000000), wk =   0.0219479
        k(   40) = (   0.2774310   0.2777778   0.2777778), wk =   0.0219479
        k(   41) = (   0.2774310   0.2777778   0.3888889), wk =   0.0438957
        k(   42) = (   0.2774310   0.2777778  -0.5000000), wk =   0.0219479
        k(   43) = (   0.2774310   0.3888889   0.3888889), wk =   0.0219479
        k(   44) = (   0.2774310   0.3888889  -0.5000000), wk =   0.0219479
        k(   45) = (   0.2774310  -0.5000000  -0.5000000), wk =   0.0054870
        k(   46) = (   0.3884034   0.0555556   0.0555556), wk =   0.0219479
        k(   47) = (   0.3884034   0.0555556   0.1666667), wk =   0.0438957
        k(   48) = (   0.3884034   0.0555556   0.2777778), wk =   0.0438957
        k(   49) = (   0.3884034   0.0555556   0.3888889), wk =   0.0438957
        k(   50) = (   0.3884034   0.0555556  -0.5000000), wk =   0.0219479
        k(   51) = (   0.3884034   0.1666667   0.1666667), wk =   0.0219479
        k(   52) = (   0.3884034   0.1666667   0.2777778), wk =   0.0438957
        k(   53) = (   0.3884034   0.1666667   0.3888889), wk =   0.0438957
        k(   54) = (   0.3884034   0.1666667  -0.5000000), wk =   0.0219479
        k(   55) = (   0.3884034   0.2777778   0.2777778), wk =   0.0219479
        k(   56) = (   0.3884034   0.2777778   0.3888889), wk =   0.0438957
        k(   57) = (   0.3884034   0.2777778  -0.5000000), wk =   0.0219479
        k(   58) = (   0.3884034   0.3888889   0.3888889), wk =   0.0219479
        k(   59) = (   0.3884034   0.3888889  -0.5000000), wk =   0.0219479
        k(   60) = (   0.3884034  -0.5000000  -0.5000000), wk =   0.0054870
        k(   61) = (  -0.4993758   0.0555556   0.0555556), wk =   0.0109739
        k(   62) = (  -0.4993758   0.0555556   0.1666667), wk =   0.0219479
        k(   63) = (  -0.4993758   0.0555556   0.2777778), wk =   0.0219479
        k(   64) = (  -0.4993758   0.0555556   0.3888889), wk =   0.0219479
        k(   65) = (  -0.4993758   0.0555556  -0.5000000), wk =   0.0109739
        k(   66) = (  -0.4993758   0.1666667   0.1666667), wk =   0.0109739
        k(   67) = (  -0.4993758   0.1666667   0.2777778), wk =   0.0219479
        k(   68) = (  -0.4993758   0.1666667   0.3888889), wk =   0.0219479
        k(   69) = (  -0.4993758   0.1666667  -0.5000000), wk =   0.0109739
        k(   70) = (  -0.4993758   0.2777778   0.2777778), wk =   0.0109739
        k(   71) = (  -0.4993758   0.2777778   0.3888889), wk =   0.0219479
        k(   72) = (  -0.4993758   0.2777778  -0.5000000), wk =   0.0109739
        k(   73) = (  -0.4993758   0.3888889   0.3888889), wk =   0.0109739
        k(   74) = (  -0.4993758   0.3888889  -0.5000000), wk =   0.0109739
        k(   75) = (  -0.4993758  -0.5000000  -0.5000000), wk =   0.0027435

     Dense  grid:   169205 G-vectors     FFT dimensions: (  72,  72,  72)

     Smooth grid:    90871 G-vectors     FFT dimensions: (  60,  60,  60)

     Estimated max dynamical RAM per process >      83.28 MB

     Estimated total dynamical RAM >       3.25 GB

     Check: negative/imaginary core charge=   -0.000006    0.000000

     Initial potential from superposition of free atoms

     starting charge  255.99300, renormalised to  256.00000
     Starting wfcs are  160 randomized atomic wfcs
     Checking if some PAW data can be deallocated... 

     total cpu time spent up to now is        7.5 secs

     Self-consistent Calculation

     iteration #  1     ecut=    71.00 Ry     beta= 0.10
     Davidson diagonalization with overlap
     ethr =  1.00E-02,  avg # of iterations =  3.4

     Threshold (ethr) on eigenvalues was too large:
     Diagonalizing with lowered threshold

     Davidson diagonalization with overlap
     ethr =  2.54E-04,  avg # of iterations =  3.1

     total cpu time spent up to now is       61.5 secs

     total energy              =   -5267.75192033 Ry
     Harris-Foulkes estimate   =   -5267.86730530 Ry
     estimated scf accuracy    <       0.73202154 Ry

     iteration #  2     ecut=    71.00 Ry     beta= 0.10
     Davidson diagonalization with overlap
     ethr =  2.86E-04,  avg # of iterations =  1.0

     total cpu time spent up to now is       78.2 secs

     total energy              =   -5267.61687920 Ry
     Harris-Foulkes estimate   =   -5267.76716016 Ry
     estimated scf accuracy    <       0.36237429 Ry

     iteration #  3     ecut=    71.00 Ry     beta= 0.10
     Davidson diagonalization with overlap
     ethr =  1.42E-04,  avg # of iterations =  3.2

     total cpu time spent up to now is      108.7 secs

     total energy              =   -5267.70083933 Ry
     Harris-Foulkes estimate   =   -5267.72062449 Ry
     estimated scf accuracy    <       0.45579926 Ry

     iteration #  4     ecut=    71.00 Ry     beta= 0.10
     Davidson diagonalization with overlap
     ethr =  1.42E-04,  avg # of iterations =  1.0

     total cpu time spent up to now is      125.0 secs

     total energy              =   -5267.70486258 Ry
     Harris-Foulkes estimate   =   -5267.71120285 Ry
     estimated scf accuracy    <       0.02917054 Ry

     iteration #  5     ecut=    71.00 Ry     beta= 0.10
     Davidson diagonalization with overlap
     ethr =  1.14E-05,  avg # of iterations =  2.2

     total cpu time spent up to now is      146.5 secs

     total energy              =   -5267.70542199 Ry
     Harris-Foulkes estimate   =   -5267.70729448 Ry
     estimated scf accuracy    <       0.02210937 Ry

     iteration #  6     ecut=    71.00 Ry     beta= 0.10
     Davidson diagonalization with overlap
     ethr =  8.64E-06,  avg # of iterations =  2.7

     total cpu time spent up to now is      170.8 secs

     total energy              =   -5267.70788834 Ry
     Harris-Foulkes estimate   =   -5267.70749110 Ry
     estimated scf accuracy    <       0.01144842 Ry

     iteration #  7     ecut=    71.00 Ry     beta= 0.10
     Davidson diagonalization with overlap
     ethr =  4.47E-06,  avg # of iterations =  1.2

     total cpu time spent up to now is      188.0 secs

     total energy              =   -5267.70702212 Ry
     Harris-Foulkes estimate   =   -5267.70824041 Ry
     estimated scf accuracy    <       0.01203221 Ry

     iteration #  8     ecut=    71.00 Ry     beta= 0.10
     Davidson diagonalization with overlap
     ethr =  4.47E-06,  avg # of iterations =  1.0

     total cpu time spent up to now is      204.6 secs

     total energy              =   -5267.70747979 Ry
     Harris-Foulkes estimate   =   -5267.70772123 Ry
     estimated scf accuracy    <       0.00474823 Ry

     iteration #  9     ecut=    71.00 Ry     beta= 0.10
     Davidson diagonalization with overlap
     ethr =  1.85E-06,  avg # of iterations =  2.3

     total cpu time spent up to now is      225.7 secs

     total energy              =   -5267.70767992 Ry
     Harris-Foulkes estimate   =   -5267.70770681 Ry
     estimated scf accuracy    <       0.00041586 Ry

     iteration # 10     ecut=    71.00 Ry     beta= 0.10
     Davidson diagonalization with overlap
     ethr =  1.62E-07,  avg # of iterations =  2.4

     total cpu time spent up to now is      247.5 secs

     total energy              =   -5267.70770484 Ry
     Harris-Foulkes estimate   =   -5267.70771039 Ry
     estimated scf accuracy    <       0.00017303 Ry

     iteration # 11     ecut=    71.00 Ry     beta= 0.10
     Davidson diagonalization with overlap
     ethr =  6.76E-08,  avg # of iterations =  1.0

     total cpu time spent up to now is      263.8 secs

     total energy              =   -5267.70768007 Ry
     Harris-Foulkes estimate   =   -5267.70770944 Ry
     estimated scf accuracy    <       0.00016537 Ry

     iteration # 12     ecut=    71.00 Ry     beta= 0.10
     Davidson diagonalization with overlap
     ethr =  6.46E-08,  avg # of iterations =  2.5

     total cpu time spent up to now is      286.7 secs

     End of self-consistent calculation

          k = 0.0555 0.0556 0.0556 ( 11293 PWs)   bands (ev):

   -66.8061 -66.7071 -66.7070 -66.7063 -66.6908 -66.6903 -66.6899 -66.6895
   -66.6894 -66.6890 -66.6888 -66.6887 -66.6883 -66.6814 -66.6811 -66.6052
   -33.1028 -33.1024 -33.1022 -33.0997 -33.0993 -33.0991 -32.9353 -32.9339
   -32.9284 -32.8588 -32.8559 -32.8556 -32.8554 -32.8341 -32.8340 -32.8206
   -32.8205 -32.8203 -32.7831 -32.7831 -32.7587 -32.7429 -32.7423 -32.7421
   -32.7312 -32.7310 -32.7307 -32.7182 -32.7172 -32.7170 -32.7148 -32.7140
   -32.7138 -32.7069 -32.7064 -32.7062 -32.6961 -32.6956 -32.6953 -32.5319
   -32.5304 -32.5303 -32.5298 -32.5273 -32.5270 -32.5266 -32.5253 -32.5250
    11.4419  15.3232  15.3307  15.3309  15.4532  15.4536  15.4536  15.4792
    15.4797  15.4797  15.7217  15.7253  15.8361  15.8439  15.8440  17.2165
    17.3053  17.3072  17.3089  17.3195  17.3198  17.3227  17.3334  17.3337
    17.4455  17.4496  17.4943  17.7480  17.7506  17.7510  18.1421  18.1453
    18.1457  18.6265  18.6320  18.6773  18.9542  18.9547  18.9592  19.0588
    19.0592  19.0631  19.1461  19.1462  19.1515  19.2414  19.2417  19.2467
    19.9899  19.9901  19.9936  20.2091  20.2094  20.2163  20.2405  20.2409
    20.2435  20.3783  20.3784  20.3807  20.3808  20.3879  20.3899  20.4116
    20.4206  20.6600  20.6604  20.6707  20.6773  20.6777  20.6818  20.7221
    20.7225  20.7273  20.7277  21.2084  21.2087  21.2163  21.4388  21.4792
    21.4922  21.4924  21.5171  21.5184  21.9448  21.9451  21.9469  21.9577
    21.9747  21.9747

          k = 0.0555 0.0556 0.1667 ( 11331 PWs)   bands (ev):

   -66.8025 -66.7246 -66.7062 -66.7059 -66.6925 -66.6922 -66.6898 -66.6892
   -66.6889 -66.6884 -66.6878 -66.6875 -66.6820 -66.6816 -66.6724 -66.6079
   -33.0947 -33.0942 -33.0934 -33.0906 -33.0856 -33.0853 -32.9380 -32.9287
   -32.9186 -32.8957 -32.8870 -32.8870 -32.8847 -32.8841 -32.8529 -32.8529
   -32.8178 -32.7901 -32.7800 -32.7784 -32.7662 -32.7429 -32.7420 -32.7338
   -32.7233 -32.7220 -32.7210 -32.7206 -32.7194 -32.7122 -32.7112 -32.7076
   -32.7068 -32.7027 -32.7026 -32.6718 -32.6688 -32.6685 -32.6618 -32.5469
   -32.5399 -32.5396 -32.5380 -32.5353 -32.5310 -32.5304 -32.5301 -32.5277
    11.5799  14.6988  15.3803  15.3875  15.4639  15.4640  15.5440  15.5442
    15.5546  15.5793  15.7859  15.7888  15.8802  15.8876  16.1794  17.1081
    17.2181  17.2285  17.3013  17.3137  17.3421  17.3585  17.3594  17.3701
    17.4008  17.4115  17.6349  17.6467  17.7029  17.7053  18.0435  18.0462
    18.4985  18.6029  18.6266  18.7369  18.7386  18.7447  18.8054  18.9172
    18.9251  18.9649  19.2387  19.2392  19.3549  19.3559  19.3815  19.4822
    19.6749  19.6811  19.7451  19.9676  19.9685  19.9752  20.1271  20.2199
    20.2231  20.3176  20.3272  20.3447  20.4004  20.4005  20.4112  20.4266
    20.4441  20.4637  20.4662  20.4897  20.6802  20.7037  20.7040  20.7216
    20.7219  20.8958  21.0050  21.0113  21.1782  21.2641  21.3776  21.4878
    21.5005  21.5105  21.5444  21.5501  21.8483  21.8500  22.0035  22.0199
    22.1080  22.1133

          k = 0.0555 0.0556 0.2778 ( 11335 PWs)   bands (ev):

   -66.7957 -66.7419 -66.7047 -66.7044 -66.6949 -66.6946 -66.6889 -66.6887
   -66.6884 -66.6876 -66.6873 -66.6869 -66.6831 -66.6824 -66.6567 -66.6130
   -33.0762 -33.0758 -33.0754 -33.0733 -33.0616 -33.0613 -32.9389 -32.9378
   -32.9322 -32.9286 -32.9285 -32.9160 -32.9066 -32.9039 -32.8972 -32.8972
   -32.8128 -32.8025 -32.8003 -32.7849 -32.7408 -32.7399 -32.7354 -32.7344
   -32.7298 -32.7259 -32.7249 -32.7103 -32.7094 -32.7077 -32.7067 -32.6873
   -32.6796 -32.6675 -32.6673 -32.6388 -32.6355 -32.6352 -32.6295 -32.5727
   -32.5553 -32.5550 -32.5535 -32.5518 -32.5426 -32.5399 -32.5396 -32.5373
    11.8518  14.0212  15.4686  15.4749  15.5010  15.5015  15.6423  15.6424
    15.7485  15.7703  15.9033  15.9164  15.9322  15.9383  16.3239  16.9463
    16.9868  16.9930  17.1766  17.2257  17.2684  17.2788  17.4720  17.4825
    17.5407  17.5511  17.6943  17.6966  17.8874  17.9092  17.9752  17.9776
    18.4464  18.4548  18.5868  18.6082  18.6169  18.6195  18.6525  18.6988
    18.8309  19.1001  19.1112  19.1170  19.3273  19.3338  19.4968  19.4993
    19.5132  19.5351  19.5354  19.5369  19.5815  19.6610  19.7719  20.2002
    20.2182  20.2271  20.3161  20.3255  20.4386  20.4526  20.5013  20.5238
    20.5263  20.6632  20.6643  20.6857  20.7162  20.7181  20.7296  20.7573
    20.7591  20.7676  20.9678  21.0002  21.1265  21.1994  21.2058  21.4381
    21.5036  21.5154  21.5997  21.6026  21.7208  21.7227  22.0864  22.1017
    22.2398  22.2484

          k = 0.0555 0.0556 0.3889 ( 11345 PWs)   bands (ev):

   -66.7859 -66.7584 -66.7026 -66.7023 -66.6975 -66.6971 -66.6882 -66.6879
   -66.6878 -66.6873 -66.6870 -66.6862 -66.6845 -66.6836 -66.6427 -66.6206
   -33.0496 -33.0486 -33.0481 -33.0478 -33.0283 -33.0280 -32.9790 -32.9766
   -32.9721 -32.9719 -32.9438 -32.9436 -32.9374 -32.9221 -32.8973 -32.8843
   -32.8449 -32.8319 -32.7859 -32.7738 -32.7500 -32.7437 -32.7378 -32.7368
   -32.7300 -32.7290 -32.7088 -32.7079 -32.7078 -32.7068 -32.6903 -32.6447
   -32.6405 -32.6331 -32.6329 -32.6088 -32.6063 -32.6041 -32.6038 -32.6000
   -32.5764 -32.5763 -32.5761 -32.5757 -32.5601 -32.5553 -32.5550 -32.5535
    12.2493  13.3595  15.5435  15.5457  15.5473  15.5484  15.7597  15.7607
    15.9365  15.9408  16.0191  16.0359  16.0526  16.1057  16.3131  16.6478
    16.6722  16.6801  17.1716  17.1888  17.2289  17.2376  17.6421  17.6522
    17.7362  17.7464  17.8139  17.8167  18.0129  18.0130  18.1866  18.1923
    18.2139  18.2349  18.2993  18.3081  18.5804  18.5814  18.5857  18.6157
    18.6287  18.6427  18.7559  18.7616  18.9560  19.0627  19.0666  19.3008
    19.4113  19.7331  19.7370  19.7607  19.7650  19.9804  19.9896  20.0846
    20.0923  20.0999  20.1833  20.1913  20.4899  20.4990  20.5837  20.6090
    20.6116  20.6761  20.6929  20.7092  20.7151  20.7273  20.8047  20.8124
    20.8259  20.8271  20.9523  21.0456  21.0463  21.2324  21.2367  21.3147
    21.4911  21.4926  21.5231  21.5336  21.6019  21.6063  22.1870  22.2008
    22.3036  22.3142

          k = 0.0555 0.0556-0.5000 ( 11346 PWs)   bands (ev):

   -66.7733 -66.7731 -66.7002 -66.7000 -66.6999 -66.6997 -66.6878 -66.6876
   -66.6876 -66.6874 -66.6861 -66.6859 -66.6850 -66.6848 -66.6307 -66.6305
   -33.0166 -33.0164 -33.0163 -33.0161 -33.0128 -33.0127 -33.0125 -33.0125
   -32.9882 -32.9882 -32.9880 -32.9879 -32.9322 -32.9321 -32.8735 -32.8732
   -32.8604 -32.8602 -32.7680 -32.7679 -32.7594 -32.7592 -32.7343 -32.7340
   -32.7332 -32.7329 -32.7083 -32.7080 -32.7074 -32.7071 -32.6461 -32.6459
   -32.6074 -32.6072 -32.6058 -32.6056 -32.6023 -32.6023 -32.6021 -32.6020
   -32.5823 -32.5821 -32.5769 -32.5769 -32.5767 -32.5767 -32.5745 -32.5744
    12.7585  12.7590  15.5689  15.5693  15.5720  15.5724  15.8702  15.8705
    15.8726  15.8730  16.2037  16.2041  16.3409  16.3413  16.3491  16.3495
    16.3513  16.3519  17.1928  17.1930  17.2022  17.2023  17.8584  17.8586
    17.8679  17.8680  17.9564  17.9566  17.9640  17.9642  18.1671  18.1675
    18.1694  18.1698  18.3264  18.3267  18.3307  18.3311  18.5930  18.5931
    18.6081  18.6084  18.6218  18.6221  18.6224  18.6226  19.1135  19.1138
    19.7216  19.7218  19.9208  19.9209  19.9267  19.9269  19.9956  19.9956
    20.0020  20.0021  20.3260  20.3262  20.4517  20.4518  20.5485  20.5488
    20.5539  20.5542  20.6875  20.6877  20.7010  20.7012  20.7158  20.7160
    21.0838  21.0839  21.0847  21.0847  21.1498  21.1500  21.2971  21.2972
    21.2974  21.2974  21.5469  21.5471  21.5552  21.5553  22.2734  22.2736
    22.2856  22.2858

          k = 0.0555 0.1667 0.1667 ( 11336 PWs)   bands (ev):

   -66.7992 -66.7236 -66.7229 -66.7054 -66.6972 -66.6922 -66.6915 -66.6889
   -66.6877 -66.6871 -66.6837 -66.6829 -66.6817 -66.6730 -66.6723 -66.6104
   -33.0922 -33.0861 -33.0857 -33.0779 -33.0775 -33.0658 -32.9447 -32.9255
   -32.9193 -32.9141 -32.9134 -32.9063 -32.9027 -32.8991 -32.8743 -32.8285
   -32.8133 -32.8129 -32.7788 -32.7783 -32.7776 -32.7479 -32.7370 -32.7367
   -32.7317 -32.7280 -32.7278 -32.7170 -32.7167 -32.7143 -32.7112 -32.7034
   -32.6927 -32.6797 -32.6737 -32.6730 -32.6487 -32.6362 -32.6355 -32.5681
   -32.5551 -32.5461 -32.5457 -32.5381 -32.5377 -32.5361 -32.5273 -32.5251
    11.7163  14.7744  14.7746  15.4074  15.4436  15.5666  15.5666  15.6430
    15.6430  15.6541  15.8468  15.8543  15.9332  16.2212  16.2214  17.0097
    17.1227  17.2994  17.3481  17.3484  17.3486  17.3489  17.3816  17.3857
    17.3860  17.4176  17.5059  17.6176  17.6433  17.6576  17.9382  18.3228
    18.3231  18.5391  18.6008  18.6014  18.6141  18.6568  18.8012  18.8406
    19.1390  19.1393  19.2135  19.2141  19.2590  19.3205  19.4233  19.5158
    19.5161  19.5315  19.5319  19.7151  19.7154  19.8752  19.9762  19.9766
    20.2200  20.3347  20.3399  20.3399  20.3977  20.3978  20.3991  20.4206
    20.4343  20.6067  20.6569  20.6903  20.6906  20.7025  20.7031  20.7104
    20.7115  20.8150  20.8154  21.0348  21.1419  21.1423  21.1642  21.1644
    21.2743  21.5195  21.5373  21.6689  21.7421  22.0797  22.4160  22.4162
    22.6123  22.7693

          k = 0.0555 0.1667 0.2778 ( 11358 PWs)   bands (ev):

   -66.7926 -66.7401 -66.7208 -66.7040 -66.7025 -66.6943 -66.6908 -66.6885
   -66.6871 -66.6864 -66.6842 -66.6823 -66.6804 -66.6733 -66.6575 -66.6153
   -33.0798 -33.0689 -33.0684 -33.0625 -33.0552 -33.0365 -32.9527 -32.9509
   -32.9493 -32.9380 -32.9358 -32.9337 -32.9131 -32.9088 -32.8829 -32.8589
   -32.8170 -32.8117 -32.7750 -32.7739 -32.7706 -32.7689 -32.7496 -32.7417
   -32.7408 -32.7331 -32.7270 -32.7153 -32.7135 -32.7009 -32.6956 -32.6769
   -32.6756 -32.6605 -32.6516 -32.6411 -32.6233 -32.6062 -32.6054 -32.5986
   -32.5758 -32.5586 -32.5581 -32.5533 -32.5476 -32.5456 -32.5305 -32.5289
    11.9849  14.1152  14.9077  15.3601  15.5438  15.6052  15.7406  15.7638
    15.7926  15.8317  15.9622  15.9804  16.0015  16.2569  16.3724  16.8923
    16.9746  17.0011  17.2375  17.3111  17.3259  17.3414  17.3883  17.4528
    17.4658  17.5122  17.6041  17.6714  17.7817  17.8432  17.8465  18.1902
    18.3420  18.4511  18.4644  18.4824  18.5234  18.5721  18.5970  18.7862
    18.8169  18.9731  19.0042  19.1580  19.2185  19.2974  19.3247  19.3277
    19.4026  19.5091  19.5274  19.5793  19.6101  19.7396  19.7665  20.0957
    20.2225  20.2433  20.2833  20.3183  20.3597  20.3847  20.4224  20.4648
    20.6303  20.6477  20.6493  20.7060  20.7114  20.7344  20.7353  20.7548
    20.8014  20.9089  20.9297  20.9438  20.9484  20.9802  21.0330  21.1355
    21.2495  21.4655  21.5207  21.5902  21.7368  22.2212  22.2544  22.8127
    22.9224  23.0458

          k = 0.0555 0.1667 0.3889 ( 11333 PWs)   bands (ev):

   -66.7828 -66.7561 -66.7171 -66.7077 -66.7019 -66.6968 -66.6893 -66.6879
   -66.6870 -66.6858 -66.6854 -66.6832 -66.6777 -66.6742 -66.6439 -66.6227
   -33.0577 -33.0440 -33.0426 -33.0403 -33.0247 -32.9987 -32.9916 -32.9817
   -32.9756 -32.9741 -32.9542 -32.9482 -32.9463 -32.9077 -32.8948 -32.8597
   -32.8431 -32.8027 -32.7987 -32.7678 -32.7667 -32.7584 -32.7511 -32.7476
   -32.7400 -32.7384 -32.7232 -32.7145 -32.7141 -32.6888 -32.6788 -32.6645
   -32.6389 -32.6356 -32.6289 -32.6233 -32.6116 -32.6010 -32.5982 -32.5791
   -32.5780 -32.5766 -32.5761 -32.5755 -32.5643 -32.5584 -32.5401 -32.5394
    12.3771  13.4684  15.0638  15.2995  15.6331  15.6498  15.8576  15.9498
    16.0230  16.0386  16.0919  16.1125  16.1625  16.2207  16.3688  16.6805
    16.6829  16.6983  17.2073  17.2506  17.2662  17.2901  17.5596  17.6027
    17.6078  17.6721  17.6746  17.8226  17.8892  18.0275  18.0714  18.1329
    18.2463  18.2573  18.3181  18.3288  18.4435  18.4440  18.4865  18.5256
    18.5465  18.5791  18.6473  18.7924  18.8494  18.8499  19.1304  19.5152
    19.5543  19.7064  19.7139  19.7687  19.7710  19.7941  19.9645  20.0384
    20.0563  20.1129  20.1847  20.2343  20.3938  20.4466  20.4703  20.5492
    20.5870  20.5926  20.5960  20.7036  20.7098  20.7195  20.7208  20.7842
    20.7945  20.8290  20.8695  20.9896  20.9929  21.0937  21.1356  21.2348
    21.2375  21.2468  21.4420  21.6398  21.7117  22.0718  22.4046  22.7414
    23.0982  23.2456

          k = 0.0555 0.1667-0.5000 ( 11332 PWs)   bands (ev):

   -66.7706 -66.7704 -66.7128 -66.7126 -66.6995 -66.6993 -66.6879 -66.6878
   -66.6871 -66.6870 -66.6845 -66.6843 -66.6758 -66.6755 -66.6323 -66.6321
   -33.0276 -33.0276 -33.0130 -33.0128 -33.0126 -33.0124 -33.0100 -33.0099
   -32.9879 -32.9878 -32.9552 -32.9552 -32.9529 -32.9529 -32.8713 -32.8710
   -32.8329 -32.8328 -32.7789 -32.7787 -32.7601 -32.7599 -32.7544 -32.7543
   -32.7436 -32.7434 -32.7141 -32.7139 -32.6833 -32.6831 -32.6779 -32.6779
   -32.6310 -32.6310 -32.6047 -32.6045 -32.6006 -32.6004 -32.5976 -32.5976
   -32.5859 -32.5857 -32.5761 -32.5761 -32.5568 -32.5568 -32.5557 -32.5557
    12.8785  12.8789  15.2022  15.2025  15.6691  15.6694  15.9657  15.9660
    16.1046  16.1049  16.2633  16.2637  16.3636  16.3640  16.3922  16.3926
    16.3977  16.3982  17.2260  17.2261  17.2503  17.2505  17.7625  17.7628
    17.7810  17.7813  17.8002  17.8003  17.8709  17.8713  18.1846  18.1848
    18.2306  18.2309  18.2965  18.2967  18.4194  18.4196  18.4294  18.4294
    18.4331  18.4334  18.4745  18.4748  18.5634  18.5636  19.3119  19.3122
    19.8070  19.8072  19.8345  19.8346  19.9522  19.9523  19.9984  19.9985
    20.0423  20.0424  20.0426  20.0427  20.3833  20.3834  20.5166  20.5169
    20.5298  20.5300  20.6561  20.6564  20.7032  20.7035  20.7419  20.7421
    20.8561  20.8562  20.9527  20.9528  21.0681  21.0683  21.1421  21.1422
    21.3099  21.3100  21.4722  21.4722  21.8812  21.8813  22.5923  22.5924
    23.2335  23.2337

          k = 0.0555 0.2778 0.2778 ( 11337 PWs)   bands (ev):

   -66.7863 -66.7370 -66.7363 -66.7104 -66.7025 -66.6934 -66.6927 -66.6880
   -66.6865 -66.6859 -66.6857 -66.6826 -66.6743 -66.6594 -66.6587 -66.6199
   -33.0734 -33.0538 -33.0534 -33.0435 -33.0431 -33.0024 -32.9686 -32.9679
   -32.9657 -32.9639 -32.9554 -32.9527 -32.9299 -32.9018 -32.8580 -32.8182
   -32.8152 -32.8148 -32.8062 -32.8054 -32.7703 -32.7584 -32.7571 -32.7480
   -32.7476 -32.7346 -32.7342 -32.7258 -32.7253 -32.7200 -32.6818 -32.6531
   -32.6456 -32.6448 -32.6376 -32.6341 -32.6307 -32.6065 -32.6007 -32.5795
   -32.5787 -32.5660 -32.5658 -32.5583 -32.5577 -32.5574 -32.5272 -32.5258
    12.2467  14.2906  14.2908  15.2009  15.6686  15.8048  15.8048  15.9276
    15.9276  15.9535  16.0637  16.1049  16.1125  16.4141  16.4144  16.8308
    16.8922  17.0796  17.0797  17.2972  17.3716  17.4010  17.4013  17.4454
    17.4456  17.5084  17.5205  17.7076  17.7270  17.8260  17.8614  18.2352
    18.2359  18.3524  18.3713  18.3717  18.3780  18.3969  18.4485  18.5630
    18.7987  18.7990  18.8618  18.8621  19.0303  19.0693  19.0697  19.1513
    19.5960  19.5965  19.6515  19.6936  19.7404  19.7408  19.9612  20.0390
    20.0395  20.2166  20.2953  20.2953  20.3313  20.3430  20.3431  20.4037
    20.4387  20.6049  20.6061  20.6135  20.7030  20.7127  20.7494  20.8051
    20.8126  20.8131  20.8661  20.8960  20.8963  20.9994  20.9997  21.1834
    21.1842  21.2235  21.5733  21.7655  21.7703  22.4583  22.8845  22.8847
    23.4866  23.4868

          k = 0.0555 0.2778 0.3889 ( 11345 PWs)   bands (ev):

   -66.7770 -66.7517 -66.7316 -66.7181 -66.7005 -66.6956 -66.6914 -66.6879
   -66.6871 -66.6864 -66.6852 -66.6834 -66.6691 -66.6615 -66.6464 -66.6267
   -33.0574 -33.0326 -33.0319 -33.0265 -33.0176 -33.0029 -32.9856 -32.9793
   -32.9785 -32.9765 -32.9733 -32.9615 -32.9577 -32.8843 -32.8651 -32.8355
   -32.8302 -32.8065 -32.7969 -32.7719 -32.7687 -32.7675 -32.7672 -32.7633
   -32.7617 -32.7548 -32.7387 -32.7252 -32.7238 -32.6977 -32.6756 -32.6699
   -32.6515 -32.6297 -32.6249 -32.6177 -32.6149 -32.6100 -32.5902 -32.5780
   -32.5776 -32.5753 -32.5736 -32.5651 -32.5572 -32.5563 -32.5302 -32.5293
    12.6275  13.6774  14.5221  15.0061  15.7908  15.8476  16.0416  16.0804
    16.1174  16.1699  16.1812  16.1972  16.2980  16.3791  16.4250  16.6976
    16.6994  16.7883  17.2767  17.2837  17.3213  17.3406  17.3708  17.5029
    17.5189  17.5580  17.6323  17.6411  17.8876  17.9836  17.9839  18.0009
    18.1114  18.2171  18.2212  18.2874  18.2951  18.3299  18.4066  18.4391
    18.4479  18.5137  18.5240  18.5284  18.6707  18.7251  19.3502  19.3637
    19.7343  19.7508  19.8014  19.8408  19.8465  19.8547  19.8547  19.9453
    20.0476  20.1104  20.1728  20.2133  20.2429  20.3518  20.3691  20.3960
    20.4942  20.5148  20.5365  20.5408  20.6454  20.7084  20.7301  20.7302
    20.7504  20.8277  20.8287  20.8509  20.8580  20.9343  20.9599  21.0210
    21.3563  21.4165  21.5615  21.7175  22.0268  22.6125  22.7493  23.3062
    23.5599  24.1883

          k = 0.0555 0.2778-0.5000 ( 11348 PWs)   bands (ev):

   -66.7654 -66.7652 -66.7254 -66.7252 -66.6982 -66.6980 -66.6897 -66.6895
   -66.6868 -66.6866 -66.6844 -66.6842 -66.6650 -66.6648 -66.6356 -66.6354
   -33.0336 -33.0335 -33.0069 -33.0068 -33.0067 -33.0065 -33.0059 -33.0057
   -32.9881 -32.9880 -32.9780 -32.9779 -32.9148 -32.9148 -32.8622 -32.8619
   -32.7996 -32.7995 -32.7883 -32.7882 -32.7855 -32.7852 -32.7599 -32.7598
   -32.7523 -32.7522 -32.7251 -32.7249 -32.7214 -32.7213 -32.6625 -32.6625
   -32.6599 -32.6597 -32.5983 -32.5981 -32.5947 -32.5945 -32.5936 -32.5934
   -32.5921 -32.5921 -32.5761 -32.5761 -32.5403 -32.5403 -32.5395 -32.5395
    13.1118  13.1123  14.7727  14.7731  15.8543  15.8546  16.1401  16.1404
    16.2681  16.2684  16.3334  16.3339  16.3979  16.3983  16.4612  16.4616
    16.5252  16.5257  17.2903  17.2905  17.3165  17.3166  17.5810  17.5813
    17.6017  17.6021  17.6120  17.6123  17.7950  17.7952  18.1740  18.1742
    18.2032  18.2034  18.2119  18.2121  18.2405  18.2408  18.2411  18.2412
    18.3989  18.3990  18.4239  18.4241  18.4840  18.4841  19.5662  19.5664
    19.6939  19.6940  19.7682  19.7684  19.9409  19.9411  20.0225  20.0226
    20.0397  20.0398  20.0778  20.0779  20.2141  20.2143  20.4536  20.4538
    20.4663  20.4665  20.5992  20.5994  20.6439  20.6440  20.7217  20.7219
    20.7569  20.7570  20.7705  20.7707  20.8632  20.8634  20.9918  20.9920
    21.4859  21.4859  21.5990  21.5990  22.3196  22.3197  23.0464  23.0465
    24.2546  24.2547

          k = 0.0555 0.3889 0.3889 ( 11335 PWs)   bands (ev):

   -66.7686 -66.7457 -66.7450 -66.7281 -66.6986 -66.6942 -66.6935 -66.6897
   -66.6867 -66.6858 -66.6852 -66.6838 -66.6616 -66.6506 -66.6499 -66.6327
   -33.0477 -33.0177 -33.0174 -33.0088 -33.0085 -33.0059 -33.0051 -32.9913
   -32.9896 -32.9884 -32.9875 -32.9720 -32.9171 -32.8685 -32.8242 -32.8234
   -32.8184 -32.8179 -32.8041 -32.7981 -32.7913 -32.7745 -32.7738 -32.7722
   -32.7584 -32.7384 -32.7378 -32.7321 -32.7315 -32.7311 -32.7212 -32.6614
   -32.6531 -32.6272 -32.6264 -32.6074 -32.6012 -32.5977 -32.5874 -32.5832
   -32.5818 -32.5817 -32.5760 -32.5759 -32.5403 -32.5396 -32.5267 -32.5259
    12.9894  13.9677  13.9680  14.6693  15.9669  16.1137  16.1138  16.2584
    16.2832  16.2833  16.2925  16.3103  16.4223  16.4229  16.4985  16.6142
    16.6716  17.0067  17.0069  17.3213  17.3389  17.4008  17.4249  17.4252
    17.4351  17.4353  17.5192  17.6449  17.7119  17.8292  17.9385  18.0144
    18.0151  18.1156  18.1674  18.1903  18.2020  18.2024  18.2351  18.2355
    18.3662  18.3774  18.3778  18.4658  18.5028  19.0093  19.0097  19.5884
    19.6850  19.7744  19.8343  19.8347  19.9574  19.9579  19.9728  19.9840
    20.0970  20.0975  20.1436  20.2291  20.2605  20.2605  20.2619  20.2786
    20.2787  20.4582  20.4612  20.4694  20.5623  20.6577  20.6580  20.6827
    20.7234  20.7535  20.7863  20.7869  20.8234  20.8801  20.8805  20.9042
    21.5424  21.5431  21.6217  21.7283  22.4040  23.1470  23.1907  23.1908
    23.9189  23.9191

          k = 0.0555 0.3889-0.5000 ( 11350 PWs)   bands (ev):

   -66.7579 -66.7577 -66.7374 -66.7372 -66.6964 -66.6962 -66.6919 -66.6917
   -66.6862 -66.6860 -66.6847 -66.6845 -66.6554 -66.6552 -66.6406 -66.6404
   -33.0301 -33.0301 -33.0020 -33.0020 -33.0017 -33.0015 -33.0009 -33.0009
   -32.9995 -32.9993 -32.9897 -32.9895 -32.8686 -32.8686 -32.8482 -32.8479
   -32.8090 -32.8087 -32.7923 -32.7923 -32.7766 -32.7765 -32.7696 -32.7696
   -32.7649 -32.7648 -32.7502 -32.7501 -32.7366 -32.7365 -32.6956 -32.6955
   -32.6387 -32.6385 -32.6053 -32.6051 -32.5905 -32.5903 -32.5897 -32.5896
   -32.5882 -32.5881 -32.5783 -32.5782 -32.5301 -32.5301 -32.5294 -32.5294
    13.4448  13.4452  14.3107  14.3112  16.0874  16.0877  16.3500  16.3503
    16.3630  16.3634  16.3796  16.3800  16.3981  16.3985  16.5240  16.5243
    16.7404  16.7408  17.3055  17.3059  17.3508  17.3509  17.3519  17.3521
    17.4161  17.4164  17.4731  17.4734  17.8417  17.8419  17.9690  17.9692
    18.0542  18.0545  18.0642  18.0643  18.0717  18.0718  18.1249  18.1251
    18.3944  18.3945  18.4169  18.4170  18.6715  18.6715  19.3329  19.3329
    19.7699  19.7701  19.8374  19.8375  20.0197  20.0199  20.0773  20.0774
    20.1274  20.1276  20.1300  20.1302  20.1309  20.1310  20.3612  20.3615
    20.3677  20.3680  20.3933  20.3934  20.5343  20.5345  20.5858  20.5860
    20.7472  20.7474  20.7983  20.7985  20.8104  20.8106  20.8919  20.8920
    21.6140  21.6141  21.6696  21.6697  22.8005  22.8007  23.5496  23.5498
    23.7825  23.7826

          k = 0.0555-0.5000-0.5000 ( 11368 PWs)   bands (ev):

   -66.7488 -66.7487 -66.7481 -66.7479 -66.6946 -66.6945 -66.6939 -66.6937
   -66.6856 -66.6856 -66.6850 -66.6848 -66.6476 -66.6476 -66.6469 -66.6468
   -33.0193 -33.0192 -33.0185 -33.0185 -33.0001 -33.0001 -32.9999 -32.9997
   -32.9937 -32.9937 -32.9935 -32.9933 -32.8306 -32.8306 -32.8299 -32.8297
   -32.8198 -32.8197 -32.8193 -32.8193 -32.7887 -32.7887 -32.7879 -32.7879
   -32.7457 -32.7457 -32.7449 -32.7449 -32.7304 -32.7303 -32.7299 -32.7299
   -32.6208 -32.6207 -32.6200 -32.6198 -32.5872 -32.5872 -32.5871 -32.5871
   -32.5831 -32.5831 -32.5830 -32.5829 -32.5267 -32.5267 -32.5259 -32.5259
    13.8549  13.8550  13.8552  13.8557  16.2959  16.2963  16.2964  16.2965
    16.3949  16.3949  16.3952  16.3959  16.5046  16.5049  16.5050  16.5051
    17.0099  17.0100  17.0101  17.0107  17.3434  17.3438  17.3439  17.3439
    17.3904  17.3908  17.3909  17.3909  17.9354  17.9357  17.9363  17.9363
    17.9484  17.9484  17.9487  17.9489  18.0353  18.0353  18.0356  18.0360
    18.3848  18.3848  18.3851  18.3852  18.9861  18.9863  18.9867  18.9867
    19.8579  19.8580  19.8582  19.8585  20.1104  20.1107  20.1110  20.1110
    20.1586  20.1586  20.1592  20.1593  20.2474  20.2475  20.2476  20.2478
    20.2486  20.2487  20.2488  20.2489  20.5113  20.5113  20.5118  20.5119
    20.7754  20.7754  20.7758  20.7760  20.8332  20.8333  20.8336  20.8338
    21.6757  21.6757  21.6765  21.6765  23.2943  23.2943  23.2943  23.2945
    24.0604  24.0606

          k = 0.1665 0.0556 0.0556 ( 11325 PWs)   bands (ev):

   -66.8025 -66.7247 -66.7064 -66.7057 -66.6928 -66.6920 -66.6897 -66.6893
   -66.6887 -66.6882 -66.6881 -66.6874 -66.6821 -66.6816 -66.6725 -66.6078
   -33.0949 -33.0944 -33.0931 -33.0903 -33.0859 -33.0854 -32.9389 -32.9277
   -32.9184 -32.8957 -32.8875 -32.8870 -32.8848 -32.8841 -32.8533 -32.8532
   -32.8177 -32.7898 -32.7797 -32.7779 -32.7658 -32.7421 -32.7419 -32.7339
   -32.7242 -32.7210 -32.7208 -32.7207 -32.7203 -32.7113 -32.7111 -32.7068
   -32.7067 -32.7034 -32.7030 -32.6715 -32.6696 -32.6688 -32.6615 -32.5470
   -32.5398 -32.5394 -32.5383 -32.5356 -32.5308 -32.5304 -32.5300 -32.5278
    11.5795  14.6920  15.3871  15.3873  15.4640  15.4641  15.5443  15.5444
    15.5538  15.5784  15.7842  15.7901  15.8872  15.8873  16.1718  17.1065
    17.2179  17.2243  17.2911  17.3035  17.3389  17.3566  17.3698  17.3701
    17.4112  17.4115  17.6391  17.6511  17.7050  17.7054  18.0457  18.0461
    18.4956  18.6044  18.6222  18.7423  18.7429  18.7434  18.8092  18.9230
    18.9232  18.9666  19.2328  19.2330  19.3490  19.3491  19.3871  19.4879
    19.6739  19.6744  19.7495  19.9660  19.9665  19.9753  20.1362  20.2202
    20.2202  20.3191  20.3193  20.3382  20.4041  20.4044  20.4093  20.4354
    20.4500  20.4637  20.4641  20.4916  20.6846  20.7015  20.7019  20.7252
    20.7255  20.9013  21.0045  21.0049  21.1688  21.2650  21.3795  21.5002
    21.5004  21.5092  21.5448  21.5450  21.8480  21.8483  22.0194  22.0195
    22.1080  22.1084

          k = 0.1665 0.0556 0.1667 ( 11336 PWs)   bands (ev):

   -66.7992 -66.7235 -66.7232 -66.7053 -66.6974 -66.6919 -66.6916 -66.6887
   -66.6875 -66.6872 -66.6838 -66.6829 -66.6817 -66.6728 -66.6725 -66.6104
   -33.0926 -33.0858 -33.0854 -33.0778 -33.0774 -33.0661 -32.9457 -32.9242
   -32.9193 -32.9141 -32.9140 -32.9064 -32.9030 -32.8989 -32.8745 -32.8284
   -32.8134 -32.8130 -32.7789 -32.7771 -32.7769 -32.7483 -32.7374 -32.7367
   -32.7307 -32.7288 -32.7279 -32.7177 -32.7168 -32.7145 -32.7115 -32.7025
   -32.6928 -32.6801 -32.6728 -32.6725 -32.6492 -32.6363 -32.6358 -32.5683
   -32.5549 -32.5461 -32.5458 -32.5383 -32.5379 -32.5358 -32.5269 -32.5253
    11.7159  14.7679  14.7742  15.4071  15.4501  15.5661  15.5667  15.6424
    15.6431  15.6545  15.8483  15.8523  15.9398  16.2141  16.2210  17.0082
    17.1204  17.2979  17.3387  17.3466  17.3482  17.3487  17.3758  17.3857
    17.3920  17.4147  17.5163  17.6211  17.6450  17.6617  17.9399  18.3206
    18.3220  18.5439  18.6069  18.6069  18.6081  18.6528  18.7973  18.8437
    19.1444  19.1468  19.2083  19.2115  19.2529  19.3180  19.4189  19.5157
    19.5227  19.5269  19.5339  19.7146  19.7228  19.8659  19.9769  19.9803
    20.2116  20.3277  20.3407  20.3487  20.3972  20.3988  20.4068  20.4253
    20.4268  20.6058  20.6533  20.6867  20.6870  20.7028  20.7045  20.7151
    20.7166  20.8164  20.8205  21.0357  21.1431  21.1478  21.1550  21.1643
    21.2758  21.5310  21.5361  21.6679  21.7396  22.0945  22.4160  22.4190
    22.6029  22.7494

          k = 0.1665 0.0556 0.2778 ( 11354 PWs)   bands (ev):

   -66.7926 -66.7401 -66.7209 -66.7038 -66.7026 -66.6941 -66.6908 -66.6883
   -66.6869 -66.6866 -66.6842 -66.6823 -66.6805 -66.6734 -66.6575 -66.6153
   -33.0801 -33.0687 -33.0681 -33.0625 -33.0550 -33.0368 -32.9530 -32.9515
   -32.9493 -32.9380 -32.9358 -32.9340 -32.9118 -32.9088 -32.8833 -32.8589
   -32.8170 -32.8107 -32.7750 -32.7728 -32.7712 -32.7691 -32.7503 -32.7409
   -32.7405 -32.7340 -32.7270 -32.7162 -32.7141 -32.7009 -32.6946 -32.6770
   -32.6747 -32.6606 -32.6519 -32.6405 -32.6236 -32.6062 -32.6055 -32.5988
   -32.5756 -32.5588 -32.5583 -32.5533 -32.5473 -32.5459 -32.5301 -32.5292
    11.9846  14.1149  14.9017  15.3590  15.5494  15.6054  15.7404  15.7638
    15.7927  15.8318  15.9646  15.9777  16.0070  16.2511  16.3723  16.8910
    16.9726  17.0008  17.2378  17.3110  17.3255  17.3411  17.3863  17.4430
    17.4760  17.5024  17.6054  17.6817  17.7830  17.8442  17.8478  18.1893
    18.3484  18.4458  18.4667  18.4879  18.5237  18.5668  18.5898  18.7807
    18.8253  18.9755  19.0103  19.1647  19.2185  19.2972  19.3174  19.3242
    19.4067  19.5055  19.5279  19.5783  19.6096  19.7404  19.7631  20.0879
    20.2198  20.2511  20.2864  20.3261  20.3508  20.3843  20.4216  20.4666
    20.6308  20.6454  20.6470  20.7097  20.7151  20.7357  20.7377  20.7503
    20.8025  20.9107  20.9295  20.9438  20.9545  20.9813  21.0337  21.1269
    21.2549  21.4653  21.5199  21.5999  21.7352  22.2341  22.2571  22.8190
    22.9037  23.0340

          k = 0.1665 0.0556 0.3889 ( 11330 PWs)   bands (ev):

   -66.7828 -66.7561 -66.7173 -66.7078 -66.7017 -66.6966 -66.6893 -66.6877
   -66.6868 -66.6859 -66.6855 -66.6832 -66.6778 -66.6743 -66.6439 -66.6227
   -33.0581 -33.0439 -33.0424 -33.0404 -33.0245 -32.9989 -32.9919 -32.9817
   -32.9756 -32.9740 -32.9547 -32.9481 -32.9466 -32.9078 -32.8936 -32.8602
   -32.8421 -32.8033 -32.7987 -32.7667 -32.7666 -32.7583 -32.7501 -32.7484
   -32.7400 -32.7394 -32.7234 -32.7153 -32.7148 -32.6878 -32.6780 -32.6644
   -32.6390 -32.6358 -32.6290 -32.6236 -32.6110 -32.6008 -32.5984 -32.5792
   -32.5779 -32.5766 -32.5763 -32.5757 -32.5639 -32.5586 -32.5399 -32.5395
    12.3768  13.4681  15.0588  15.2972  15.6374  15.6510  15.8582  15.9492
    16.0267  16.0385  16.0918  16.1138  16.1608  16.2171  16.3689  16.6799
    16.6821  16.6974  17.2074  17.2505  17.2660  17.2899  17.5565  17.5936
    17.6177  17.6656  17.6728  17.8213  17.8990  18.0354  18.0718  18.1334
    18.2438  18.2539  18.3132  18.3236  18.4501  18.4506  18.4954  18.5307
    18.5402  18.5720  18.6529  18.7865  18.8495  18.8499  19.1323  19.5167
    19.5520  19.7096  19.7108  19.7705  19.7736  19.7893  19.9576  20.0369
    20.0540  20.1191  20.1911  20.2269  20.3957  20.4455  20.4688  20.5498
    20.5852  20.5907  20.5978  20.7069  20.7128  20.7205  20.7227  20.7842
    20.7969  20.8323  20.8639  20.9925  20.9994  21.0859  21.1353  21.2351
    21.2424  21.2472  21.4413  21.6387  21.7187  22.0749  22.4154  22.7489
    23.0810  23.2317

          k = 0.1665 0.0556-0.5000 ( 11338 PWs)   bands (ev):

   -66.7706 -66.7704 -66.7129 -66.7127 -66.6993 -66.6991 -66.6878 -66.6876
   -66.6872 -66.6870 -66.6845 -66.6843 -66.6759 -66.6756 -66.6324 -66.6322
   -33.0280 -33.0279 -33.0131 -33.0128 -33.0126 -33.0123 -33.0099 -33.0098
   -32.9878 -32.9877 -32.9553 -32.9552 -32.9534 -32.9534 -32.8702 -32.8699
   -32.8336 -32.8334 -32.7789 -32.7787 -32.7590 -32.7588 -32.7544 -32.7542
   -32.7445 -32.7442 -32.7150 -32.7148 -32.6824 -32.6822 -32.6782 -32.6781
   -32.6309 -32.6308 -32.6049 -32.6047 -32.6007 -32.6005 -32.5979 -32.5979
   -32.5854 -32.5852 -32.5762 -32.5762 -32.5570 -32.5569 -32.5556 -32.5556
    12.8781  12.8786  15.1986  15.1989  15.6716  15.6720  15.9676  15.9679
    16.1028  16.1031  16.2638  16.2641  16.3632  16.3637  16.3919  16.3923
    16.3967  16.3972  17.2258  17.2260  17.2501  17.2503  17.7554  17.7556
    17.7763  17.7766  17.8096  17.8098  17.8675  17.8679  18.1933  18.1934
    18.2312  18.2314  18.2993  18.2995  18.4149  18.4151  18.4332  18.4335
    18.4359  18.4360  18.4747  18.4750  18.5565  18.5567  19.3134  19.3137
    19.8054  19.8057  19.8292  19.8294  19.9565  19.9566  20.0029  20.0030
    20.0361  20.0362  20.0450  20.0451  20.3820  20.3822  20.5151  20.5154
    20.5279  20.5282  20.6563  20.6565  20.7063  20.7065  20.7447  20.7449
    20.8545  20.8546  20.9582  20.9583  21.0640  21.0641  21.1462  21.1463
    21.3094  21.3095  21.4717  21.4718  21.8856  21.8858  22.6013  22.6015
    23.2179  23.2181

          k = 0.1665 0.1667 0.1667 ( 11332 PWs)   bands (ev):

   -66.7958 -66.7224 -66.7222 -66.7216 -66.6970 -66.6966 -66.6962 -66.6846
   -66.6839 -66.6836 -66.6831 -66.6811 -66.6732 -66.6730 -66.6724 -66.6128
   -33.0840 -33.0835 -33.0833 -33.0599 -33.0596 -33.0594 -32.9400 -32.9390
   -32.9379 -32.9313 -32.9310 -32.9306 -32.8833 -32.8775 -32.8775 -32.8363
   -32.8361 -32.8359 -32.7849 -32.7844 -32.7842 -32.7405 -32.7397 -32.7394
   -32.7304 -32.7302 -32.7123 -32.7123 -32.7119 -32.7077 -32.7070 -32.7068
   -32.6759 -32.6754 -32.6754 -32.6672 -32.6203 -32.6197 -32.6194 -32.5894
   -32.5590 -32.5588 -32.5585 -32.5353 -32.5351 -32.5347 -32.5313 -32.5311
    11.8510  14.8479  14.8537  14.8540  15.5142  15.5142  15.5143  15.7497
    15.7504  15.7504  15.9113  15.9146  16.2679  16.2744  16.2745  16.9271
    17.2291  17.2294  17.3218  17.3228  17.3232  17.3614  17.3711  17.3714
    17.4712  17.4808  17.4811  17.5044  17.5812  17.5867  18.1697  18.1707
    18.1710  18.5249  18.5256  18.5267  18.5293  18.5327  18.9574  18.9576
    18.9579  18.9612  19.1456  19.1459  19.1519  19.3263  19.3266  19.3267
    19.5437  19.5440  19.5522  19.6058  19.6061  19.6112  20.1764  20.1767
    20.1791  20.2480  20.2481  20.2557  20.3605  20.3686  20.3998  20.3998
    20.4082  20.6561  20.6565  20.6599  20.6861  20.6885  20.6905  20.6934
    20.7591  20.8094  20.8098  20.8100  21.1526  21.1611  21.1613  21.3706
    21.3709  21.3751  21.3973  21.3998  22.1180  22.1181  22.1197  22.8654
    22.8837  22.8838

          k = 0.1665 0.1667 0.2778 ( 11356 PWs)   bands (ev):

   -66.7894 -66.7384 -66.7197 -66.7194 -66.7019 -66.7016 -66.6954 -66.6866
   -66.6831 -66.6810 -66.6804 -66.6801 -66.6736 -66.6733 -66.6583 -66.6175
   -33.0716 -33.0712 -33.0661 -33.0474 -33.0324 -33.0322 -32.9621 -32.9593
   -32.9589 -32.9499 -32.9482 -32.9255 -32.9251 -32.8725 -32.8724 -32.8602
   -32.8544 -32.8202 -32.7930 -32.7863 -32.7855 -32.7559 -32.7524 -32.7513
   -32.7447 -32.7384 -32.7149 -32.6994 -32.6986 -32.6846 -32.6817 -32.6814
   -32.6788 -32.6783 -32.6419 -32.6416 -32.6211 -32.5977 -32.5973 -32.5932
   -32.5761 -32.5758 -32.5663 -32.5514 -32.5433 -32.5380 -32.5377 -32.5320
    12.1167  14.2113  14.9895  14.9949  15.4699  15.4706  15.7208  15.8868
    15.8874  15.9328  16.0308  16.0338  16.3258  16.3312  16.4344  16.8468
    17.0015  17.0682  17.2030  17.3332  17.3335  17.3344  17.4206  17.4391
    17.4412  17.4508  17.6088  17.6179  17.6273  17.8008  18.0263  18.0264
    18.3151  18.3431  18.3476  18.4296  18.4490  18.5076  18.6972  18.7022
    18.7107  18.7164  18.9398  19.0811  19.0883  19.0974  19.1117  19.1551
    19.4504  19.5518  19.5538  19.6980  19.7005  19.8584  19.9435  20.1374
    20.1441  20.2491  20.3142  20.3422  20.3496  20.4192  20.4265  20.4275
    20.4486  20.4495  20.6430  20.6444  20.6618  20.6856  20.7001  20.7014
    20.7064  20.9246  20.9770  20.9784  21.0062  21.0757  21.1504  21.1571
    21.1643  21.4453  21.4527  21.4566  21.8550  21.8558  22.7453  23.0666
    23.0832  23.5085

          k = 0.1665 0.1667 0.3889 ( 11359 PWs)   bands (ev):

   -66.7799 -66.7539 -66.7162 -66.7159 -66.7070 -66.7067 -66.6935 -66.6890
   -66.6824 -66.6812 -66.6779 -66.6776 -66.6746 -66.6743 -66.6451 -66.6246
   -33.0511 -33.0507 -33.0405 -33.0299 -32.9976 -32.9974 -32.9916 -32.9913
   -32.9855 -32.9687 -32.9577 -32.9576 -32.9148 -32.9147 -32.9065 -32.8528
   -32.8347 -32.8289 -32.7822 -32.7812 -32.7779 -32.7759 -32.7642 -32.7631
   -32.7476 -32.7390 -32.7245 -32.6923 -32.6915 -32.6823 -32.6816 -32.6592
   -32.6512 -32.6510 -32.6426 -32.6171 -32.6109 -32.5976 -32.5973 -32.5788
   -32.5763 -32.5759 -32.5754 -32.5701 -32.5609 -32.5455 -32.5452 -32.5388
    12.5041  13.5781  15.1570  15.1614  15.4089  15.4107  16.0107  16.0439
    16.0440  16.1807  16.1853  16.2064  16.3081  16.3113  16.4385  16.7000
    16.7004  16.7292  17.2106  17.2872  17.3246  17.3532  17.4713  17.4731
    17.5726  17.5817  17.7843  17.7925  17.8877  17.9038  17.9081  18.0642
    18.2191  18.2198  18.2969  18.3014  18.3750  18.3914  18.3936  18.4218
    18.4274  18.4767  18.6223  18.6279  18.6492  18.6636  19.2905  19.4116
    19.6516  19.7109  19.7978  19.7983  19.8029  19.8062  20.0201  20.0254
    20.0712  20.0811  20.1612  20.2194  20.2253  20.3986  20.4647  20.5182
    20.5732  20.5863  20.6687  20.6818  20.6853  20.6878  20.7266  20.7594
    20.7703  20.7767  20.8354  20.8883  21.1579  21.1602  21.1832  21.2040
    21.2081  21.4168  21.4233  21.4268  21.5989  21.5991  23.3017  23.3167
    23.4374  23.6046

          k = 0.1665 0.1667-0.5000 ( 11346 PWs)   bands (ev):

   -66.7681 -66.7678 -66.7120 -66.7118 -66.7117 -66.7114 -66.6914 -66.6912
   -66.6819 -66.6816 -66.6760 -66.6758 -66.6757 -66.6755 -66.6339 -66.6337
   -33.0235 -33.0234 -33.0232 -33.0231 -33.0088 -33.0086 -33.0078 -33.0075
   -32.9605 -32.9604 -32.9576 -32.9575 -32.9573 -32.9572 -32.8820 -32.8817
   -32.8063 -32.8062 -32.8032 -32.8031 -32.7743 -32.7740 -32.7733 -32.7731
   -32.7334 -32.7333 -32.7024 -32.7023 -32.6867 -32.6865 -32.6859 -32.6857
   -32.6227 -32.6227 -32.6225 -32.6224 -32.6059 -32.6057 -32.5960 -32.5958
   -32.5839 -32.5837 -32.5583 -32.5583 -32.5581 -32.5581 -32.5517 -32.5517
    12.9982  12.9987  15.3060  15.3064  15.3092  15.3096  16.1978  16.1981
    16.1991  16.1994  16.3364  16.3368  16.3587  16.3591  16.4314  16.4319
    16.4571  16.4575  17.2425  17.2427  17.3068  17.3070  17.7305  17.7307
    17.7309  17.7311  17.7401  17.7403  17.7480  17.7482  18.1932  18.1934
    18.1971  18.1973  18.2399  18.2402  18.3105  18.3107  18.3142  18.3144
    18.3595  18.3598  18.3643  18.3645  18.4401  18.4402  19.4909  19.4911
    19.7237  19.7238  19.8745  19.8747  19.9049  19.9050  19.9082  19.9084
    20.0340  20.0341  20.0388  20.0389  20.4882  20.4885  20.4949  20.4951
    20.5234  20.5237  20.6284  20.6287  20.6759  20.6761  20.7820  20.7822
    20.7884  20.7885  20.7944  20.7945  21.3162  21.3162  21.3192  21.3193
    21.3249  21.3250  21.3600  21.3600  21.3609  21.3609  23.5067  23.5069
    23.5201  23.5203

          k = 0.1665 0.2778 0.2778 ( 11357 PWs)   bands (ev):

   -66.7832 -66.7353 -66.7346 -66.7173 -66.7094 -66.7006 -66.6999 -66.6894
   -66.6804 -66.6801 -66.6797 -66.6744 -66.6740 -66.6601 -66.6594 -66.6220
   -33.0647 -33.0552 -33.0548 -33.0245 -33.0242 -33.0006 -32.9747 -32.9725
   -32.9723 -32.9716 -32.9570 -32.9347 -32.9227 -32.8970 -32.8657 -32.8337
   -32.8309 -32.8306 -32.8213 -32.8207 -32.7964 -32.7710 -32.7707 -32.7706
   -32.7234 -32.7129 -32.7127 -32.7051 -32.7047 -32.6842 -32.6827 -32.6675
   -32.6570 -32.6550 -32.6458 -32.6452 -32.6230 -32.5974 -32.5855 -32.5780
   -32.5778 -32.5753 -32.5745 -32.5528 -32.5524 -32.5510 -32.5348 -32.5320
    12.3761  14.3912  14.3915  15.1472  15.3168  15.6840  15.6840  16.0463
    16.0660  16.0660  16.1332  16.1636  16.4317  16.4998  16.5000  16.8184
    17.0061  17.0556  17.0558  17.2612  17.2816  17.4057  17.4060  17.4836
    17.4862  17.4960  17.5355  17.5358  17.7772  17.7833  17.8699  18.1359
    18.1364  18.2410  18.2856  18.2861  18.3510  18.3556  18.4521  18.5153
    18.5722  18.5726  18.7215  18.7219  18.7996  18.8561  18.8564  19.2988
    19.6567  19.6571  19.6886  19.8180  19.8877  19.8880  20.0351  20.0703
    20.2252  20.2252  20.2311  20.2315  20.2549  20.3320  20.3632  20.3633
    20.3985  20.6125  20.6158  20.6161  20.6393  20.6696  20.6780  20.6785
    20.6945  20.8894  20.8897  20.9974  21.0272  21.1476  21.1483  21.1635
    21.1638  21.2547  21.4368  21.5348  21.5417  22.4034  22.4035  23.3404
    24.1360  24.1360

          k = 0.1665 0.2778 0.3889 ( 11358 PWs)   bands (ev):

   -66.7742 -66.7496 -66.7300 -66.7170 -66.7139 -66.7051 -66.6980 -66.6924
   -66.6799 -66.6797 -66.6777 -66.6748 -66.6694 -66.6621 -66.6475 -66.6285
   -33.0495 -33.0373 -33.0312 -33.0132 -33.0000 -32.9952 -32.9923 -32.9874
   -32.9774 -32.9680 -32.9667 -32.9627 -32.9281 -32.9058 -32.8746 -32.8532
   -32.8487 -32.8145 -32.8052 -32.7993 -32.7961 -32.7880 -32.7856 -32.7845
   -32.7440 -32.7216 -32.7122 -32.6971 -32.6952 -32.6868 -32.6807 -32.6712
   -32.6516 -32.6345 -32.6328 -32.6221 -32.6153 -32.6062 -32.5929 -32.5833
   -32.5741 -32.5734 -32.5672 -32.5580 -32.5564 -32.5562 -32.5373 -32.5347
    12.7532  13.7892  14.6292  15.1234  15.3375  15.6235  15.9848  16.2112
    16.2213  16.2729  16.3047  16.3392  16.4652  16.4762  16.5161  16.7184
    16.7439  16.7892  17.2452  17.2647  17.3431  17.3507  17.3915  17.4359
    17.5184  17.6028  17.6335  17.6714  17.7544  17.8978  17.9341  17.9410
    18.0565  18.1215  18.1744  18.2185  18.2354  18.2654  18.3016  18.3126
    18.3372  18.3547  18.3782  18.4029  18.4849  18.5557  19.0760  19.5110
    19.7063  19.8126  19.8799  19.8814  19.8846  19.9285  19.9481  19.9886
    20.1286  20.1417  20.1487  20.2445  20.2465  20.3337  20.4132  20.4673
    20.5241  20.5438  20.5503  20.6327  20.6683  20.6710  20.7125  20.7234
    20.7303  20.7411  20.7509  20.8570  20.9485  21.0540  21.1717  21.2370
    21.2928  21.3109  21.4430  21.4671  21.5328  22.0786  23.0129  23.6595
    24.1588  24.2863

          k = 0.1665 0.2778-0.5000 ( 11350 PWs)   bands (ev):

   -66.7630 -66.7628 -66.7241 -66.7238 -66.7098 -66.7096 -66.6954 -66.6951
   -66.6798 -66.6796 -66.6761 -66.6759 -66.6654 -66.6652 -66.6371 -66.6369
   -33.0271 -33.0271 -33.0152 -33.0151 -33.0011 -33.0009 -33.0004 -33.0002
   -32.9755 -32.9755 -32.9620 -32.9619 -32.9197 -32.9196 -32.8821 -32.8819
   -32.8233 -32.8232 -32.8031 -32.8029 -32.7947 -32.7946 -32.7748 -32.7747
   -32.7399 -32.7399 -32.7184 -32.7182 -32.6914 -32.6912 -32.6604 -32.6602
   -32.6501 -32.6501 -32.6112 -32.6112 -32.6019 -32.6017 -32.5927 -32.5925
   -32.5891 -32.5889 -32.5635 -32.5634 -32.5450 -32.5450 -32.5428 -32.5428
    13.2318  13.2323  14.8864  14.8868  15.5087  15.5091  16.3447  16.3452
    16.3644  16.3647  16.3731  16.3734  16.4194  16.4199  16.5484  16.5489
    16.5571  16.5574  17.2979  17.2980  17.3689  17.3690  17.5402  17.5406
    17.5566  17.5570  17.6461  17.6463  17.7552  17.7554  17.9773  17.9776
    18.1331  18.1332  18.1540  18.1543  18.1568  18.1570  18.2044  18.2045
    18.2737  18.2738  18.2795  18.2796  18.3508  18.3510  19.3655  19.3656
    19.7411  19.7413  19.8975  19.8976  19.9898  19.9900  20.0300  20.0301
    20.0760  20.0761  20.0872  20.0874  20.4395  20.4397  20.4448  20.4451
    20.4797  20.4799  20.5777  20.5780  20.6668  20.6669  20.6690  20.6693
    20.7546  20.7548  20.8098  20.8099  20.9617  20.9618  21.1239  21.1241
    21.3954  21.3955  21.4491  21.4491  21.7603  21.7604  23.6456  23.6457
    23.9576  23.9578

          k = 0.1665 0.3889 0.3889 ( 11362 PWs)   bands (ev):

   -66.7660 -66.7437 -66.7430 -66.7267 -66.7107 -66.7029 -66.7022 -66.6959
   -66.6788 -66.6782 -66.6775 -66.6753 -66.6622 -66.6516 -66.6509 -66.6343
   -33.0396 -33.0186 -33.0182 -33.0012 -33.0004 -32.9963 -32.9925 -32.9923
   -32.9885 -32.9823 -32.9767 -32.9470 -32.9214 -32.8925 -32.8496 -32.8451
   -32.8445 -32.8301 -32.8298 -32.8124 -32.8103 -32.8102 -32.8097 -32.7739
   -32.7381 -32.7142 -32.7114 -32.7111 -32.7040 -32.7033 -32.6923 -32.6523
   -32.6495 -32.6244 -32.6237 -32.6158 -32.6150 -32.5973 -32.5906 -32.5906
   -32.5811 -32.5729 -32.5727 -32.5717 -32.5446 -32.5438 -32.5342 -32.5325
    13.1130  14.0825  14.0828  14.7885  15.5640  15.9202  15.9202  16.3531
    16.3719  16.4521  16.4522  16.5184  16.5190  16.5356  16.5628  16.6045
    16.7677  17.0053  17.0055  17.2689  17.3287  17.3781  17.4427  17.4430
    17.4731  17.4732  17.6141  17.6269  17.6364  17.6830  17.8959  17.9761
    17.9768  17.9948  18.0565  18.0569  18.1249  18.1254  18.1382  18.1785
    18.1977  18.2415  18.2418  18.3307  18.3393  18.7491  18.7495  19.3443
    19.7572  19.9207  19.9910  19.9914  20.0125  20.0470  20.0473  20.0590
    20.1802  20.2428  20.2574  20.2575  20.2911  20.2915  20.3070  20.3072
    20.4478  20.4783  20.4813  20.5292  20.5615  20.6503  20.6506  20.6734
    20.6997  20.7003  20.7487  20.7587  20.9183  20.9689  20.9692  20.9898
    21.4225  21.4232  21.4845  21.5627  21.8221  22.6088  22.6089  23.7178
    24.0721  24.7942

          k = 0.1665 0.3889-0.5000 ( 11354 PWs)   bands (ev):

   -66.7557 -66.7555 -66.7358 -66.7355 -66.7070 -66.7068 -66.6995 -66.6993
   -66.6782 -66.6780 -66.6764 -66.6762 -66.6562 -66.6560 -66.6419 -66.6417
   -33.0228 -33.0228 -33.0057 -33.0056 -32.9965 -32.9962 -32.9941 -32.9941
   -32.9901 -32.9899 -32.9694 -32.9693 -32.8764 -32.8763 -32.8712 -32.8709
   -32.8337 -32.8336 -32.8299 -32.8296 -32.8163 -32.8162 -32.7839 -32.7838
   -32.7422 -32.7421 -32.7093 -32.7092 -32.6975 -32.6974 -32.6797 -32.6796
   -32.6368 -32.6365 -32.6013 -32.6012 -32.6005 -32.6003 -32.5932 -32.5931
   -32.5918 -32.5917 -32.5716 -32.5715 -32.5367 -32.5367 -32.5357 -32.5357
    13.5649  13.5653  14.4285  14.4290  15.7774  15.7777  16.2593  16.2597
    16.4587  16.4591  16.4672  16.4677  16.5855  16.5857  16.6709  16.6712
    16.7643  16.7648  17.3043  17.3048  17.3643  17.3646  17.3688  17.3689
    17.3751  17.3752  17.5357  17.5359  17.7862  17.7863  17.8091  17.8093
    17.9365  17.9366  17.9924  17.9927  18.0393  18.0395  18.0747  18.0749
    18.2443  18.2444  18.2833  18.2834  18.4520  18.4521  19.0165  19.0165
    19.9578  19.9579  20.0142  20.0143  20.1167  20.1168  20.1506  20.1508
    20.1654  20.1656  20.1681  20.1683  20.2744  20.2746  20.3816  20.3819
    20.3910  20.3913  20.5201  20.5204  20.5554  20.5555  20.6322  20.6323
    20.6848  20.6850  20.7306  20.7308  20.8336  20.8338  20.9709  20.9710
    21.4826  21.4826  21.5219  21.5219  22.2111  22.2112  23.1594  23.1595
    24.4745  24.4747

          k = 0.1665-0.5000-0.5000 ( 11344 PWs)   bands (ev):

   -66.7467 -66.7467 -66.7461 -66.7459 -66.7037 -66.7036 -66.7030 -66.7028
   -66.6774 -66.6774 -66.6767 -66.6766 -66.6486 -66.6486 -66.6479 -66.6478
   -33.0115 -33.0114 -33.0107 -33.0107 -32.9982 -32.9982 -32.9980 -32.9978
   -32.9788 -32.9788 -32.9787 -32.9785 -32.8533 -32.8533 -32.8528 -32.8525
   -32.8314 -32.8314 -32.8307 -32.8307 -32.8305 -32.8305 -32.8300 -32.8300
   -32.7105 -32.7104 -32.7102 -32.7102 -32.7034 -32.7033 -32.7026 -32.7026
   -32.6169 -32.6168 -32.6162 -32.6160 -32.5947 -32.5947 -32.5946 -32.5946
   -32.5822 -32.5822 -32.5820 -32.5820 -32.5339 -32.5338 -32.5331 -32.5331
    13.9745  13.9746  13.9748  13.9753  16.0554  16.0557  16.0558  16.0561
    16.4867  16.4867  16.4870  16.4877  16.7183  16.7186  16.7187  16.7188
    17.0279  17.0280  17.0282  17.0287  17.3006  17.3009  17.3010  17.3011
    17.4472  17.4476  17.4478  17.4478  17.7875  17.7875  17.7878  17.7880
    17.9040  17.9044  17.9049  17.9049  17.9902  17.9902  17.9905  17.9910
    18.2438  18.2438  18.2440  18.2441  18.7047  18.7048  18.7051  18.7051
    20.0932  20.0932  20.0933  20.0936  20.1750  20.1750  20.1756  20.1757
    20.2788  20.2789  20.2790  20.2792  20.2900  20.2902  20.2903  20.2903
    20.3151  20.3154  20.3156  20.3156  20.5030  20.5030  20.5035  20.5036
    20.7075  20.7075  20.7080  20.7082  20.8777  20.8777  20.8780  20.8782
    21.5316  21.5316  21.5324  21.5324  22.6821  22.6822  22.6822  22.6823
    24.9959  24.9961

          k = 0.2774 0.0556 0.0556 ( 11337 PWs)   bands (ev):

   -66.7958 -66.7421 -66.7049 -66.7042 -66.6952 -66.6944 -66.6889 -66.6887
   -66.6882 -66.6877 -66.6873 -66.6869 -66.6831 -66.6824 -66.6568 -66.6130
   -33.0765 -33.0760 -33.0751 -33.0731 -33.0619 -33.0615 -32.9398 -32.9376
   -32.9321 -32.9292 -32.9287 -32.9150 -32.9069 -32.9035 -32.8978 -32.8975
   -32.8122 -32.8025 -32.7998 -32.7849 -32.7399 -32.7397 -32.7352 -32.7352
   -32.7307 -32.7250 -32.7248 -32.7094 -32.7093 -32.7068 -32.7067 -32.6875
   -32.6798 -32.6681 -32.6676 -32.6386 -32.6362 -32.6355 -32.6293 -32.5728
   -32.5553 -32.5549 -32.5538 -32.5522 -32.5425 -32.5399 -32.5394 -32.5373
    11.8508  14.0154  15.4740  15.4741  15.5013  15.5014  15.6426  15.6426
    15.7471  15.7688  15.8999  15.9184  15.9376  15.9376  16.3168  16.9427
    16.9858  16.9888  17.1744  17.2229  17.2592  17.2698  17.4820  17.4823
    17.5506  17.5509  17.6960  17.6965  17.8930  17.9147  17.9770  17.9774
    18.4532  18.4537  18.5872  18.6151  18.6154  18.6158  18.6532  18.7012
    18.8360  19.0964  19.1110  19.1115  19.3271  19.3276  19.4920  19.4922
    19.5183  19.5303  19.5303  19.5429  19.5897  19.6666  19.7778  20.1936
    20.2194  20.2196  20.3176  20.3177  20.4464  20.4604  20.5060  20.5240
    20.5241  20.6629  20.6638  20.6899  20.7200  20.7220  20.7307  20.7571
    20.7574  20.7723  20.9619  21.0024  21.1295  21.2011  21.2015  21.4371
    21.5146  21.5147  21.6000  21.6002  21.7205  21.7206  22.1004  22.1004
    22.2418  22.2422

          k = 0.2774 0.0556 0.1667 ( 11350 PWs)   bands (ev):

   -66.7926 -66.7402 -66.7208 -66.7038 -66.7026 -66.6942 -66.6907 -66.6883
   -66.6870 -66.6864 -66.6842 -66.6823 -66.6805 -66.6733 -66.6576 -66.6153
   -33.0802 -33.0686 -33.0684 -33.0622 -33.0554 -33.0369 -32.9531 -32.9518
   -32.9493 -32.9382 -32.9358 -32.9340 -32.9116 -32.9091 -32.8831 -32.8593
   -32.8170 -32.8106 -32.7750 -32.7728 -32.7705 -32.7688 -32.7498 -32.7416
   -32.7406 -32.7331 -32.7277 -32.7152 -32.7136 -32.7014 -32.6946 -32.6772
   -32.6747 -32.6608 -32.6520 -32.6404 -32.6238 -32.6060 -32.6057 -32.5987
   -32.5756 -32.5586 -32.5585 -32.5537 -32.5471 -32.5457 -32.5302 -32.5291
    11.9839  14.1096  14.9068  15.3593  15.5489  15.6055  15.7409  15.7626
    15.7930  15.8304  15.9619  15.9793  16.0066  16.2563  16.3658  16.8891
    16.9703  17.0001  17.2350  17.3021  17.3224  17.3324  17.3878  17.4525
    17.4759  17.5117  17.6053  17.6815  17.7875  17.8444  17.8522  18.1905
    18.3474  18.4494  18.4663  18.4871  18.5257  18.5706  18.5902  18.7809
    18.8236  18.9773  19.0045  19.1583  19.2255  19.3050  19.3177  19.3234
    19.4096  19.5024  19.5238  19.5746  19.6046  19.7441  19.7697  20.0885
    20.2151  20.2437  20.2839  20.3181  20.3509  20.3918  20.4295  20.4702
    20.6309  20.6457  20.6475  20.7114  20.7169  20.7367  20.7408  20.7518
    20.8024  20.9147  20.9307  20.9380  20.9518  20.9799  21.0355  21.1352
    21.2516  21.4649  21.5196  21.5994  21.7351  22.2334  22.2544  22.8141
    22.9207  23.0366

          k = 0.2774 0.0556 0.2778 ( 11341 PWs)   bands (ev):

   -66.7863 -66.7368 -66.7365 -66.7105 -66.7024 -66.6931 -66.6928 -66.6878
   -66.6863 -66.6860 -66.6857 -66.6826 -66.6744 -66.6593 -66.6590 -66.6199
   -33.0738 -33.0537 -33.0533 -33.0434 -33.0431 -33.0028 -32.9690 -32.9688
   -32.9656 -32.9647 -32.9555 -32.9527 -32.9300 -32.9003 -32.8584 -32.8182
   -32.8154 -32.8150 -32.8047 -32.8045 -32.7702 -32.7588 -32.7560 -32.7485
   -32.7478 -32.7350 -32.7344 -32.7262 -32.7255 -32.7203 -32.6810 -32.6532
   -32.6447 -32.6444 -32.6377 -32.6344 -32.6310 -32.6069 -32.6006 -32.5794
   -32.5789 -32.5662 -32.5660 -32.5581 -32.5578 -32.5575 -32.5270 -32.5260
    12.2457  14.2854  14.2898  15.1992  15.6731  15.8042  15.8049  15.9266
    15.9277  15.9537  16.0651  16.1091  16.1097  16.4090  16.4140  16.8280
    16.8883  17.0778  17.0787  17.2959  17.3690  17.3926  17.4007  17.4370
    17.4449  17.5088  17.5302  17.7081  17.7314  17.8305  17.8712  18.2425
    18.2426  18.3496  18.3684  18.3692  18.3837  18.3919  18.4465  18.5561
    18.7994  18.8051  18.8623  18.8687  19.0237  19.0754  19.0773  19.1546
    19.5908  19.5914  19.6501  19.6904  19.7365  19.7412  19.9546  20.0402
    20.0427  20.2095  20.2944  20.3011  20.3224  20.3413  20.3488  20.4064
    20.4437  20.6020  20.6036  20.6112  20.7094  20.7191  20.7536  20.8064
    20.8179  20.8198  20.8704  20.8905  20.8961  21.0032  21.0060  21.1832
    21.1843  21.2236  21.5721  21.7639  21.7765  22.4680  22.8849  22.8873
    23.4884  23.4921

          k = 0.2774 0.0556 0.3889 ( 11341 PWs)   bands (ev):

   -66.7770 -66.7517 -66.7317 -66.7183 -66.7004 -66.6954 -66.6914 -66.6877
   -66.6872 -66.6863 -66.6852 -66.6834 -66.6692 -66.6616 -66.6464 -66.6267
   -33.0579 -33.0325 -33.0318 -33.0266 -33.0175 -33.0032 -32.9855 -32.9793
   -32.9786 -32.9771 -32.9739 -32.9618 -32.9578 -32.8828 -32.8653 -32.8342
   -32.8306 -32.8065 -32.7956 -32.7707 -32.7690 -32.7682 -32.7672 -32.7631
   -32.7622 -32.7555 -32.7387 -32.7259 -32.7243 -32.6977 -32.6758 -32.6691
   -32.6508 -32.6296 -32.6251 -32.6170 -32.6150 -32.6103 -32.5904 -32.5780
   -32.5779 -32.5756 -32.5731 -32.5655 -32.5571 -32.5564 -32.5298 -32.5296
    12.6266  13.6764  14.5174  15.0034  15.7940  15.8479  16.0413  16.0802
    16.1172  16.1726  16.1810  16.1986  16.2952  16.3762  16.4253  16.6952
    16.6975  16.7866  17.2769  17.2805  17.3205  17.3402  17.3702  17.5026
    17.5112  17.5507  17.6401  17.6417  17.8892  17.9800  17.9856  18.0092
    18.1201  18.2150  18.2285  18.2854  18.3014  18.3265  18.4115  18.4341
    18.4531  18.5139  18.5174  18.5290  18.6652  18.7335  19.3529  19.3687
    19.7325  19.7477  19.8019  19.8410  19.8413  19.8493  19.8539  19.9426
    20.0511  20.1058  20.1767  20.2174  20.2354  20.3542  20.3671  20.3935
    20.4962  20.5149  20.5337  20.5382  20.6418  20.7148  20.7303  20.7366
    20.7563  20.8225  20.8357  20.8561  20.8658  20.9407  20.9609  21.0280
    21.3555  21.4165  21.5604  21.7164  22.0307  22.6151  22.7573  23.3122
    23.5606  24.1679

          k = 0.2774 0.0556-0.5000 ( 11352 PWs)   bands (ev):

   -66.7655 -66.7652 -66.7256 -66.7253 -66.6981 -66.6978 -66.6897 -66.6895
   -66.6867 -66.6865 -66.6844 -66.6842 -66.6651 -66.6649 -66.6357 -66.6355
   -33.0340 -33.0340 -33.0069 -33.0067 -33.0067 -33.0065 -33.0058 -33.0057
   -32.9880 -32.9879 -32.9786 -32.9786 -32.9150 -32.9150 -32.8607 -32.8605
   -32.8004 -32.8003 -32.7883 -32.7882 -32.7843 -32.7841 -32.7606 -32.7605
   -32.7522 -32.7521 -32.7257 -32.7255 -32.7216 -32.7216 -32.6625 -32.6624
   -32.6591 -32.6589 -32.5984 -32.5982 -32.5948 -32.5946 -32.5932 -32.5930
   -32.5924 -32.5923 -32.5765 -32.5764 -32.5403 -32.5402 -32.5396 -32.5396
    13.1109  13.1114  14.7690  14.7694  15.8558  15.8562  16.1411  16.1414
    16.2668  16.2672  16.3344  16.3348  16.3969  16.3973  16.4603  16.4607
    16.5228  16.5233  17.2901  17.2902  17.3158  17.3159  17.5777  17.5780
    17.5975  17.5980  17.6073  17.6076  17.8040  17.8042  18.1745  18.1748
    18.2050  18.2052  18.2129  18.2131  18.2415  18.2418  18.2479  18.2481
    18.4079  18.4080  18.4195  18.4197  18.4779  18.4780  19.5683  19.5685
    19.6981  19.6981  19.7642  19.7643  19.9371  19.9373  20.0241  20.0243
    20.0420  20.0422  20.0716  20.0717  20.2127  20.2128  20.4510  20.4512
    20.4635  20.4638  20.5997  20.6000  20.6439  20.6440  20.7281  20.7283
    20.7540  20.7542  20.7765  20.7767  20.8712  20.8714  20.9990  20.9991
    21.4850  21.4850  21.5982  21.5982  22.3225  22.3226  23.0532  23.0533
    24.2558  24.2559

          k = 0.2774 0.1667 0.1667 ( 11354 PWs)   bands (ev):

   -66.7894 -66.7385 -66.7199 -66.7192 -66.7022 -66.7015 -66.6952 -66.6867
   -66.6829 -66.6810 -66.6806 -66.6800 -66.6738 -66.6731 -66.6584 -66.6175
   -33.0719 -33.0714 -33.0657 -33.0470 -33.0327 -33.0323 -32.9622 -32.9596
   -32.9590 -32.9506 -32.9484 -32.9250 -32.9247 -32.8727 -32.8727 -32.8601
   -32.8545 -32.8196 -32.7930 -32.7859 -32.7855 -32.7566 -32.7514 -32.7511
   -32.7444 -32.7385 -32.7155 -32.6987 -32.6985 -32.6848 -32.6819 -32.6818
   -32.6785 -32.6782 -32.6417 -32.6416 -32.6211 -32.5981 -32.5974 -32.5928
   -32.5761 -32.5758 -32.5666 -32.5516 -32.5430 -32.5380 -32.5375 -32.5320
    12.1160  14.2061  14.9943  14.9945  15.4702  15.4702  15.7201  15.8875
    15.8875  15.9314  16.0300  16.0336  16.3309  16.3309  16.4282  16.8451
    17.0010  17.0643  17.2009  17.3246  17.3337  17.3342  17.4121  17.4351
    17.4505  17.4508  17.6141  17.6268  17.6271  17.8060  18.0273  18.0275
    18.3145  18.3448  18.3454  18.4334  18.4526  18.5039  18.7006  18.7007
    18.7109  18.7113  18.9461  19.0812  19.0816  19.1052  19.1134  19.1588
    19.4480  19.5500  19.5504  19.6953  19.6955  19.8640  19.9466  20.1375
    20.1376  20.2433  20.3207  20.3409  20.3410  20.4267  20.4276  20.4322
    20.4487  20.4489  20.6414  20.6433  20.6654  20.6888  20.7039  20.7045
    20.7047  20.9189  20.9778  20.9782  21.0060  21.0804  21.1533  21.1640
    21.1642  21.4435  21.4533  21.4536  21.8545  21.8545  22.7472  23.0820
    23.0822  23.5098

          k = 0.2774 0.1667 0.2778 ( 11356 PWs)   bands (ev):

   -66.7832 -66.7352 -66.7349 -66.7172 -66.7095 -66.7003 -66.7000 -66.6894
   -66.6802 -66.6801 -66.6799 -66.6745 -66.6739 -66.6599 -66.6596 -66.6220
   -33.0651 -33.0550 -33.0547 -33.0244 -33.0241 -33.0010 -32.9747 -32.9728
   -32.9724 -32.9720 -32.9578 -32.9346 -32.9217 -32.8971 -32.8658 -32.8338
   -32.8310 -32.8306 -32.8205 -32.8202 -32.7968 -32.7716 -32.7709 -32.7695
   -32.7233 -32.7130 -32.7126 -32.7056 -32.7049 -32.6835 -32.6829 -32.6677
   -32.6573 -32.6550 -32.6452 -32.6450 -32.6229 -32.5972 -32.5857 -32.5782
   -32.5781 -32.5750 -32.5746 -32.5529 -32.5526 -32.5506 -32.5346 -32.5321
    12.3755  14.3866  14.3908  15.1517  15.3155  15.6839  15.6841  16.0469
    16.0648  16.0661  16.1348  16.1610  16.4359  16.4950  16.4999  16.8169
    17.0014  17.0546  17.0548  17.2612  17.2818  17.3973  17.4057  17.4800
    17.4903  17.5052  17.5277  17.5351  17.7819  17.7920  17.8705  18.1389
    18.1403  18.2375  18.2839  18.2873  18.3459  18.3609  18.4468  18.5136
    18.5731  18.5782  18.7218  18.7285  18.7931  18.8589  18.8607  19.3003
    19.6535  19.6542  19.6890  19.8136  19.8864  19.8915  20.0296  20.0715
    20.2247  20.2303  20.2315  20.2333  20.2488  20.3238  20.3613  20.3691
    20.4035  20.6102  20.6125  20.6138  20.6425  20.6742  20.6825  20.6838
    20.7002  20.8847  20.8895  21.0012  21.0297  21.1465  21.1474  21.1653
    21.1687  21.2586  21.4349  21.5345  21.5388  22.4031  22.4044  23.3543
    24.1154  24.1346

          k = 0.2774 0.1667 0.3889 ( 11356 PWs)   bands (ev):

   -66.7742 -66.7496 -66.7301 -66.7171 -66.7138 -66.7049 -66.6979 -66.6924
   -66.6799 -66.6796 -66.6777 -66.6747 -66.6695 -66.6622 -66.6476 -66.6285
   -33.0499 -33.0370 -33.0312 -33.0132 -33.0004 -32.9949 -32.9921 -32.9874
   -32.9778 -32.9686 -32.9667 -32.9629 -32.9282 -32.9050 -32.8746 -32.8527
   -32.8487 -32.8136 -32.8053 -32.8000 -32.7961 -32.7869 -32.7858 -32.7852
   -32.7442 -32.7216 -32.7121 -32.6977 -32.6953 -32.6873 -32.6805 -32.6705
   -32.6509 -32.6345 -32.6332 -32.6220 -32.6149 -32.6062 -32.5932 -32.5833
   -32.5742 -32.5738 -32.5669 -32.5576 -32.5567 -32.5564 -32.5371 -32.5348
    12.7526  13.7886  14.6250  15.1211  15.3410  15.6245  15.9847  16.2114
    16.2207  16.2746  16.3046  16.3365  16.4675  16.4737  16.5167  16.7164
    16.7428  16.7877  17.2428  17.2655  17.3433  17.3506  17.3902  17.4352
    17.5107  17.6116  17.6271  17.6721  17.7528  17.8992  17.9361  17.9474
    18.0584  18.1195  18.1811  18.2167  18.2400  18.2707  18.2963  18.3108
    18.3372  18.3599  18.3791  18.3978  18.4797  18.5610  19.0780  19.5122
    19.7076  19.8108  19.8773  19.8816  19.8856  19.9262  19.9441  19.9886
    20.1318  20.1412  20.1456  20.2400  20.2488  20.3326  20.4111  20.4688
    20.5237  20.5414  20.5483  20.6286  20.6729  20.6756  20.7126  20.7305
    20.7349  20.7477  20.7523  20.8540  20.9512  21.0594  21.1773  21.2377
    21.2920  21.3087  21.4418  21.4678  21.5301  22.0789  23.0129  23.6719
    24.1685  24.2867

          k = 0.2774 0.1667-0.5000 ( 11356 PWs)   bands (ev):

   -66.7630 -66.7628 -66.7242 -66.7240 -66.7097 -66.7095 -66.6954 -66.6951
   -66.6798 -66.6796 -66.6760 -66.6758 -66.6655 -66.6653 -66.6372 -66.6370
   -33.0275 -33.0274 -33.0150 -33.0149 -33.0012 -33.0009 -33.0005 -33.0003
   -32.9761 -32.9760 -32.9621 -32.9620 -32.9198 -32.9198 -32.8815 -32.8812
   -32.8233 -32.8232 -32.8020 -32.8018 -32.7955 -32.7953 -32.7750 -32.7749
   -32.7401 -32.7400 -32.7183 -32.7182 -32.6920 -32.6918 -32.6597 -32.6595
   -32.6499 -32.6499 -32.6115 -32.6114 -32.6021 -32.6019 -32.5928 -32.5926
   -32.5887 -32.5885 -32.5638 -32.5637 -32.5447 -32.5447 -32.5431 -32.5430
    13.2312  13.2317  14.8831  14.8835  15.5110  15.5113  16.3441  16.3445
    16.3636  16.3639  16.3735  16.3738  16.4207  16.4211  16.5462  16.5467
    16.5566  16.5569  17.2980  17.2982  17.3681  17.3682  17.5389  17.5392
    17.5534  17.5539  17.6405  17.6408  17.7632  17.7634  17.9774  17.9777
    18.1351  18.1353  18.1551  18.1554  18.1566  18.1568  18.2103  18.2104
    18.2757  18.2759  18.2797  18.2798  18.3456  18.3458  19.3671  19.3672
    19.7424  19.7426  19.8957  19.8958  19.9872  19.9874  20.0306  20.0307
    20.0790  20.0792  20.0821  20.0822  20.4400  20.4402  20.4431  20.4434
    20.4776  20.4778  20.5782  20.5784  20.6618  20.6620  20.6734  20.6737
    20.7620  20.7622  20.8133  20.8135  20.9630  20.9631  21.1298  21.1298
    21.3943  21.3944  21.4467  21.4467  21.7603  21.7603  23.6458  23.6459
    23.9688  23.9690

          k = 0.2774 0.2778 0.2778 ( 11351 PWs)   bands (ev):

   -66.7773 -66.7321 -66.7319 -66.7313 -66.7079 -66.7075 -66.7071 -66.6933
   -66.6781 -66.6750 -66.6747 -66.6742 -66.6615 -66.6612 -66.6607 -66.6260
   -33.0483 -33.0478 -33.0478 -32.9980 -32.9978 -32.9976 -32.9814 -32.9814
   -32.9808 -32.9803 -32.9439 -32.9429 -32.9114 -32.9112 -32.8582 -32.8580
   -32.8579 -32.8337 -32.8332 -32.8327 -32.8050 -32.7942 -32.7935 -32.7931
   -32.6879 -32.6871 -32.6869 -32.6865 -32.6854 -32.6853 -32.6851 -32.6790
   -32.6788 -32.6478 -32.6473 -32.6473 -32.6098 -32.5934 -32.5932 -32.5930
   -32.5685 -32.5679 -32.5676 -32.5506 -32.5504 -32.5500 -32.5447 -32.5446
    12.6301  14.5766  14.5803  14.5806  15.5407  15.5408  15.5413  16.2213
    16.2225  16.2226  16.2607  16.2640  16.6238  16.6282  16.6282  16.8357
    17.0425  17.0429  17.0431  17.0511  17.2603  17.2627  17.4512  17.4593
    17.4595  17.6223  17.6281  17.6542  17.6611  17.6613  17.9968  17.9975
    17.9977  18.1489  18.1495  18.1531  18.2546  18.2550  18.2599  18.3127
    18.3187  18.4507  18.4511  18.4571  18.5902  18.5904  18.5922  19.5099
    19.6961  19.7886  19.7903  19.7907  20.0117  20.0120  20.0169  20.1556
    20.1557  20.1596  20.3203  20.3267  20.3531  20.3531  20.3601  20.4937
    20.4944  20.4946  20.6166  20.6177  20.6181  20.6197  20.6201  20.6442
    20.6492  20.8939  20.8966  20.8969  21.1278  21.1309  21.1314  21.1918
    21.1957  21.2559  21.2562  21.2598  22.0084  22.0084  22.0089  24.2984
    24.4140  24.4303

          k = 0.2774 0.2778 0.3889 ( 11358 PWs)   bands (ev):

   -66.7688 -66.7455 -66.7272 -66.7269 -66.7148 -66.7145 -66.7047 -66.6974
   -66.6767 -66.6750 -66.6702 -66.6699 -66.6634 -66.6632 -66.6497 -66.6321
   -33.0343 -33.0338 -33.0233 -32.9967 -32.9964 -32.9937 -32.9853 -32.9818
   -32.9652 -32.9651 -32.9617 -32.9540 -32.9237 -32.8923 -32.8922 -32.8840
   -32.8675 -32.8363 -32.8356 -32.8221 -32.8151 -32.8138 -32.8130 -32.7750
   -32.7274 -32.7145 -32.6895 -32.6870 -32.6723 -32.6715 -32.6583 -32.6580
   -32.6525 -32.6521 -32.6386 -32.6153 -32.6117 -32.6115 -32.5996 -32.5912
   -32.5733 -32.5629 -32.5607 -32.5604 -32.5546 -32.5515 -32.5511 -32.5427
    12.9991  14.0040  14.8287  14.8320  15.3487  15.3503  15.8605  16.3882
    16.3891  16.4074  16.4251  16.4550  16.6538  16.6558  16.6680  16.6749
    16.8082  16.8262  17.1710  17.1720  17.2918  17.4015  17.4568  17.4614
    17.5205  17.5498  17.5575  17.7304  17.7345  17.7896  17.8422  17.8451
    17.9844  17.9873  18.0492  18.0499  18.0880  18.0984  18.1119  18.1230
    18.1953  18.2001  18.2023  18.2574  18.3299  18.3320  18.7425  19.3256
    19.7481  19.9283  19.9613  19.9641  20.0657  20.0691  20.1069  20.1087
    20.2131  20.2678  20.2711  20.2761  20.2812  20.3019  20.4067  20.4214
    20.5494  20.5610  20.6216  20.6220  20.6222  20.6261  20.6551  20.6605
    20.6806  20.7134  20.8909  21.0113  21.0254  21.0267  21.1647  21.1691
    21.2351  21.2712  21.2756  21.2808  21.6545  21.6552  22.5503  23.6997
    24.7486  24.7652

          k = 0.2774 0.2778-0.5000 ( 11354 PWs)   bands (ev):

   -66.7582 -66.7580 -66.7215 -66.7213 -66.7212 -66.7210 -66.7014 -66.7011
   -66.6757 -66.6755 -66.6665 -66.6663 -66.6662 -66.6660 -66.6401 -66.6399
   -33.0158 -33.0157 -33.0154 -33.0153 -32.9918 -32.9915 -32.9895 -32.9893
   -32.9750 -32.9749 -32.9291 -32.9290 -32.9290 -32.9290 -32.8980 -32.8978
   -32.8536 -32.8535 -32.8289 -32.8288 -32.8281 -32.8280 -32.7710 -32.7710
   -32.7445 -32.7444 -32.6902 -32.6901 -32.6605 -32.6603 -32.6600 -32.6599
   -32.6335 -32.6335 -32.6333 -32.6333 -32.6032 -32.6030 -32.5933 -32.5932
   -32.5868 -32.5866 -32.5548 -32.5548 -32.5544 -32.5544 -32.5462 -32.5462
    13.4651  13.4656  15.1016  15.1020  15.1041  15.1045  16.2504  16.2509
    16.5464  16.5465  16.5467  16.5468  16.5796  16.5800  16.5924  16.5929
    16.6899  16.6902  17.3416  17.3418  17.4253  17.4254  17.4593  17.4597
    17.4606  17.4610  17.6854  17.6857  17.6916  17.6918  17.7486  17.7489
    17.9620  17.9623  18.0540  18.0541  18.0567  18.0568  18.1008  18.1009
    18.1028  18.1030  18.1304  18.1306  18.1843  18.1844  18.9955  18.9956
    20.0045  20.0046  20.0762  20.0764  20.0832  20.0833  20.0840  20.0841
    20.1342  20.1344  20.1380  20.1382  20.4422  20.4424  20.4755  20.4758
    20.5385  20.5388  20.5723  20.5725  20.6232  20.6234  20.6564  20.6566
    20.6620  20.6622  20.8308  20.8310  21.2290  21.2291  21.2337  21.2338
    21.2906  21.2906  21.3189  21.3190  21.3203  21.3204  23.1187  23.1188
    25.0240  25.0324

          k = 0.2774 0.3889 0.3889 ( 11377 PWs)   bands (ev):

   -66.7610 -66.7400 -66.7393 -66.7238 -66.7228 -66.7116 -66.7109 -66.7024
[...]
   -32.8063 -32.8063 -32.8034 -32.8033 -32.7734 -32.7733 -32.7731 -32.7730
   -32.7337 -32.7335 -32.7023 -32.7022 -32.6860 -32.6859 -32.6858 -32.6857
   -32.6229 -32.6228 -32.6226 -32.6226 -32.6062 -32.6060 -32.5960 -32.5959
   -32.5836 -32.5835 -32.5588 -32.5587 -32.5582 -32.5580 -32.5516 -32.5515
    12.9955  12.9960  15.3079  15.3081  15.3082  15.3083  16.1993  16.1993
    16.1994  16.1995  16.3315  16.3316  16.3562  16.3564  16.4324  16.4329
    16.4543  16.4545  17.2368  17.2369  17.3017  17.3018  17.7298  17.7299
    17.7304  17.7305  17.7476  17.7477  17.7479  17.7479  18.1983  18.1984
    18.1985  18.1985  18.2469  18.2470  18.3109  18.3110  18.3114  18.3116
    18.3659  18.3660  18.3677  18.3678  18.4384  18.4384  19.4940  19.4942
    19.7265  19.7266  19.8694  19.8696  19.9033  19.9033  19.9034  19.9034
    20.0314  20.0316  20.0317  20.0318  20.4913  20.4916  20.4998  20.4999
    20.5274  20.5277  20.6288  20.6289  20.6793  20.6793  20.7866  20.7866
    20.7944  20.7944  20.7944  20.7944  21.3176  21.3176  21.3179  21.3179
    21.3238  21.3240  21.3597  21.3597  21.3599  21.3599  23.5157  23.5160
    23.5161  23.5164

          k =-0.4994 0.1667 0.2778 ( 11356 PWs)   bands (ev):

   -66.7630 -66.7629 -66.7241 -66.7240 -66.7097 -66.7096 -66.6953 -66.6952
   -66.6797 -66.6796 -66.6760 -66.6759 -66.6654 -66.6653 -66.6371 -66.6371
   -33.0277 -33.0276 -33.0153 -33.0153 -33.0008 -33.0008 -33.0005 -33.0004
   -32.9762 -32.9761 -32.9621 -32.9620 -32.9200 -32.9199 -32.8811 -32.8810
   -32.8237 -32.8236 -32.8020 -32.8020 -32.7948 -32.7947 -32.7748 -32.7747
   -32.7400 -32.7399 -32.7187 -32.7186 -32.6913 -32.6913 -32.6597 -32.6595
   -32.6502 -32.6501 -32.6115 -32.6114 -32.6021 -32.6020 -32.5929 -32.5928
   -32.5886 -32.5885 -32.5638 -32.5637 -32.5450 -32.5448 -32.5428 -32.5427
    13.2292  13.2297  14.8848  14.8851  15.5104  15.5106  16.3424  16.3427
    16.3649  16.3651  16.3742  16.3744  16.4175  16.4177  16.5467  16.5470
    16.5543  16.5544  17.2928  17.2928  17.3641  17.3642  17.5387  17.5388
    17.5536  17.5538  17.6464  17.6464  17.7632  17.7633  17.9835  17.9836
    18.1324  18.1325  18.1591  18.1592  18.1601  18.1601  18.2105  18.2106
    18.2756  18.2757  18.2800  18.2800  18.3469  18.3469  19.3686  19.3688
    19.7439  19.7441  19.8943  19.8944  19.9841  19.9843  20.0272  20.0274
    20.0740  20.0741  20.0806  20.0807  20.4438  20.4439  20.4455  20.4458
    20.4816  20.4818  20.5783  20.5785  20.6671  20.6671  20.6745  20.6745
    20.7622  20.7623  20.8160  20.8161  20.9614  20.9616  21.1283  21.1284
    21.3934  21.3935  21.4473  21.4473  21.7595  21.7597  23.6463  23.6467
    23.9659  23.9663

          k =-0.4994 0.1667 0.3889 ( 11360 PWs)   bands (ev):

   -66.7557 -66.7556 -66.7357 -66.7357 -66.7068 -66.7068 -66.6994 -66.6993
   -66.6781 -66.6780 -66.6764 -66.6763 -66.6562 -66.6561 -66.6419 -66.6418
   -33.0234 -33.0233 -33.0057 -33.0056 -32.9964 -32.9963 -32.9948 -32.9948
   -32.9900 -32.9899 -32.9695 -32.9694 -32.8766 -32.8765 -32.8700 -32.8700
   -32.8342 -32.8341 -32.8288 -32.8287 -32.8165 -32.8164 -32.7840 -32.7839
   -32.7423 -32.7422 -32.7094 -32.7093 -32.6976 -32.6975 -32.6797 -32.6796
   -32.6361 -32.6360 -32.6015 -32.6014 -32.5999 -32.5998 -32.5935 -32.5934
   -32.5921 -32.5920 -32.5720 -32.5719 -32.5365 -32.5364 -32.5358 -32.5357
    13.5623  13.5628  14.4266  14.4269  15.7783  15.7785  16.2577  16.2580
    16.4593  16.4596  16.4670  16.4673  16.5857  16.5858  16.6683  16.6684
    16.7612  16.7615  17.3010  17.3012  17.3624  17.3625  17.3652  17.3653
    17.3720  17.3721  17.5365  17.5366  17.7899  17.7899  17.8170  17.8171
    17.9350  17.9351  17.9974  17.9975  18.0461  18.0462  18.0774  18.0775
    18.2400  18.2401  18.2792  18.2792  18.4575  18.4575  19.0201  19.0202
    19.9565  19.9566  20.0167  20.0168  20.1098  20.1100  20.1441  20.1442
    20.1641  20.1643  20.1647  20.1649  20.2771  20.2771  20.3799  20.3802
    20.3917  20.3919  20.5214  20.5215  20.5566  20.5566  20.6322  20.6324
    20.6918  20.6918  20.7385  20.7386  20.8413  20.8413  20.9777  20.9778
    21.4804  21.4805  21.5199  21.5200  22.2104  22.2107  23.1598  23.1602
    24.4826  24.4830

          k =-0.4994 0.1667-0.5000 ( 11352 PWs)   bands (ev):

   -66.7466 -66.7466 -66.7463 -66.7462 -66.7034 -66.7034 -66.7031 -66.7030
   -66.6772 -66.6771 -66.6769 -66.6768 -66.6485 -66.6485 -66.6482 -66.6481
   -33.0119 -33.0117 -33.0116 -33.0116 -32.9981 -32.9981 -32.9980 -32.9979
   -32.9790 -32.9789 -32.9788 -32.9788 -32.8519 -32.8519 -32.8517 -32.8516
   -32.8315 -32.8314 -32.8314 -32.8313 -32.8306 -32.8304 -32.8302 -32.8301
   -32.7107 -32.7105 -32.7104 -32.7104 -32.7033 -32.7032 -32.7031 -32.7030
   -32.6161 -32.6161 -32.6159 -32.6157 -32.5950 -32.5949 -32.5949 -32.5948
   -32.5825 -32.5824 -32.5824 -32.5823 -32.5336 -32.5334 -32.5333 -32.5332
    13.9721  13.9725  13.9725  13.9729  16.0551  16.0553  16.0554  16.0557
    16.4870  16.4873  16.4874  16.4876  16.7169  16.7169  16.7171  16.7173
    17.0242  17.0246  17.0248  17.0249  17.2987  17.2989  17.2991  17.2992
    17.4474  17.4474  17.4476  17.4477  17.7872  17.7872  17.7873  17.7873
    17.9118  17.9119  17.9119  17.9121  17.9936  17.9938  17.9938  17.9939
    18.2395  18.2396  18.2396  18.2397  18.7092  18.7093  18.7094  18.7094
    20.0938  20.0939  20.0940  20.0941  20.1688  20.1689  20.1690  20.1691
    20.2783  20.2786  20.2786  20.2787  20.2868  20.2870  20.2870  20.2872
    20.3158  20.3159  20.3159  20.3161  20.5046  20.5048  20.5050  20.5050
    20.7152  20.7153  20.7155  20.7155  20.8858  20.8860  20.8860  20.8861
    21.5299  21.5300  21.5301  21.5301  22.6819  22.6820  22.6822  22.6823
    25.0038  25.0041

          k =-0.4994 0.2778 0.2778 ( 11354 PWs)   bands (ev):

   -66.7582 -66.7581 -66.7216 -66.7216 -66.7209 -66.7208 -66.7013 -66.7012
   -66.6756 -66.6755 -66.6666 -66.6666 -66.6659 -66.6658 -66.6401 -66.6400
   -33.0161 -33.0161 -33.0156 -33.0155 -32.9914 -32.9913 -32.9895 -32.9894
   -32.9754 -32.9753 -32.9293 -32.9292 -32.9292 -32.9291 -32.8973 -32.8972
   -32.8541 -32.8539 -32.8284 -32.8283 -32.8279 -32.8278 -32.7710 -32.7709
   -32.7443 -32.7442 -32.6905 -32.6904 -32.6602 -32.6600 -32.6598 -32.6597
   -32.6335 -32.6335 -32.6334 -32.6334 -32.6035 -32.6033 -32.5935 -32.5934
   -32.5866 -32.5864 -32.5551 -32.5550 -32.5544 -32.5543 -32.5461 -32.5460
    13.4631  13.4636  15.1030  15.1032  15.1033  15.1035  16.2491  16.2494
    16.5475  16.5476  16.5477  16.5478  16.5758  16.5759  16.5938  16.5942
    16.6875  16.6876  17.3365  17.3365  17.4216  17.4217  17.4578  17.4580
    17.4585  17.4586  17.6922  17.6923  17.6924  17.6924  17.7543  17.7543
    17.9671  17.9672  18.0522  18.0523  18.0527  18.0529  18.1044  18.1044
    18.1045  18.1045  18.1347  18.1348  18.1817  18.1818  18.9973  18.9973
    20.0059  20.0060  20.0723  20.0725  20.0815  20.0816  20.0817  20.0818
    20.1331  20.1333  20.1335  20.1336  20.4425  20.4427  20.4785  20.4788
    20.5391  20.5393  20.5772  20.5773  20.6253  20.6253  20.6622  20.6622
    20.6622  20.6623  20.8352  20.8353  21.2316  21.2316  21.2319  21.2319
    21.2875  21.2876  21.3185  21.3186  21.3187  21.3189  23.1188  23.1192
    25.0338  25.0341

          k =-0.4994 0.2778 0.3889 ( 11364 PWs)   bands (ev):

   -66.7512 -66.7512 -66.7324 -66.7323 -66.7174 -66.7173 -66.7071 -66.7070
   -66.6723 -66.6722 -66.6677 -66.6676 -66.6578 -66.6577 -66.6445 -66.6444
   -33.0090 -33.0089 -33.0009 -33.0008 -32.9842 -32.9842 -32.9826 -32.9825
   -32.9744 -32.9743 -32.9424 -32.9423 -32.8981 -32.8980 -32.8910 -32.8909
   -32.8731 -32.8730 -32.8584 -32.8584 -32.8543 -32.8542 -32.8090 -32.8088
   -32.7142 -32.7141 -32.6716 -32.6715 -32.6609 -32.6608 -32.6583 -32.6582
   -32.6324 -32.6322 -32.6179 -32.6178 -32.5977 -32.5977 -32.5976 -32.5975
   -32.5934 -32.5933 -32.5686 -32.5685 -32.5496 -32.5494 -32.5472 -32.5471
    13.7962  13.7967  14.6546  14.6550  15.4030  15.4033  16.0494  16.0497
    16.6331  16.6334  16.6436  16.6438  16.7868  16.7869  16.8061  16.8063
    16.8458  16.8459  17.2941  17.2943  17.3209  17.3210  17.4000  17.4001
    17.4169  17.4170  17.6064  17.6065  17.6218  17.6218  17.7573  17.7574
    17.8043  17.8045  17.8227  17.8227  17.9444  17.9445  17.9863  17.9864
    18.0162  18.0163  18.0922  18.0922  18.1548  18.1548  18.6437  18.6437
    20.1731  20.1733  20.1976  20.1976  20.2007  20.2008  20.2211  20.2213
    20.2595  20.2596  20.3029  20.3030  20.4218  20.4220  20.4349  20.4351
    20.4951  20.4953  20.5265  20.5266  20.5618  20.5618  20.6140  20.6141
    20.6483  20.6483  20.8468  20.8468  20.9495  20.9497  21.0323  21.0323
    21.2650  21.2651  21.2873  21.2873  21.7379  21.7381  22.6397  22.6401
    25.5663  25.5666

          k =-0.4994 0.2778-0.5000 ( 11360 PWs)   bands (ev):

   -66.7426 -66.7426 -66.7423 -66.7422 -66.7127 -66.7127 -66.7124 -66.7123
   -66.6698 -66.6698 -66.6695 -66.6694 -66.6506 -66.6506 -66.6503 -66.6502
   -32.9965 -32.9964 -32.9963 -32.9963 -32.9877 -32.9877 -32.9876 -32.9875
   -32.9581 -32.9580 -32.9579 -32.9579 -32.8833 -32.8832 -32.8831 -32.8830
   -32.8726 -32.8725 -32.8724 -32.8723 -32.8500 -32.8499 -32.8498 -32.8497
   -32.6854 -32.6853 -32.6852 -32.6852 -32.6636 -32.6634 -32.6633 -32.6632
   -32.6096 -32.6095 -32.6094 -32.6092 -32.6058 -32.6057 -32.6057 -32.6056
   -32.5844 -32.5842 -32.5842 -32.5841 -32.5476 -32.5474 -32.5473 -32.5473
    14.2045  14.2050  14.2050  14.2054  15.7420  15.7423  15.7424  15.7427
    16.6625  16.6629  16.6630  16.6631  16.9535  16.9535  16.9537  16.9539
    17.0580  17.0583  17.0586  17.0587  17.2545  17.2547  17.2549  17.2550
    17.5170  17.5170  17.5171  17.5173  17.6516  17.6517  17.6518  17.6518
    17.8265  17.8267  17.8268  17.8269  17.8527  17.8528  17.8528  17.8530
    18.0350  18.0351  18.0352  18.0352  18.3474  18.3475  18.3476  18.3476
    20.2322  20.2323  20.2324  20.2325  20.3247  20.3249  20.3250  20.3251
    20.3630  20.3630  20.3631  20.3632  20.3838  20.3840  20.3840  20.3842
    20.4875  20.4877  20.4879  20.4879  20.6181  20.6181  20.6181  20.6184
    20.6297  20.6298  20.6300  20.6300  20.8989  20.8990  20.8991  20.8992
    21.2904  21.2904  21.2905  21.2906  22.1821  22.1821  22.1823  22.1825
    26.0957  26.0959

          k =-0.4994 0.3889 0.3889 ( 11388 PWs)   bands (ev):

   -66.7449 -66.7448 -66.7279 -66.7279 -66.7272 -66.7272 -66.7146 -66.7145
   -66.6674 -66.6673 -66.6604 -66.6603 -66.6597 -66.6596 -66.6484 -66.6483
   -32.9893 -32.9892 -32.9887 -32.9886 -32.9700 -32.9699 -32.9697 -32.9696
   -32.9546 -32.9545 -32.9194 -32.9193 -32.9105 -32.9104 -32.9104 -32.9103
   -32.9044 -32.9043 -32.8887 -32.8887 -32.8882 -32.8881 -32.8406 -32.8405
   -32.6863 -32.6862 -32.6408 -32.6407 -32.6377 -32.6377 -32.6376 -32.6376
   -32.6287 -32.6286 -32.6282 -32.6281 -32.6071 -32.6070 -32.5995 -32.5993
   -32.5906 -32.5905 -32.5685 -32.5684 -32.5679 -32.5677 -32.5614 -32.5613
    14.1284  14.1288  14.9739  14.9742  14.9743  14.9745  15.7344  15.7347
    16.8367  16.8371  16.8821  16.8822  16.8993  16.8995  16.8995  16.8997
    17.0389  17.0390  17.2686  17.2688  17.2692  17.2693  17.4451  17.4452
    17.4859  17.4860  17.5441  17.5443  17.5667  17.5668  17.6814  17.6816
    17.6817  17.6817  17.7894  17.7894  17.7899  17.7900  17.8538  17.8538
    17.8539  17.8540  17.9041  17.9042  17.9195  17.9195  18.2813  18.2814
    20.2630  20.2632  20.2829  20.2830  20.2832  20.2833  20.4109  20.4109
    20.4112  20.4112  20.4347  20.4350  20.4570  20.4572  20.5191  20.5193
    20.5405  20.5406  20.5464  20.5465  20.5465  20.5465  20.6302  20.6304
    20.6720  20.6721  20.8250  20.8251  21.0442  21.0442  21.0445  21.0446
    21.0607  21.0607  21.3372  21.3373  21.3374  21.3375  22.1806  22.1809
    26.7348  26.7352

          k =-0.4994 0.3889-0.5000 ( 11388 PWs)   bands (ev):

   -66.7370 -66.7370 -66.7367 -66.7366 -66.7217 -66.7216 -66.7214 -66.7212
   -66.6634 -66.6633 -66.6631 -66.6630 -66.6538 -66.6538 -66.6535 -66.6533
   -32.9741 -32.9740 -32.9739 -32.9738 -32.9696 -32.9695 -32.9694 -32.9693
   -32.9325 -32.9323 -32.9323 -32.9322 -32.9152 -32.9151 -32.9150 -32.9149
   -32.9108 -32.9107 -32.9106 -32.9105 -32.8756 -32.8755 -32.8754 -32.8754
   -32.6609 -32.6607 -32.6607 -32.6606 -32.6270 -32.6269 -32.6268 -32.6267
   -32.6204 -32.6203 -32.6203 -32.6202 -32.6022 -32.6021 -32.6021 -32.6019
   -32.5888 -32.5887 -32.5887 -32.5885 -32.5684 -32.5683 -32.5682 -32.5681
    14.5332  14.5336  14.5337  14.5341  15.3519  15.3522  15.3524  15.3527
    16.9016  16.9019  16.9021  16.9022  17.1033  17.1036  17.1038  17.1039
    17.1879  17.1880  17.1882  17.1883  17.2064  17.2066  17.2069  17.2070
    17.5978  17.5978  17.5980  17.5981  17.6129  17.6130  17.6131  17.6131
    17.6148  17.6149  17.6149  17.6150  17.7743  17.7744  17.7744  17.7746
    17.8352  17.8352  17.8353  17.8353  17.9841  17.9842  17.9842  17.9843
    20.3185  20.3186  20.3187  20.3188  20.3752  20.3755  20.3756  20.3756
    20.4598  20.4600  20.4601  20.4602  20.5285  20.5285  20.5287  20.5288
    20.5421  20.5422  20.5422  20.5424  20.5929  20.5929  20.5930  20.5931
    20.8620  20.8621  20.8621  20.8622  20.9737  20.9737  20.9738  20.9740
    21.0177  21.0177  21.0178  21.0179  21.7508  21.7508  21.7510  21.7511
    27.2881  27.2884

          k =-0.4994-0.5000-0.5000 ( 11296 PWs)   bands (ev):

   -66.7302 -66.7301 -66.7301 -66.7301 -66.7297 -66.7296 -66.7292 -66.7290
   -66.6581 -66.6580 -66.6580 -66.6580 -66.6576 -66.6575 -66.6571 -66.6569
   -32.9449 -32.9448 -32.9448 -32.9447 -32.9446 -32.9444 -32.9443 -32.9443
   -32.9443 -32.9443 -32.9443 -32.9442 -32.9436 -32.9436 -32.9435 -32.9435
   -32.9042 -32.9040 -32.9040 -32.9040 -32.9039 -32.9039 -32.9038 -32.9038
   -32.6383 -32.6382 -32.6381 -32.6381 -32.6381 -32.6380 -32.6380 -32.6380
   -32.5955 -32.5955 -32.5954 -32.5953 -32.5952 -32.5952 -32.5952 -32.5951
   -32.5950 -32.5948 -32.5947 -32.5947 -32.5947 -32.5946 -32.5945 -32.5945
    14.9300  14.9301  14.9303  14.9304  14.9306  14.9307  14.9309  14.9311
    17.1538  17.1538  17.1539  17.1540  17.1540  17.1543  17.1548  17.1549
    17.1575  17.1577  17.1577  17.1579  17.1580  17.1581  17.1583  17.1584
    17.6669  17.6671  17.6672  17.6672  17.6673  17.6673  17.6673  17.6673
    17.6821  17.6821  17.6824  17.6825  17.6828  17.6828  17.6829  17.6829
    17.6876  17.6876  17.6877  17.6877  17.6878  17.6878  17.6878  17.6879
    20.4204  20.4204  20.4205  20.4205  20.4207  20.4207  20.4209  20.4213
    20.4219  20.4219  20.4222  20.4222  20.4225  20.4227  20.4229  20.4230
    20.7574  20.7575  20.7576  20.7576  20.7576  20.7577  20.7578  20.7580
    20.7632  20.7633  20.7633  20.7635  20.7638  20.7638  20.7638  20.7638
    21.3529  21.3529  21.3529  21.3530  21.3530  21.3532  21.3532  21.3533
    28.4484  28.4504

     the Fermi energy is    20.4881 ev

!    total energy              =   -5267.70767305 Ry
     Harris-Foulkes estimate   =   -5267.70769652 Ry
     estimated scf accuracy    <       0.00002780 Ry

     total all-electron energy =    -40728.452202 Ry

     The total energy is the sum of the following terms:

     one-electron contribution =   -1621.82008052 Ry
     hartree contribution      =     989.70612078 Ry
     xc contribution           =    -442.94842757 Ry
     ewald contribution        =   -2867.75577417 Ry
     one-center paw contrib.   =   -1324.75837466 Ry
     smearing contrib. (-TS)   =      -0.13113691 Ry

     convergence has been achieved in  12 iterations

     Forces acting on atoms (cartesian axes, Ry/au):

     atom    1 type  1   force =     0.00000000    0.00000000    0.00000000
     atom    2 type  1   force =     0.00041850   -0.00028260   -0.00028260
     atom    3 type  1   force =     0.00000000    0.00000000    0.00000000
     atom    4 type  1   force =     0.00041850   -0.00028260    0.00028260
     atom    5 type  1   force =     0.00000000    0.00000000    0.00000000
     atom    6 type  1   force =     0.00041850    0.00028260   -0.00028260
     atom    7 type  1   force =     0.00000000    0.00000000    0.00000000
     atom    8 type  1   force =     0.00041850    0.00028260    0.00028260
     atom    9 type  1   force =     0.00000000    0.00000000    0.00000000
     atom   10 type  1   force =    -0.00041850   -0.00028260   -0.00028260
     atom   11 type  1   force =     0.00000000    0.00000000    0.00000000
     atom   12 type  1   force =    -0.00041850   -0.00028260    0.00028260
     atom   13 type  1   force =     0.00000000    0.00000000    0.00000000
     atom   14 type  1   force =    -0.00041850    0.00028260   -0.00028260
     atom   15 type  1   force =     0.00000000    0.00000000    0.00000000
     atom   16 type  1   force =    -0.00041850    0.00028260    0.00028260

     Total force =     0.001637     Total SCF correction =     0.008710
     SCF correction compared to forces is large: reduce conv_thr to get better values


     Computing stress (Cartesian axis) and pressure

          total   stress  (Ry/bohr**3)                   (kbar)     P=  -23.80
  -0.00015044   0.00000000   0.00000000        -22.13      0.00      0.00
   0.00000000  -0.00016747   0.00000000          0.00    -24.64      0.00
   0.00000000   0.00000000  -0.00016747          0.00      0.00    -24.64


     Writing output data file XIhmMSgoxeVbBaMV.save/
 
     init_run     :      6.41s CPU      6.78s WALL (       1 calls)
     electrons    :    270.18s CPU    279.24s WALL (       1 calls)
     forces       :      2.32s CPU      2.54s WALL (       1 calls)
     stress       :      5.93s CPU      6.01s WALL (       1 calls)

     Called by init_run:
     wfcinit      :      6.13s CPU      6.40s WALL (       1 calls)
     potinit      :      0.10s CPU      0.14s WALL (       1 calls)
     hinit0       :      0.10s CPU      0.15s WALL (       1 calls)

     Called by electrons:
     c_bands      :    242.48s CPU    249.84s WALL (      13 calls)
     sum_band     :     26.42s CPU     27.85s WALL (      13 calls)
     v_of_rho     :      0.18s CPU      0.31s WALL (      13 calls)
     newd         :      0.18s CPU      0.24s WALL (      13 calls)
     PAW_pot      :      0.93s CPU      0.97s WALL (      13 calls)
     mix_rho      :      0.04s CPU      0.07s WALL (      13 calls)

     Called by c_bands:
     init_us_2    :      1.38s CPU      1.41s WALL (    2175 calls)
     cegterg      :    235.74s CPU    243.00s WALL (     975 calls)

     Called by sum_band:
     sum_band:bec :      0.38s CPU      0.39s WALL (     975 calls)
     addusdens    :      0.19s CPU      0.24s WALL (      13 calls)

     Called by *egterg:
     h_psi        :    105.49s CPU    110.04s WALL (    3083 calls)
     s_psi        :      5.75s CPU      5.78s WALL (    3083 calls)
     g_psi        :      0.23s CPU      0.23s WALL (    2033 calls)
     cdiaghg      :    103.22s CPU    103.50s WALL (    2933 calls)

     Called by h_psi:
     h_psi:pot    :    104.87s CPU    109.42s WALL (    3083 calls)
     h_psi:calbec :      8.45s CPU      9.88s WALL (    3083 calls)
     vloc_psi     :     90.61s CPU     93.68s WALL (    3083 calls)
     add_vuspsi   :      5.79s CPU      5.84s WALL (    3083 calls)

     General routines
     calbec       :     13.63s CPU     15.96s WALL (    4433 calls)
     fft          :      0.19s CPU      0.43s WALL (     194 calls)
     ffts         :      0.01s CPU      0.06s WALL (      26 calls)
     fftw         :    105.46s CPU    108.97s WALL (  817368 calls)
     interpolate  :      0.02s CPU      0.04s WALL (      13 calls)
 
     Parallel routines
     fft_scatt_xy :      7.09s CPU      7.34s WALL (  817588 calls)
     fft_scatt_yz :     70.75s CPU     73.40s WALL (  817588 calls)
 
     PWSCF        :  4m50.02s CPU     5m 7.94s WALL

 
   This run was terminated on:   6:37:11   5Sep2020            

=------------------------------------------------------------------------------=
   JOB DONE.
=------------------------------------------------------------------------------=
