--------------------------------------------------------------------------
WARNING: There was an error initializing an OpenFabrics device.

  Local host:   bear-pg0211u07b
  Local device: mlx5_0
--------------------------------------------------------------------------

     Program PWSCF v.6.3 starts on  5Sep2020 at  6:42:21 

     This program is part of the open-source Quantum ESPRESSO suite
     for quantum simulation of materials; please cite
         "P. Giannozzi et al., J. Phys.:Condens. Matter 21 395502 (2009);
         "P. Giannozzi et al., J. Phys.:Condens. Matter 29 465901 (2017);
          URL http://www.quantum-espresso.org", 
     in publications or presentations arising from this work. More details at
     http://www.quantum-espresso.org/quote

     Parallel version (MPI & OpenMP), running on      40 processor cores
     Number of MPI processes:                40
     Threads/MPI process:                     1

     MPI processes distributed on     1 nodes
     R & G space division:  proc/nbgrp/npool/nimage =      40
     Reading input from wd/ec/ec_1_005.in
Warning: card &IONS ignored
Warning: card ION_DYNAMICS = 'BFGS', ignored
Warning: card / ignored
Warning: card &CELL ignored
Warning: card CELL_DYNAMICS = 'BFGS', ignored
Warning: card CELL_FACTOR = 2.0, ignored
Warning: card PRESS = 0.0, ignored
Warning: card / ignored

     Current dimensions of program PWSCF are:
     Max number of different atomic species (ntypx) = 10
     Max number of k-points (npk) =  40000
     Max angular momentum in pseudopotentials (lmaxx) =  3
               file Fe.pbe-spn-kjpaw_psl.1.0.0.UPF: wavefunction(s)  3P 3D renormalized

     Subspace diagonalization in iterative solution of the eigenvalue problem:
     a serial algorithm will be used

 
     Parallelization info
     --------------------
     sticks:   dense  smooth     PW     G-vecs:    dense   smooth      PW
     Min          92      61     17                 4232     2273     339
     Max          93      62     18                 4237     2276     343
     Sum        3709    2445    681               169405    90999   13613
 


     bravais-lattice index     =            0
     lattice parameter (alat)  =      10.3915  a.u.
     unit-cell volume          =    1124.9026 (a.u.)^3
     number of atoms/cell      =           16
     number of atomic types    =            1
     number of electrons       =       256.00
     number of Kohn-Sham states=          154
     kinetic-energy cutoff     =      71.0000  Ry
     charge density cutoff     =     430.0000  Ry
     convergence threshold     =      5.0E-05
     mixing beta               =       0.1000
     number of iterations used =           10  plain     mixing
     Exchange-correlation      = SLA PW PBX PBC ( 1  4  3  4 0 0)

     celldm(1)=  10.391466  celldm(2)=   0.000000  celldm(3)=   0.000000
     celldm(4)=   0.000000  celldm(5)=   0.000000  celldm(6)=   0.000000

     crystal axes: (cart. coord. in units of alat)
               a(1) = (   1.002500   0.000000   0.000000 )  
               a(2) = (   0.000000   1.000000   0.000000 )  
               a(3) = (   0.000000   0.000000   1.000000 )  

     reciprocal axes: (cart. coord. in units 2 pi/alat)
               b(1) = (  0.997506  0.000000  0.000000 )  
               b(2) = (  0.000000  1.000000  0.000000 )  
               b(3) = (  0.000000  0.000000  1.000000 )  


     PseudoPot. # 1 for Fe read from file:
     /rds/homes/b/bxp912/pp/Fe.pbe-spn-kjpaw_psl.1.0.0.UPF
     MD5 check sum: 42f43b795421b414b0dc916aa790dbcb
     Pseudo is Projector augmented-wave + core cor, Zval = 16.0
     Generated using "atomic" code by A. Dal Corso v.6.3
     Shape of augmentation charge: PSQ
     Using radial grid of 1191 points,  6 beta functions with: 
                l(1) =   0
                l(2) =   0
                l(3) =   1
                l(4) =   1
                l(5) =   2
                l(6) =   2
     Q(r) pseudized with 0 coefficients 


     atomic species   valence    mass     pseudopotential
        Fe            16.00    55.84500     Fe( 1.00)

     16 Sym. Ops., with inversion, found



   Cartesian axes

     site n.     atom                  positions (alat units)
         1           Fe  tau(   1) = (   0.0000000   0.0000000   0.0000000  )
         2           Fe  tau(   2) = (   0.2506339   0.2500089   0.2500089  )
         3           Fe  tau(   3) = (   0.0000000   0.0000000   0.4999995  )
         4           Fe  tau(   4) = (   0.2506339   0.2500089   0.7499911  )
         5           Fe  tau(   5) = (   0.0000000   0.5000001   0.0000000  )
         6           Fe  tau(   6) = (   0.2506339   0.7499912   0.2500089  )
         7           Fe  tau(   7) = (   0.0000000   0.5000001   0.4999995  )
         8           Fe  tau(   8) = (   0.2506339   0.7499912   0.7499911  )
         9           Fe  tau(   9) = (   0.5012501   0.0000000   0.0000000  )
        10           Fe  tau(  10) = (   0.7518662   0.2500089   0.2500089  )
        11           Fe  tau(  11) = (   0.5012501   0.0000000   0.4999995  )
        12           Fe  tau(  12) = (   0.7518662   0.2500089   0.7499911  )
        13           Fe  tau(  13) = (   0.5012501   0.5000001   0.0000000  )
        14           Fe  tau(  14) = (   0.7518662   0.7499912   0.2500089  )
        15           Fe  tau(  15) = (   0.5012501   0.5000001   0.4999995  )
        16           Fe  tau(  16) = (   0.7518662   0.7499912   0.7499911  )

     number of k points=    75  Marzari-Vanderbilt smearing, width (Ry)=  0.0400
                       cart. coord. in units 2pi/alat
        k(    1) = (   0.0554170   0.0555556   0.0555556), wk =   0.0219479
        k(    2) = (   0.0554170   0.0555556   0.1666667), wk =   0.0438957
        k(    3) = (   0.0554170   0.0555556   0.2777778), wk =   0.0438957
        k(    4) = (   0.0554170   0.0555556   0.3888889), wk =   0.0438957
        k(    5) = (   0.0554170   0.0555556  -0.5000000), wk =   0.0219479
        k(    6) = (   0.0554170   0.1666667   0.1666667), wk =   0.0219479
        k(    7) = (   0.0554170   0.1666667   0.2777778), wk =   0.0438957
        k(    8) = (   0.0554170   0.1666667   0.3888889), wk =   0.0438957
        k(    9) = (   0.0554170   0.1666667  -0.5000000), wk =   0.0219479
        k(   10) = (   0.0554170   0.2777778   0.2777778), wk =   0.0219479
        k(   11) = (   0.0554170   0.2777778   0.3888889), wk =   0.0438957
        k(   12) = (   0.0554170   0.2777778  -0.5000000), wk =   0.0219479
        k(   13) = (   0.0554170   0.3888889   0.3888889), wk =   0.0219479
        k(   14) = (   0.0554170   0.3888889  -0.5000000), wk =   0.0219479
        k(   15) = (   0.0554170  -0.5000000  -0.5000000), wk =   0.0054870
        k(   16) = (   0.1662510   0.0555556   0.0555556), wk =   0.0219479
        k(   17) = (   0.1662510   0.0555556   0.1666667), wk =   0.0438957
        k(   18) = (   0.1662510   0.0555556   0.2777778), wk =   0.0438957
        k(   19) = (   0.1662510   0.0555556   0.3888889), wk =   0.0438957
        k(   20) = (   0.1662510   0.0555556  -0.5000000), wk =   0.0219479
        k(   21) = (   0.1662510   0.1666667   0.1666667), wk =   0.0219479
        k(   22) = (   0.1662510   0.1666667   0.2777778), wk =   0.0438957
        k(   23) = (   0.1662510   0.1666667   0.3888889), wk =   0.0438957
        k(   24) = (   0.1662510   0.1666667  -0.5000000), wk =   0.0219479
        k(   25) = (   0.1662510   0.2777778   0.2777778), wk =   0.0219479
        k(   26) = (   0.1662510   0.2777778   0.3888889), wk =   0.0438957
        k(   27) = (   0.1662510   0.2777778  -0.5000000), wk =   0.0219479
        k(   28) = (   0.1662510   0.3888889   0.3888889), wk =   0.0219479
        k(   29) = (   0.1662510   0.3888889  -0.5000000), wk =   0.0219479
        k(   30) = (   0.1662510  -0.5000000  -0.5000000), wk =   0.0054870
        k(   31) = (   0.2770851   0.0555556   0.0555556), wk =   0.0219479
        k(   32) = (   0.2770851   0.0555556   0.1666667), wk =   0.0438957
        k(   33) = (   0.2770851   0.0555556   0.2777778), wk =   0.0438957
        k(   34) = (   0.2770851   0.0555556   0.3888889), wk =   0.0438957
        k(   35) = (   0.2770851   0.0555556  -0.5000000), wk =   0.0219479
        k(   36) = (   0.2770851   0.1666667   0.1666667), wk =   0.0219479
        k(   37) = (   0.2770851   0.1666667   0.2777778), wk =   0.0438957
        k(   38) = (   0.2770851   0.1666667   0.3888889), wk =   0.0438957
        k(   39) = (   0.2770851   0.1666667  -0.5000000), wk =   0.0219479
        k(   40) = (   0.2770851   0.2777778   0.2777778), wk =   0.0219479
        k(   41) = (   0.2770851   0.2777778   0.3888889), wk =   0.0438957
        k(   42) = (   0.2770851   0.2777778  -0.5000000), wk =   0.0219479
        k(   43) = (   0.2770851   0.3888889   0.3888889), wk =   0.0219479
        k(   44) = (   0.2770851   0.3888889  -0.5000000), wk =   0.0219479
        k(   45) = (   0.2770851  -0.5000000  -0.5000000), wk =   0.0054870
        k(   46) = (   0.3879191   0.0555556   0.0555556), wk =   0.0219479
        k(   47) = (   0.3879191   0.0555556   0.1666667), wk =   0.0438957
        k(   48) = (   0.3879191   0.0555556   0.2777778), wk =   0.0438957
        k(   49) = (   0.3879191   0.0555556   0.3888889), wk =   0.0438957
        k(   50) = (   0.3879191   0.0555556  -0.5000000), wk =   0.0219479
        k(   51) = (   0.3879191   0.1666667   0.1666667), wk =   0.0219479
        k(   52) = (   0.3879191   0.1666667   0.2777778), wk =   0.0438957
        k(   53) = (   0.3879191   0.1666667   0.3888889), wk =   0.0438957
        k(   54) = (   0.3879191   0.1666667  -0.5000000), wk =   0.0219479
        k(   55) = (   0.3879191   0.2777778   0.2777778), wk =   0.0219479
        k(   56) = (   0.3879191   0.2777778   0.3888889), wk =   0.0438957
        k(   57) = (   0.3879191   0.2777778  -0.5000000), wk =   0.0219479
        k(   58) = (   0.3879191   0.3888889   0.3888889), wk =   0.0219479
        k(   59) = (   0.3879191   0.3888889  -0.5000000), wk =   0.0219479
        k(   60) = (   0.3879191  -0.5000000  -0.5000000), wk =   0.0054870
        k(   61) = (  -0.4987531   0.0555556   0.0555556), wk =   0.0109739
        k(   62) = (  -0.4987531   0.0555556   0.1666667), wk =   0.0219479
        k(   63) = (  -0.4987531   0.0555556   0.2777778), wk =   0.0219479
        k(   64) = (  -0.4987531   0.0555556   0.3888889), wk =   0.0219479
        k(   65) = (  -0.4987531   0.0555556  -0.5000000), wk =   0.0109739
        k(   66) = (  -0.4987531   0.1666667   0.1666667), wk =   0.0109739
        k(   67) = (  -0.4987531   0.1666667   0.2777778), wk =   0.0219479
        k(   68) = (  -0.4987531   0.1666667   0.3888889), wk =   0.0219479
        k(   69) = (  -0.4987531   0.1666667  -0.5000000), wk =   0.0109739
        k(   70) = (  -0.4987531   0.2777778   0.2777778), wk =   0.0109739
        k(   71) = (  -0.4987531   0.2777778   0.3888889), wk =   0.0219479
        k(   72) = (  -0.4987531   0.2777778  -0.5000000), wk =   0.0109739
        k(   73) = (  -0.4987531   0.3888889   0.3888889), wk =   0.0109739
        k(   74) = (  -0.4987531   0.3888889  -0.5000000), wk =   0.0109739
        k(   75) = (  -0.4987531  -0.5000000  -0.5000000), wk =   0.0027435

     Dense  grid:   169405 G-vectors     FFT dimensions: (  72,  72,  72)

     Smooth grid:    90999 G-vectors     FFT dimensions: (  60,  60,  60)

     Estimated max dynamical RAM per process >      83.49 MB

     Estimated total dynamical RAM >       3.26 GB

     Check: negative/imaginary core charge=   -0.000006    0.000000

     Initial potential from superposition of free atoms

     starting charge  255.99300, renormalised to  256.00000
     Starting wfcs are  160 randomized atomic wfcs
     Checking if some PAW data can be deallocated... 

     total cpu time spent up to now is        7.7 secs

     Self-consistent Calculation

     iteration #  1     ecut=    71.00 Ry     beta= 0.10
     Davidson diagonalization with overlap
     ethr =  1.00E-02,  avg # of iterations =  3.3

     Threshold (ethr) on eigenvalues was too large:
     Diagonalizing with lowered threshold

     Davidson diagonalization with overlap
     ethr =  2.52E-04,  avg # of iterations =  3.2

     total cpu time spent up to now is       62.9 secs

     total energy              =   -5267.75224876 Ry
     Harris-Foulkes estimate   =   -5267.86741527 Ry
     estimated scf accuracy    <       0.73060144 Ry

     iteration #  2     ecut=    71.00 Ry     beta= 0.10
     Davidson diagonalization with overlap
     ethr =  2.85E-04,  avg # of iterations =  1.0

     total cpu time spent up to now is       79.2 secs

     total energy              =   -5267.61760779 Ry
     Harris-Foulkes estimate   =   -5267.76740652 Ry
     estimated scf accuracy    <       0.36146022 Ry

     iteration #  3     ecut=    71.00 Ry     beta= 0.10
     Davidson diagonalization with overlap
     ethr =  1.41E-04,  avg # of iterations =  3.2

     total cpu time spent up to now is      109.6 secs

     total energy              =   -5267.70130836 Ry
     Harris-Foulkes estimate   =   -5267.72111580 Ry
     estimated scf accuracy    <       0.45707136 Ry

     iteration #  4     ecut=    71.00 Ry     beta= 0.10
     Davidson diagonalization with overlap
     ethr =  1.41E-04,  avg # of iterations =  1.0

     total cpu time spent up to now is      126.0 secs

     total energy              =   -5267.70537531 Ry
     Harris-Foulkes estimate   =   -5267.71168462 Ry
     estimated scf accuracy    <       0.02919282 Ry

     iteration #  5     ecut=    71.00 Ry     beta= 0.10
     Davidson diagonalization with overlap
     ethr =  1.14E-05,  avg # of iterations =  2.2

     total cpu time spent up to now is      147.7 secs

     total energy              =   -5267.70588823 Ry
     Harris-Foulkes estimate   =   -5267.70778641 Ry
     estimated scf accuracy    <       0.02213084 Ry

     iteration #  6     ecut=    71.00 Ry     beta= 0.10
     Davidson diagonalization with overlap
     ethr =  8.64E-06,  avg # of iterations =  2.7

     total cpu time spent up to now is      172.3 secs

     total energy              =   -5267.70837699 Ry
     Harris-Foulkes estimate   =   -5267.70797618 Ry
     estimated scf accuracy    <       0.01145357 Ry

     iteration #  7     ecut=    71.00 Ry     beta= 0.10
     Davidson diagonalization with overlap
     ethr =  4.47E-06,  avg # of iterations =  1.2

     total cpu time spent up to now is      189.5 secs

     total energy              =   -5267.70750840 Ry
     Harris-Foulkes estimate   =   -5267.70872604 Ry
     estimated scf accuracy    <       0.01210776 Ry

     iteration #  8     ecut=    71.00 Ry     beta= 0.10
     Davidson diagonalization with overlap
     ethr =  4.47E-06,  avg # of iterations =  1.0

     total cpu time spent up to now is      206.0 secs

     total energy              =   -5267.70796492 Ry
     Harris-Foulkes estimate   =   -5267.70821024 Ry
     estimated scf accuracy    <       0.00482045 Ry

     iteration #  9     ecut=    71.00 Ry     beta= 0.10
     Davidson diagonalization with overlap
     ethr =  1.88E-06,  avg # of iterations =  2.3

     total cpu time spent up to now is      227.2 secs

     total energy              =   -5267.70816893 Ry
     Harris-Foulkes estimate   =   -5267.70819518 Ry
     estimated scf accuracy    <       0.00041546 Ry

     iteration # 10     ecut=    71.00 Ry     beta= 0.10
     Davidson diagonalization with overlap
     ethr =  1.62E-07,  avg # of iterations =  2.5

     total cpu time spent up to now is      249.3 secs

     total energy              =   -5267.70819342 Ry
     Harris-Foulkes estimate   =   -5267.70819910 Ry
     estimated scf accuracy    <       0.00017580 Ry

     iteration # 11     ecut=    71.00 Ry     beta= 0.10
     Davidson diagonalization with overlap
     ethr =  6.87E-08,  avg # of iterations =  1.0

     total cpu time spent up to now is      265.7 secs

     total energy              =   -5267.70816958 Ry
     Harris-Foulkes estimate   =   -5267.70819812 Ry
     estimated scf accuracy    <       0.00016587 Ry

     iteration # 12     ecut=    71.00 Ry     beta= 0.10
     Davidson diagonalization with overlap
     ethr =  6.48E-08,  avg # of iterations =  2.4

     total cpu time spent up to now is      287.6 secs

     End of self-consistent calculation

          k = 0.0554 0.0556 0.0556 ( 11309 PWs)   bands (ev):

   -66.8355 -66.7372 -66.7370 -66.7362 -66.7212 -66.7204 -66.7200 -66.7196
   -66.7196 -66.7191 -66.7188 -66.7187 -66.7182 -66.7115 -66.7113 -66.6357
   -33.1315 -33.1309 -33.1304 -33.1283 -33.1278 -33.1274 -32.9654 -32.9625
   -32.9573 -32.8882 -32.8855 -32.8851 -32.8849 -32.8637 -32.8633 -32.8503
   -32.8501 -32.8496 -32.8130 -32.8126 -32.7885 -32.7731 -32.7724 -32.7718
   -32.7612 -32.7611 -32.7605 -32.7488 -32.7469 -32.7468 -32.7456 -32.7438
   -32.7437 -32.7372 -32.7366 -32.7361 -32.7264 -32.7257 -32.7252 -32.5627
   -32.5614 -32.5609 -32.5603 -32.5584 -32.5578 -32.5573 -32.5561 -32.5557
    11.4184  15.2922  15.3073  15.3075  15.4295  15.4304  15.4304  15.4555
    15.4565  15.4565  15.6975  15.7045  15.8051  15.8207  15.8208  17.1907
    17.2762  17.2782  17.2823  17.2901  17.2975  17.2978  17.3113  17.3117
    17.4173  17.4254  17.4680  17.7203  17.7257  17.7262  18.1132  18.1199
    18.1203  18.5956  18.6058  18.6504  18.9237  18.9243  18.9337  19.0290
    19.0295  19.0372  19.1151  19.1151  19.1260  19.2109  19.2114  19.2212
    19.9584  19.9586  19.9656  20.1759  20.1764  20.1902  20.2087  20.2092
    20.2143  20.3436  20.3438  20.3465  20.3467  20.3630  20.3648  20.3760
    20.3940  20.6252  20.6257  20.6444  20.6448  20.6466  20.6529  20.6878
    20.6882  20.6980  20.6983  21.1736  21.1740  21.1893  21.4057  21.4371
    21.4630  21.4633  21.4831  21.4858  21.9101  21.9105  21.9131  21.9143
    21.9461  21.9787

          k = 0.0554 0.0556 0.1667 ( 11346 PWs)   bands (ev):

   -66.8320 -66.7544 -66.7363 -66.7359 -66.7227 -66.7222 -66.7199 -66.7194
   -66.7190 -66.7186 -66.7179 -66.7174 -66.7121 -66.7117 -66.7025 -66.6383
   -33.1233 -33.1224 -33.1220 -33.1191 -33.1141 -33.1136 -32.9670 -32.9582
   -32.9477 -32.9250 -32.9163 -32.9161 -32.9140 -32.9134 -32.8824 -32.8821
   -32.8476 -32.8199 -32.8098 -32.8085 -32.7962 -32.7733 -32.7717 -32.7637
   -32.7531 -32.7525 -32.7508 -32.7505 -32.7492 -32.7429 -32.7411 -32.7381
   -32.7367 -32.7327 -32.7325 -32.7021 -32.6989 -32.6985 -32.6921 -32.5776
   -32.5709 -32.5703 -32.5686 -32.5658 -32.5619 -32.5615 -32.5608 -32.5585
    11.5564  14.6752  15.3498  15.3641  15.4402  15.4404  15.5203  15.5209
    15.5313  15.5560  15.7620  15.7677  15.8497  15.8644  16.1565  17.0830
    17.1925  17.2041  17.2792  17.2915  17.3170  17.3267  17.3340  17.3479
    17.3681  17.3893  17.6068  17.6186  17.6756  17.6803  18.0153  18.0207
    18.4721  18.5733  18.6010  18.7041  18.7096  18.7197  18.7757  18.8842
    18.9000  18.9362  19.2116  19.2124  19.3273  19.3293  19.3501  19.4510
    19.6432  19.6556  19.7138  19.9347  19.9365  19.9501  20.0936  20.1879
    20.1943  20.2827  20.3020  20.3155  20.3643  20.3663  20.3857  20.3922
    20.4114  20.4316  20.4365  20.4578  20.6473  20.6717  20.6719  20.6895
    20.6898  20.8619  20.9709  20.9835  21.1485  21.2310  21.3440  21.4461
    21.4713  21.4777  21.5093  21.5207  21.8140  21.8172  21.9586  21.9911
    22.0723  22.0830

          k = 0.0554 0.0556 0.2778 ( 11348 PWs)   bands (ev):

   -66.8252 -66.7717 -66.7348 -66.7344 -66.7250 -66.7246 -66.7191 -66.7189
   -66.7185 -66.7178 -66.7174 -66.7168 -66.7132 -66.7125 -66.6869 -66.6434
   -33.1049 -33.1041 -33.1040 -33.1019 -33.0902 -33.0896 -32.9678 -32.9669
   -32.9612 -32.9577 -32.9575 -32.9456 -32.9357 -32.9331 -32.9264 -32.9263
   -32.8428 -32.8322 -32.8300 -32.8147 -32.7714 -32.7696 -32.7655 -32.7642
   -32.7596 -32.7565 -32.7547 -32.7409 -32.7392 -32.7383 -32.7367 -32.7173
   -32.7096 -32.6977 -32.6973 -32.6693 -32.6659 -32.6654 -32.6600 -32.6033
   -32.5862 -32.5856 -32.5841 -32.5823 -32.5735 -32.5709 -32.5703 -32.5681
    11.8283  13.9975  15.4390  15.4515  15.4768  15.4780  15.6184  15.6187
    15.7252  15.7470  15.8812  15.8934  15.9027  15.9150  16.3014  16.9221
    16.9626  16.9689  17.1517  17.2010  17.2460  17.2564  17.4394  17.4602
    17.5078  17.5287  17.6668  17.6715  17.8584  17.8802  17.9473  17.9520
    18.4137  18.4304  18.5576  18.5751  18.5923  18.5936  18.6236  18.6705
    18.8010  19.0729  19.0803  19.0919  19.2957  19.3086  19.4681  19.4730
    19.4820  19.5027  19.5069  19.5100  19.5488  19.6292  19.7401  20.1716
    20.1839  20.2018  20.2813  20.3002  20.4045  20.4185  20.4685  20.4916
    20.4963  20.6312  20.6322  20.6528  20.6835  20.6854  20.6975  20.7249
    20.7283  20.7342  20.9374  20.9672  21.0930  21.1642  21.1767  21.4054
    21.4625  21.4861  21.5651  21.5711  21.6867  21.6905  22.0424  22.0727
    22.2024  22.2195

          k = 0.0554 0.0556 0.3889 ( 11360 PWs)   bands (ev):

   -66.8154 -66.7881 -66.7327 -66.7323 -66.7276 -66.7271 -66.7184 -66.7182
   -66.7179 -66.7174 -66.7170 -66.7162 -66.7145 -66.7137 -66.6730 -66.6510
   -33.0783 -33.0773 -33.0767 -33.0763 -33.0570 -33.0565 -33.0079 -33.0055
   -33.0009 -33.0007 -32.9727 -32.9725 -32.9663 -32.9511 -32.9270 -32.9137
   -32.8748 -32.8616 -32.8156 -32.8036 -32.7798 -32.7735 -32.7684 -32.7665
   -32.7606 -32.7588 -32.7395 -32.7384 -32.7378 -32.7367 -32.7204 -32.6749
   -32.6707 -32.6635 -32.6630 -32.6393 -32.6369 -32.6348 -32.6342 -32.6305
   -32.6070 -32.6069 -32.6066 -32.6061 -32.5908 -32.5863 -32.5856 -32.5841
    12.2257  13.3358  15.5153  15.5205  15.5237  15.5250  15.7349  15.7370
    15.9088  15.9174  15.9957  16.0124  16.0307  16.0823  16.2908  16.6239
    16.6484  16.6562  17.1474  17.1647  17.2060  17.2147  17.6094  17.6296
    17.7034  17.7236  17.7859  17.7915  17.9854  17.9858  18.1559  18.1672
    18.1840  18.2051  18.2665  18.2841  18.5502  18.5522  18.5607  18.5896
    18.5976  18.6172  18.7250  18.7364  18.9256  19.0311  19.0348  19.2698
    19.3842  19.7029  19.7107  19.7303  19.7390  19.9482  19.9615  20.0513
    20.0667  20.0675  20.1498  20.1658  20.4562  20.4652  20.5512  20.5764
    20.5790  20.6433  20.6600  20.6764  20.6823  20.6942  20.7715  20.7813
    20.7935  20.7959  20.9201  21.0131  21.0145  21.1973  21.2059  21.2821
    21.4573  21.4603  21.4833  21.5042  21.5666  21.5753  22.1444  22.1717
    22.2643  22.2854

          k = 0.0554 0.0556-0.5000 ( 11358 PWs)   bands (ev):

   -66.8029 -66.8027 -66.7304 -66.7301 -66.7298 -66.7296 -66.7181 -66.7179
   -66.7176 -66.7174 -66.7161 -66.7159 -66.7151 -66.7149 -66.6611 -66.6609
   -33.0454 -33.0452 -33.0451 -33.0449 -33.0414 -33.0414 -33.0411 -33.0410
   -33.0172 -33.0171 -33.0167 -33.0166 -32.9611 -32.9610 -32.9032 -32.9030
   -32.8900 -32.8898 -32.7978 -32.7976 -32.7891 -32.7889 -32.7649 -32.7646
   -32.7629 -32.7627 -32.7388 -32.7386 -32.7372 -32.7370 -32.6764 -32.6763
   -32.6377 -32.6375 -32.6361 -32.6359 -32.6329 -32.6329 -32.6324 -32.6323
   -32.6131 -32.6129 -32.6076 -32.6076 -32.6072 -32.6072 -32.6051 -32.6050
    12.7349  12.7353  15.5423  15.5427  15.5486  15.5489  15.8442  15.8445
    15.8490  15.8493  16.1817  16.1820  16.3173  16.3177  16.3256  16.3260
    16.3277  16.3282  17.1694  17.1695  17.1787  17.1788  17.8259  17.8261
    17.8448  17.8449  17.9248  17.9250  17.9400  17.9402  18.1386  18.1390
    18.1431  18.1435  18.2965  18.2968  18.3053  18.3056  18.5634  18.5635
    18.5773  18.5776  18.5911  18.5914  18.5961  18.5963  19.0826  19.0830
    19.6939  19.6942  19.8889  19.8890  19.9008  19.9009  19.9636  19.9637
    19.9763  19.9764  20.2935  20.2936  20.4188  20.4190  20.5153  20.5156
    20.5207  20.5210  20.6557  20.6559  20.6681  20.6684  20.6828  20.6830
    21.0509  21.0510  21.0526  21.0527  21.1174  21.1176  21.2643  21.2643
    21.2649  21.2649  21.5089  21.5091  21.5254  21.5256  22.2323  22.2326
    22.2566  22.2568

          k = 0.0554 0.1667 0.1667 ( 11353 PWs)   bands (ev):

   -66.8287 -66.7536 -66.7526 -66.7355 -66.7272 -66.7225 -66.7215 -66.7191
   -66.7179 -66.7171 -66.7137 -66.7130 -66.7119 -66.7032 -66.7022 -66.6408
   -33.1205 -33.1147 -33.1142 -33.1066 -33.1061 -33.0942 -32.9733 -32.9555
   -32.9484 -32.9433 -32.9424 -32.9354 -32.9318 -32.9285 -32.9034 -32.8582
   -32.8430 -32.8424 -32.8090 -32.8088 -32.8080 -32.7775 -32.7669 -32.7664
   -32.7623 -32.7578 -32.7575 -32.7468 -32.7466 -32.7442 -32.7411 -32.7342
   -32.7228 -32.7096 -32.7045 -32.7035 -32.6787 -32.6667 -32.6658 -32.5987
   -32.5861 -32.5766 -32.5762 -32.5688 -32.5683 -32.5670 -32.5584 -32.5558
    11.6928  14.7508  14.7511  15.3839  15.4134  15.5430  15.5431  15.6196
    15.6196  15.6303  15.8228  15.8333  15.9030  16.1983  16.1984  16.9852
    17.0987  17.2745  17.3235  17.3239  17.3263  17.3267  17.3489  17.3634
    17.3638  17.3932  17.4730  17.5885  17.6165  17.6282  17.9108  18.2967
    18.2971  18.5081  18.5685  18.5693  18.5908  18.6315  18.7755  18.8103
    19.1058  19.1063  19.1872  19.1879  19.2338  19.2931  19.3968  19.4841
    19.4844  19.5027  19.5033  19.6828  19.6830  19.8509  19.9443  19.9448
    20.1947  20.3057  20.3057  20.3083  20.3630  20.3631  20.3690  20.3854
    20.4089  20.5757  20.6276  20.6607  20.6609  20.6702  20.6709  20.6755
    20.6763  20.7810  20.7815  21.0019  21.1072  21.1077  21.1344  21.1347
    21.2404  21.4784  21.5048  21.6359  21.7102  22.0355  22.3806  22.3808
    22.5846  22.7408

          k = 0.0554 0.1667 0.2778 ( 11363 PWs)   bands (ev):

   -66.8221 -66.7699 -66.7506 -66.7340 -66.7324 -66.7244 -66.7209 -66.7187
   -66.7173 -66.7164 -66.7143 -66.7124 -66.7104 -66.7034 -66.6877 -66.6457
   -33.1081 -33.0975 -33.0969 -33.0911 -33.0839 -33.0650 -32.9816 -32.9795
   -32.9783 -32.9669 -32.9650 -32.9626 -32.9432 -32.9378 -32.9120 -32.8883
   -32.8467 -32.8421 -32.8049 -32.8044 -32.8003 -32.7986 -32.7793 -32.7722
   -32.7705 -32.7628 -32.7568 -32.7451 -32.7434 -32.7310 -32.7261 -32.7069
   -32.7062 -32.6906 -32.6816 -32.6717 -32.6535 -32.6367 -32.6358 -32.6290
   -32.6066 -32.5891 -32.5886 -32.5838 -32.5784 -32.5761 -32.5616 -32.5596
    11.9614  14.0916  14.8841  15.3366  15.5144  15.5810  15.7168  15.7402
    15.7688  15.8083  15.9386  15.9589  15.9723  16.2337  16.3497  16.8685
    16.9512  16.9769  17.2124  17.2886  17.3013  17.3188  17.3638  17.4304
    17.4333  17.4897  17.5775  17.6386  17.7523  17.8162  17.8170  18.1633
    18.3108  18.4259  18.4350  18.4513  18.4953  18.5466  18.5736  18.7614
    18.7837  18.9423  18.9733  19.1265  19.1870  19.2654  19.2999  19.3014
    19.3695  19.4831  19.4990  19.5517  19.5824  19.7080  19.7366  20.0702
    20.1951  20.2096  20.2512  20.2846  20.3344  20.3512  20.3890  20.4313
    20.5984  20.6172  20.6188  20.6715  20.6767  20.7010  20.7015  20.7254
    20.7687  20.8745  20.8974  20.9131  20.9134  20.9477  20.9996  21.1057
    21.2143  21.4327  21.4881  21.5505  21.7043  22.1785  22.2192  22.7754
    22.8938  23.0182

          k = 0.0554 0.1667 0.3889 ( 11344 PWs)   bands (ev):

   -66.8124 -66.7858 -66.7470 -66.7376 -66.7319 -66.7269 -66.7195 -66.7181
   -66.7171 -66.7159 -66.7155 -66.7133 -66.7077 -66.7043 -66.6742 -66.6530
   -33.0860 -33.0727 -33.0713 -33.0690 -33.0534 -33.0273 -33.0203 -33.0106
   -33.0047 -33.0030 -32.9828 -32.9771 -32.9751 -32.9368 -32.9249 -32.8890
   -32.8735 -32.8323 -32.8284 -32.7983 -32.7965 -32.7881 -32.7816 -32.7774
   -32.7698 -32.7681 -32.7532 -32.7443 -32.7439 -32.7195 -32.7095 -32.6948
   -32.6691 -32.6659 -32.6592 -32.6536 -32.6424 -32.6316 -32.6284 -32.6097
   -32.6085 -32.6071 -32.6066 -32.6058 -32.5951 -32.5888 -32.5711 -32.5700
    12.3536  13.4448  15.0403  15.2761  15.6051  15.6248  15.8330  15.9259
    15.9954  16.0150  16.0684  16.0896  16.1400  16.1972  16.3462  16.6567
    16.6593  16.6748  17.1830  17.2263  17.2432  17.2670  17.5351  17.5753
    17.5800  17.6454  17.6517  17.7964  17.8563  17.9954  18.0415  18.1030
    18.2203  18.2312  18.2935  18.3032  18.4114  18.4128  18.4534  18.4954
    18.5219  18.5555  18.6167  18.7672  18.8183  18.8187  19.0994  19.4837
    19.5277  19.6735  19.6869  19.7392  19.7413  19.7683  19.9386  20.0108
    20.0253  20.0803  20.1523  20.2089  20.3608  20.4137  20.4376  20.5167
    20.5556  20.5613  20.5637  20.6691  20.6754  20.6848  20.6881  20.7531
    20.7599  20.7948  20.8398  20.9554  20.9569  21.0638  21.1031  21.2021
    21.2023  21.2143  21.4094  21.6072  21.6739  22.0365  22.3633  22.7029
    23.0694  23.2176

          k = 0.0554 0.1667-0.5000 ( 11338 PWs)   bands (ev):

   -66.8002 -66.8000 -66.7427 -66.7425 -66.7296 -66.7294 -66.7181 -66.7181
   -66.7171 -66.7171 -66.7146 -66.7144 -66.7058 -66.7056 -66.6627 -66.6625
   -33.0562 -33.0561 -33.0418 -33.0416 -33.0414 -33.0411 -33.0387 -33.0386
   -33.0167 -33.0166 -32.9841 -32.9840 -32.9816 -32.9816 -32.9015 -32.9012
   -32.8623 -32.8621 -32.8086 -32.8084 -32.7907 -32.7905 -32.7843 -32.7841
   -32.7733 -32.7731 -32.7439 -32.7437 -32.7139 -32.7137 -32.7080 -32.7080
   -32.6615 -32.6615 -32.6350 -32.6348 -32.6309 -32.6308 -32.6279 -32.6279
   -32.6166 -32.6164 -32.6065 -32.6064 -32.5876 -32.5875 -32.5864 -32.5864
    12.8548  12.8553  15.1788  15.1791  15.6426  15.6430  15.9398  15.9401
    16.0808  16.0811  16.2408  16.2411  16.3400  16.3404  16.3687  16.3691
    16.3745  16.3749  17.2024  17.2026  17.2267  17.2269  17.7388  17.7390
    17.7564  17.7567  17.7678  17.7680  17.8461  17.8465  18.1519  18.1520
    18.2025  18.2027  18.2674  18.2677  18.3940  18.3942  18.3978  18.3979
    18.4026  18.4029  18.4441  18.4444  18.5394  18.5395  19.2807  19.2809
    19.7797  19.7799  19.8081  19.8082  19.9212  19.9213  19.9673  19.9674
    20.0097  20.0098  20.0167  20.0168  20.3513  20.3515  20.4845  20.4848
    20.4977  20.4980  20.6243  20.6245  20.6688  20.6690  20.7074  20.7076
    20.8246  20.8247  20.9169  20.9170  21.0374  21.0375  21.1071  21.1072
    21.2774  21.2775  21.4394  21.4395  21.8451  21.8452  22.5525  22.5527
    23.2050  23.2052

          k = 0.0554 0.2778 0.2778 ( 11349 PWs)   bands (ev):

   -66.8158 -66.7668 -66.7659 -66.7403 -66.7326 -66.7236 -66.7227 -66.7182
   -66.7168 -66.7159 -66.7158 -66.7127 -66.7044 -66.6897 -66.6888 -66.6503
   -33.1017 -33.0825 -33.0820 -33.0721 -33.0717 -33.0310 -32.9975 -32.9965
   -32.9946 -32.9924 -32.9843 -32.9816 -32.9589 -32.9319 -32.8872 -32.8478
   -32.8449 -32.8442 -32.8367 -32.8358 -32.8002 -32.7881 -32.7877 -32.7778
   -32.7773 -32.7646 -32.7640 -32.7556 -32.7552 -32.7499 -32.7125 -32.6832
   -32.6764 -32.6754 -32.6678 -32.6643 -32.6608 -32.6367 -32.6313 -32.6102
   -32.6092 -32.5967 -32.5964 -32.5891 -32.5883 -32.5879 -32.5584 -32.5566
    12.2231  14.2670  14.2673  15.1775  15.6399  15.7807  15.7807  15.9038
    15.9038  15.9295  16.0399  16.0764  16.0911  16.3910  16.3913  16.8075
    16.8694  17.0557  17.0557  17.2724  17.3474  17.3782  17.3786  17.4224
    17.4228  17.4825  17.4880  17.6813  17.6971  17.7959  17.8283  18.2033
    18.2041  18.3267  18.3457  18.3462  18.3468  18.3726  18.4222  18.5397
    18.7678  18.7682  18.8306  18.8310  19.0055  19.0360  19.0366  19.1202
    19.5698  19.5705  19.6229  19.6659  19.7116  19.7121  19.9353  20.0070
    20.0076  20.1908  20.2626  20.2626  20.3061  20.3105  20.3106  20.3707
    20.4042  20.5751  20.5762  20.5833  20.6672  20.6766  20.7147  20.7723
    20.7767  20.7774  20.8311  20.8656  20.8659  20.9636  20.9641  21.1508
    21.1517  21.1907  21.5408  21.7325  21.7326  22.4171  22.8485  22.8487
    23.4487  23.4490

          k = 0.0554 0.2778 0.3889 ( 11356 PWs)   bands (ev):

   -66.8066 -66.7814 -66.7614 -66.7480 -66.7306 -66.7257 -66.7215 -66.7181
   -66.7171 -66.7166 -66.7153 -66.7135 -66.6992 -66.6917 -66.6766 -66.6570
   -33.0858 -33.0613 -33.0607 -33.0552 -33.0464 -33.0314 -33.0145 -33.0081
   -33.0074 -33.0052 -33.0018 -32.9904 -32.9866 -32.9146 -32.8944 -32.8659
   -32.8595 -32.8362 -32.8274 -32.8024 -32.7984 -32.7971 -32.7969 -32.7932
   -32.7913 -32.7845 -32.7685 -32.7551 -32.7536 -32.7277 -32.7056 -32.7006
   -32.6822 -32.6602 -32.6552 -32.6484 -32.6452 -32.6402 -32.6206 -32.6084
   -32.6080 -32.6057 -32.6044 -32.5956 -32.5880 -32.5870 -32.5612 -32.5601
    12.6040  13.6538  14.4986  14.9828  15.7632  15.8227  16.0171  16.0565
    16.0935  16.1427  16.1575  16.1735  16.2761  16.3555  16.4018  16.6745
    16.6762  16.7650  17.2521  17.2599  17.2970  17.3174  17.3476  17.4773
    17.4957  17.5347  17.6000  17.6152  17.8578  17.9536  17.9594  17.9688
    18.0787  18.1893  18.1907  18.2606  18.2637  18.3047  18.3765  18.4145
    18.4178  18.4831  18.4978  18.5003  18.6457  18.6919  19.3188  19.3305
    19.7065  19.7236  19.7704  19.8114  19.8201  19.8261  19.8287  19.9154
    20.0146  20.0839  20.1413  20.1819  20.2174  20.3196  20.3374  20.3644
    20.4610  20.4828  20.5064  20.5105  20.6150  20.6722  20.6937  20.6991
    20.7142  20.7920  20.7973  20.8148  20.8210  20.8979  20.9272  20.9845
    21.3237  21.3839  21.5288  21.6846  21.9903  22.5767  22.7092  23.2675
    23.5230  24.1599

          k = 0.0554 0.2778-0.5000 ( 11368 PWs)   bands (ev):

   -66.7951 -66.7949 -66.7552 -66.7550 -66.7283 -66.7281 -66.7199 -66.7197
   -66.7170 -66.7168 -66.7145 -66.7143 -66.6951 -66.6949 -66.6660 -66.6658
   -33.0620 -33.0619 -33.0358 -33.0356 -33.0356 -33.0353 -33.0346 -33.0345
   -33.0170 -33.0169 -33.0066 -33.0065 -32.9438 -32.9438 -32.8926 -32.8923
   -32.8291 -32.8290 -32.8180 -32.8179 -32.8159 -32.8157 -32.7897 -32.7895
   -32.7822 -32.7821 -32.7550 -32.7548 -32.7513 -32.7512 -32.6928 -32.6928
   -32.6906 -32.6904 -32.6287 -32.6285 -32.6250 -32.6249 -32.6244 -32.6243
   -32.6225 -32.6224 -32.6067 -32.6066 -32.5713 -32.5712 -32.5703 -32.5703
    13.0882  13.0887  14.7493  14.7497  15.8281  15.8284  16.1144  16.1147
    16.2442  16.2445  16.3100  16.3104  16.3743  16.3747  16.4377  16.4381
    16.5026  16.5031  17.2664  17.2665  17.2927  17.2928  17.5564  17.5567
    17.5779  17.5783  17.5875  17.5878  17.7629  17.7630  18.1439  18.1441
    18.1749  18.1751  18.1836  18.1838  18.2093  18.2095  18.2103  18.2106
    18.3658  18.3659  18.3988  18.3989  18.4598  18.4600  19.5346  19.5347
    19.6608  19.6609  19.7412  19.7413  19.9143  19.9145  19.9924  19.9925
    20.0092  20.0093  20.0521  20.0522  20.1830  20.1832  20.4227  20.4229
    20.4353  20.4355  20.5672  20.5675  20.6120  20.6121  20.6854  20.6856
    20.7260  20.7262  20.7343  20.7345  20.8257  20.8259  20.9550  20.9551
    21.4532  21.4533  21.5663  21.5663  22.2836  22.2837  23.0071  23.0073
    24.2167  24.2169

          k = 0.0554 0.3889 0.3889 ( 11352 PWs)   bands (ev):

   -66.7982 -66.7755 -66.7746 -66.7579 -66.7288 -66.7244 -66.7235 -66.7198
   -66.7168 -66.7161 -66.7152 -66.7139 -66.6917 -66.6809 -66.6800 -66.6630
   -33.0760 -33.0465 -33.0462 -33.0375 -33.0372 -33.0345 -33.0335 -33.0203
   -33.0181 -33.0171 -33.0163 -33.0009 -32.9461 -32.8988 -32.8548 -32.8538
   -32.8480 -32.8473 -32.8338 -32.8276 -32.8218 -32.8043 -32.8034 -32.8019
   -32.7884 -32.7683 -32.7675 -32.7620 -32.7616 -32.7609 -32.7511 -32.6917
   -32.6837 -32.6581 -32.6571 -32.6376 -32.6315 -32.6280 -32.6182 -32.6136
   -32.6124 -32.6123 -32.6064 -32.6062 -32.5713 -32.5703 -32.5577 -32.5566
    12.9659  13.9441  13.9445  14.6459  15.9401  16.0892  16.0892  16.2344
    16.2590  16.2591  16.2687  16.2840  16.3986  16.3993  16.4764  16.5910
    16.6485  16.9836  16.9839  17.2962  17.3145  17.3756  17.4011  17.4015
    17.4113  17.4116  17.4935  17.6214  17.6798  17.7998  17.9086  17.9823
    17.9832  18.0890  18.1359  18.1628  18.1724  18.1729  18.2052  18.2057
    18.3330  18.3526  18.3531  18.4418  18.4778  18.9759  18.9765  19.5568
    19.6519  19.7473  19.8053  19.8059  19.9310  19.9316  19.9431  19.9553
    20.0650  20.0657  20.1183  20.2041  20.2299  20.2300  20.2308  20.2479
    20.2481  20.4285  20.4310  20.4359  20.5311  20.6265  20.6270  20.6502
    20.6864  20.7162  20.7489  20.7495  20.7856  20.8427  20.8432  20.8665
    21.5096  21.5106  21.5891  21.6956  22.3679  23.1074  23.1540  23.1542
    23.8797  23.8799

          k = 0.0554 0.3889-0.5000 ( 11370 PWs)   bands (ev):

   -66.7876 -66.7874 -66.7672 -66.7670 -66.7266 -66.7264 -66.7220 -66.7218
   -66.7163 -66.7162 -66.7148 -66.7146 -66.6856 -66.6854 -66.6709 -66.6707
   -33.0585 -33.0585 -33.0308 -33.0308 -33.0305 -33.0304 -33.0294 -33.0294
   -33.0282 -33.0281 -33.0185 -33.0184 -32.8978 -32.8978 -32.8787 -32.8784
   -32.8396 -32.8394 -32.8220 -32.8219 -32.8062 -32.8061 -32.7992 -32.7992
   -32.7946 -32.7946 -32.7800 -32.7800 -32.7665 -32.7664 -32.7257 -32.7257
   -32.6694 -32.6692 -32.6361 -32.6359 -32.6208 -32.6207 -32.6202 -32.6201
   -32.6185 -32.6184 -32.6087 -32.6087 -32.5611 -32.5611 -32.5601 -32.5601
    13.4212  13.4217  14.2873  14.2877  16.0618  16.0621  16.3249  16.3252
    16.3391  16.3394  16.3557  16.3562  16.3742  16.3745  16.5003  16.5006
    16.7179  16.7183  17.2823  17.2827  17.3266  17.3267  17.3274  17.3275
    17.3915  17.3918  17.4482  17.4484  17.8097  17.8099  17.9399  17.9401
    18.0245  18.0248  18.0364  18.0365  18.0400  18.0401  18.0964  18.0966
    18.3695  18.3696  18.3926  18.3927  18.6381  18.6382  19.2996  19.2997
    19.7419  19.7420  19.8055  19.8056  19.9896  19.9898  20.0515  20.0516
    20.0980  20.0981  20.0999  20.1001  20.1053  20.1054  20.3313  20.3315
    20.3374  20.3376  20.3611  20.3612  20.5020  20.5022  20.5545  20.5547
    20.7098  20.7100  20.7606  20.7608  20.7724  20.7726  20.8540  20.8542
    21.5813  21.5813  21.6368  21.6368  22.7642  22.7643  23.5102  23.5104
    23.7450  23.7451

          k = 0.0554-0.5000-0.5000 ( 11412 PWs)   bands (ev):

   -66.7786 -66.7785 -66.7776 -66.7776 -66.7248 -66.7248 -66.7238 -66.7238
   -66.7159 -66.7159 -66.7150 -66.7150 -66.6779 -66.6779 -66.6770 -66.6769
   -33.0478 -33.0477 -33.0468 -33.0468 -33.0290 -33.0290 -33.0288 -33.0287
   -33.0225 -33.0225 -33.0223 -33.0222 -32.8612 -32.8611 -32.8603 -32.8601
   -32.8493 -32.8493 -32.8486 -32.8486 -32.8186 -32.8185 -32.8176 -32.8176
   -32.7758 -32.7758 -32.7748 -32.7748 -32.7604 -32.7603 -32.7597 -32.7597
   -32.6516 -32.6516 -32.6506 -32.6505 -32.6180 -32.6180 -32.6179 -32.6179
   -32.6137 -32.6137 -32.6136 -32.6135 -32.5577 -32.5577 -32.5567 -32.5567
    13.8314  13.8314  13.8316  13.8322  16.2712  16.2716  16.2717  16.2718
    16.3709  16.3709  16.3713  16.3720  16.4801  16.4805  16.4806  16.4807
    16.9872  16.9872  16.9874  16.9880  17.3186  17.3189  17.3190  17.3191
    17.3651  17.3655  17.3657  17.3657  17.9035  17.9038  17.9046  17.9046
    17.9203  17.9203  17.9207  17.9210  18.0061  18.0061  18.0066  18.0069
    18.3601  18.3602  18.3606  18.3607  18.9528  18.9530  18.9536  18.9536
    19.8289  19.8289  19.8293  19.8296  20.0786  20.0788  20.0793  20.0793
    20.1331  20.1331  20.1339  20.1340  20.2177  20.2178  20.2179  20.2182
    20.2186  20.2187  20.2187  20.2188  20.4788  20.4788  20.4795  20.4796
    20.7371  20.7372  20.7378  20.7379  20.7949  20.7949  20.7954  20.7956
    21.6429  21.6429  21.6439  21.6439  23.2573  23.2573  23.2574  23.2575
    24.0206  24.0208

          k = 0.1663 0.0556 0.0556 ( 11333 PWs)   bands (ev):

   -66.8320 -66.7547 -66.7364 -66.7355 -66.7230 -66.7220 -66.7197 -66.7194
   -66.7186 -66.7183 -66.7182 -66.7173 -66.7121 -66.7117 -66.7027 -66.6383
   -33.1235 -33.1229 -33.1213 -33.1187 -33.1145 -33.1140 -32.9687 -32.9564
   -32.9475 -32.9250 -32.9170 -32.9165 -32.9140 -32.9135 -32.8829 -32.8828
   -32.8471 -32.8193 -32.8091 -32.8073 -32.7953 -32.7718 -32.7715 -32.7640
   -32.7547 -32.7509 -32.7508 -32.7507 -32.7505 -32.7411 -32.7410 -32.7367
   -32.7365 -32.7338 -32.7334 -32.7015 -32.7002 -32.6992 -32.6915 -32.5779
   -32.5705 -32.5699 -32.5693 -32.5668 -32.5615 -32.5611 -32.5606 -32.5586
    11.5557  14.6615  15.3633  15.3635  15.4406  15.4407  15.5211  15.5211
    15.5298  15.5544  15.7597  15.7691  15.8637  15.8638  16.1413  17.0798
    17.1920  17.1956  17.2588  17.2713  17.3108  17.3302  17.3476  17.3479
    17.3890  17.3893  17.6151  17.6274  17.6800  17.6805  18.0200  18.0204
    18.4664  18.5769  18.5916  18.7161  18.7167  18.7170  18.7835  18.8957
    18.8960  18.9393  19.1999  19.2001  19.3157  19.3158  19.3615  19.4623
    19.6415  19.6421  19.7225  19.9319  19.9325  19.9501  20.1117  20.1886
    20.1886  20.2858  20.2861  20.3027  20.3718  20.3721  20.3838  20.4098
    20.4226  20.4317  20.4322  20.4616  20.6556  20.6681  20.6684  20.6959
    20.6962  20.8728  20.9702  20.9707  21.1298  21.2328  21.3478  21.4708
    21.4710  21.4751  21.5101  21.5104  21.8134  21.8137  21.9902  21.9903
    22.0726  22.0732

          k = 0.1663 0.0556 0.1667 ( 11354 PWs)   bands (ev):

   -66.8287 -66.7535 -66.7530 -66.7352 -66.7275 -66.7220 -66.7216 -66.7188
   -66.7176 -66.7172 -66.7139 -66.7130 -66.7118 -66.7031 -66.7026 -66.6409
   -33.1212 -33.1145 -33.1137 -33.1064 -33.1058 -33.0947 -32.9751 -32.9530
   -32.9485 -32.9435 -32.9431 -32.9357 -32.9323 -32.9282 -32.9040 -32.8579
   -32.8431 -32.8425 -32.8086 -32.8067 -32.8064 -32.7784 -32.7679 -32.7664
   -32.7604 -32.7592 -32.7576 -32.7483 -32.7467 -32.7446 -32.7417 -32.7323
   -32.7229 -32.7107 -32.7029 -32.7025 -32.6796 -32.6670 -32.6661 -32.5990
   -32.5854 -32.5771 -32.5765 -32.5694 -32.5687 -32.5664 -32.5575 -32.5562
    11.6921  14.7378  14.7503  15.3833  15.4263  15.5421  15.5432  15.6183
    15.6197  15.6311  15.8245  15.8305  15.9162  16.1841  16.1978  16.9824
    17.0940  17.2715  17.3064  17.3203  17.3235  17.3262  17.3436  17.3633
    17.3698  17.3875  17.4939  17.5955  17.6199  17.6364  17.9141  18.2923
    18.2950  18.5175  18.5767  18.5804  18.5829  18.6234  18.7675  18.8165
    19.1163  19.1214  19.1766  19.1829  19.2219  19.2881  19.3883  19.4836
    19.4934  19.4975  19.5074  19.6816  19.6980  19.8324  19.9456  19.9523
    20.1780  20.2941  20.3071  20.3231  20.3650  20.3654  20.3812  20.3909
    20.3980  20.5738  20.6206  20.6536  20.6539  20.6704  20.6739  20.6851
    20.6866  20.7835  20.7917  21.0037  21.1092  21.1160  21.1186  21.1344
    21.2436  21.5014  21.5024  21.6341  21.7051  22.0649  22.3807  22.3865
    22.5658  22.7010

          k = 0.1663 0.0556 0.2778 ( 11366 PWs)   bands (ev):

   -66.8221 -66.7699 -66.7509 -66.7338 -66.7327 -66.7241 -66.7209 -66.7183
   -66.7169 -66.7166 -66.7143 -66.7124 -66.7106 -66.7036 -66.6877 -66.6457
   -33.1087 -33.0974 -33.0965 -33.0912 -33.0834 -33.0655 -32.9820 -32.9808
   -32.9784 -32.9670 -32.9649 -32.9633 -32.9407 -32.9380 -32.9128 -32.8882
   -32.8467 -32.8401 -32.8047 -32.8024 -32.8014 -32.7990 -32.7805 -32.7706
   -32.7703 -32.7646 -32.7568 -32.7468 -32.7444 -32.7307 -32.7245 -32.7073
   -32.7048 -32.6909 -32.6822 -32.6706 -32.6541 -32.6369 -32.6359 -32.6293
   -32.6060 -32.5896 -32.5888 -32.5839 -32.5779 -32.5768 -32.5607 -32.5600
    11.9607  14.0909  14.8722  15.3344  15.5257  15.5814  15.7163  15.7403
    15.7690  15.8083  15.9431  15.9535  15.9833  16.2222  16.3494  16.8660
    16.9472  16.9765  17.2131  17.2883  17.3004  17.3184  17.3596  17.4109
    17.4537  17.4702  17.5801  17.6590  17.7548  17.8182  17.8197  18.1616
    18.3234  18.4152  18.4398  18.4621  18.4957  18.5359  18.5595  18.7505
    18.8004  18.9473  18.9853  19.1397  19.1869  19.2652  19.2851  19.2944
    19.3777  19.4759  19.4999  19.5496  19.5814  19.7095  19.7298  20.0544
    20.1897  20.2252  20.2572  20.3003  20.3166  20.3505  20.3873  20.4350
    20.5993  20.6126  20.6142  20.6788  20.6840  20.7040  20.7057  20.7165
    20.7710  20.8778  20.8970  20.9133  20.9252  20.9499  21.0010  21.0884
    21.2249  21.4322  21.4864  21.5697  21.7009  22.2042  22.2247  22.7879
    22.8565  22.9946

          k = 0.1663 0.0556 0.3889 ( 11347 PWs)   bands (ev):

   -66.8124 -66.7858 -66.7473 -66.7379 -66.7317 -66.7266 -66.7194 -66.7177
   -66.7169 -66.7160 -66.7156 -66.7134 -66.7080 -66.7045 -66.6742 -66.6531
   -33.0868 -33.0726 -33.0708 -33.0691 -33.0531 -33.0278 -33.0208 -33.0106
   -33.0046 -33.0028 -32.9839 -32.9771 -32.9758 -32.9369 -32.9226 -32.8900
   -32.8714 -32.8334 -32.8284 -32.7965 -32.7962 -32.7880 -32.7797 -32.7788
   -32.7700 -32.7697 -32.7536 -32.7458 -32.7453 -32.7178 -32.7080 -32.6944
   -32.6693 -32.6662 -32.6594 -32.6541 -32.6413 -32.6312 -32.6290 -32.6101
   -32.6083 -32.6072 -32.6071 -32.6062 -32.5944 -32.5894 -32.5708 -32.5701
    12.3529  13.4441  15.0304  15.2716  15.6136  15.6271  15.8341  15.9247
    16.0029  16.0148  16.0683  16.0922  16.1365  16.1900  16.3464  16.6557
    16.6578  16.6730  17.1832  17.2261  17.2429  17.2666  17.5289  17.5617
    17.5950  17.6338  17.6469  17.7938  17.8759  18.0114  18.0423  18.1040
    18.2153  18.2243  18.2837  18.2928  18.4247  18.4255  18.4712  18.5056
    18.5093  18.5414  18.6277  18.7552  18.8185  18.8187  19.1033  19.4865
    19.5229  19.6797  19.6808  19.7429  19.7465  19.7587  19.9249  20.0078
    20.0208  20.0928  20.1650  20.1940  20.3645  20.4117  20.4346  20.5178
    20.5520  20.5574  20.5672  20.6756  20.6813  20.6876  20.6911  20.7532
    20.7646  20.8014  20.8286  20.9613  20.9695  21.0485  21.1024  21.2026
    21.2118  21.2149  21.4080  21.6048  21.6877  22.0427  22.3849  22.7180
    23.0352  23.1898

          k = 0.1663 0.0556-0.5000 ( 11362 PWs)   bands (ev):

   -66.8003 -66.8000 -66.7429 -66.7427 -66.7293 -66.7291 -66.7179 -66.7178
   -66.7172 -66.7170 -66.7147 -66.7144 -66.7061 -66.7059 -66.6627 -66.6625
   -33.0568 -33.0568 -33.0420 -33.0418 -33.0414 -33.0412 -33.0385 -33.0384
   -33.0165 -33.0165 -32.9843 -32.9842 -32.9826 -32.9826 -32.8993 -32.8991
   -32.8635 -32.8633 -32.8085 -32.8084 -32.7886 -32.7884 -32.7843 -32.7841
   -32.7750 -32.7748 -32.7457 -32.7455 -32.7124 -32.7122 -32.7085 -32.7084
   -32.6611 -32.6611 -32.6353 -32.6351 -32.6311 -32.6310 -32.6286 -32.6286
   -32.6158 -32.6156 -32.6071 -32.6071 -32.5878 -32.5877 -32.5861 -32.5861
    12.8542  12.8547  15.1716  15.1719  15.6478  15.6481  15.9435  15.9439
    16.0771  16.0774  16.2417  16.2421  16.3392  16.3396  16.3681  16.3685
    16.3725  16.3730  17.2022  17.2023  17.2263  17.2265  17.7244  17.7246
    17.7470  17.7473  17.7865  17.7867  17.8392  17.8396  18.1692  18.1694
    18.2036  18.2038  18.2731  18.2733  18.3849  18.3852  18.4028  18.4031
    18.4108  18.4109  18.4445  18.4448  18.5258  18.5259  19.2837  19.2839
    19.7767  19.7770  19.7976  19.7978  19.9296  19.9297  19.9764  19.9765
    20.0045  20.0045  20.0144  20.0146  20.3488  20.3490  20.4816  20.4819
    20.4941  20.4943  20.6247  20.6249  20.6749  20.6751  20.7129  20.7131
    20.8211  20.8212  20.9278  20.9279  21.0292  21.0294  21.1152  21.1153
    21.2763  21.2764  21.4385  21.4386  21.8538  21.8539  22.5705  22.5707
    23.1739  23.1741

          k = 0.1663 0.1667 0.1667 ( 11347 PWs)   bands (ev):

   -66.8254 -66.7523 -66.7522 -66.7513 -66.7272 -66.7267 -66.7261 -66.7147
   -66.7141 -66.7136 -66.7131 -66.7112 -66.7034 -66.7033 -66.7024 -66.6432
   -33.1126 -33.1120 -33.1116 -33.0886 -33.0882 -33.0879 -32.9691 -32.9687
   -32.9665 -32.9605 -32.9602 -32.9597 -32.9127 -32.9070 -32.9069 -32.8659
   -32.8656 -32.8652 -32.8149 -32.8143 -32.8137 -32.7710 -32.7694 -32.7691
   -32.7605 -32.7600 -32.7427 -32.7426 -32.7417 -32.7385 -32.7369 -32.7366
   -32.7062 -32.7056 -32.7054 -32.6974 -32.6509 -32.6501 -32.6496 -32.6200
   -32.5898 -32.5894 -32.5890 -32.5664 -32.5659 -32.5654 -32.5622 -32.5617
    11.8271  14.8180  14.8299  14.8301  15.4903  15.4904  15.4904  15.7255
    15.7270  15.7270  15.8869  15.8934  16.2382  16.2511  16.2511  16.9018
    17.2033  17.2037  17.2958  17.2981  17.2985  17.3292  17.3487  17.3491
    17.4389  17.4581  17.4585  17.4776  17.5518  17.5630  18.1421  18.1442
    18.1445  18.4958  18.4961  18.4966  18.5041  18.5078  18.9275  18.9278
    18.9294  18.9352  19.1146  19.1150  19.1270  19.2972  19.2976  19.2977
    19.5109  19.5113  19.5278  19.5743  19.5747  19.5849  20.1448  20.1451
    20.1501  20.2145  20.2146  20.2299  20.3254  20.3414  20.3655  20.3655
    20.3823  20.6234  20.6239  20.6306  20.6523  20.6544  20.6608  20.6639
    20.7273  20.7773  20.7779  20.7782  21.1142  21.1311  21.1314  21.3362
    21.3366  21.3450  21.3630  21.3680  22.0834  22.0835  22.0866  22.8179
    22.8544  22.8544

          k = 0.1663 0.1667 0.2778 ( 11371 PWs)   bands (ev):

   -66.8190 -66.7682 -66.7497 -66.7493 -66.7320 -66.7316 -66.7254 -66.7167
   -66.7132 -66.7112 -66.7105 -66.7101 -66.7038 -66.7034 -66.6885 -66.6479
   -33.1002 -33.0995 -33.0947 -33.0762 -33.0611 -33.0607 -32.9911 -32.9882
   -32.9878 -32.9788 -32.9773 -32.9549 -32.9542 -32.9019 -32.9017 -32.8897
   -32.8838 -32.8499 -32.8227 -32.8164 -32.8150 -32.7856 -32.7828 -32.7809
   -32.7747 -32.7684 -32.7448 -32.7301 -32.7285 -32.7146 -32.7120 -32.7114
   -32.7093 -32.7083 -32.6722 -32.6719 -32.6516 -32.6283 -32.6276 -32.6239
   -32.6069 -32.6063 -32.5968 -32.5819 -32.5742 -32.5690 -32.5682 -32.5628
    12.0928  14.1873  14.9603  14.9711  15.4454  15.4468  15.6968  15.8626
    15.8636  15.9093  16.0065  16.0124  16.2970  16.3077  16.4114  16.8223
    16.9771  17.0437  17.1781  17.3072  17.3096  17.3108  17.3975  17.4091
    17.4142  17.4283  17.5801  17.5857  17.6045  17.7723  17.9992  17.9993
    18.2879  18.3135  18.3224  18.4008  18.4198  18.4814  18.6664  18.6762
    18.6805  18.6917  18.9090  19.0494  19.0635  19.0656  19.0824  19.1250
    19.4221  19.5221  19.5261  19.6682  19.6732  19.8264  19.9122  20.1043
    20.1179  20.2200  20.2809  20.3089  20.3237  20.3853  20.3949  20.3949
    20.4170  20.4185  20.6115  20.6127  20.6291  20.6532  20.6670  20.6673
    20.6769  20.8941  20.9439  20.9466  20.9740  21.0417  21.1168  21.1196
    21.1340  21.4128  21.4180  21.4257  21.8212  21.8227  22.7098  23.0203
    23.0535  23.4686

          k = 0.1663 0.1667 0.3889 ( 11372 PWs)   bands (ev):

   -66.8095 -66.7836 -66.7462 -66.7458 -66.7370 -66.7366 -66.7236 -66.7190
   -66.7125 -66.7113 -66.7081 -66.7077 -66.7048 -66.7043 -66.6754 -66.6550
   -33.0798 -33.0791 -33.0692 -33.0586 -33.0264 -33.0260 -33.0205 -33.0201
   -33.0143 -32.9977 -32.9866 -32.9865 -32.9438 -32.9438 -32.9359 -32.8824
   -32.8643 -32.8584 -32.8125 -32.8108 -32.8075 -32.8059 -32.7945 -32.7927
   -32.7776 -32.7689 -32.7543 -32.7228 -32.7215 -32.7128 -32.7116 -32.6895
   -32.6816 -32.6811 -32.6728 -32.6476 -32.6415 -32.6282 -32.6277 -32.6092
   -32.6070 -32.6063 -32.6058 -32.6008 -32.5916 -32.5765 -32.5758 -32.5696
    12.4802  13.5541  15.1287  15.1376  15.3833  15.3869  15.9868  16.0194
    16.0197  16.1571  16.1629  16.1828  16.2810  16.2874  16.4159  16.6759
    16.6764  16.7049  17.1863  17.2641  17.3000  17.3298  17.4447  17.4482
    17.5406  17.5587  17.7529  17.7693  17.8582  17.8743  17.8827  18.0349
    18.1918  18.1930  18.2673  18.2763  18.3450  18.3625  18.3677  18.3906
    18.4018  18.4503  18.5916  18.6029  18.6181  18.6332  19.2605  19.3811
    19.6232  19.6800  19.7687  19.7697  19.7725  19.7792  19.9879  19.9987
    20.0400  20.0524  20.1287  20.1872  20.1992  20.3657  20.4313  20.4859
    20.5412  20.5540  20.6360  20.6492  20.6517  20.6569  20.6934  20.7283
    20.7345  20.7470  20.8021  20.8548  21.1239  21.1285  21.1508  21.1687
    21.1769  21.3842  21.3885  21.3956  21.5657  21.5663  23.2569  23.2867
    23.4012  23.5613

          k = 0.1663 0.1667-0.5000 ( 11368 PWs)   bands (ev):

   -66.7977 -66.7975 -66.7420 -66.7418 -66.7415 -66.7413 -66.7215 -66.7213
   -66.7120 -66.7118 -66.7063 -66.7060 -66.7058 -66.7056 -66.6643 -66.6641
   -33.0523 -33.0523 -33.0517 -33.0516 -33.0376 -33.0374 -33.0366 -33.0363
   -32.9895 -32.9895 -32.9866 -32.9865 -32.9862 -32.9861 -32.9117 -32.9114
   -32.8362 -32.8361 -32.8328 -32.8326 -32.8046 -32.8045 -32.8028 -32.8027
   -32.7634 -32.7632 -32.7325 -32.7324 -32.7173 -32.7171 -32.7159 -32.7157
   -32.6532 -32.6532 -32.6527 -32.6527 -32.6363 -32.6361 -32.6265 -32.6263
   -32.6145 -32.6143 -32.5892 -32.5892 -32.5887 -32.5886 -32.5825 -32.5825
    12.9743  12.9748  15.2791  15.2794  15.2854  15.2858  16.1722  16.1725
    16.1749  16.1752  16.3139  16.3143  16.3346  16.3350  16.4074  16.4079
    16.4334  16.4337  17.2188  17.2190  17.2829  17.2830  17.7041  17.7045
    17.7046  17.7049  17.7086  17.7088  17.7245  17.7247  18.1631  18.1633
    18.1708  18.1710  18.2097  18.2100  18.2813  18.2815  18.2886  18.2888
    18.3296  18.3299  18.3354  18.3355  18.4134  18.4136  19.4604  19.4606
    19.6927  19.6928  19.8462  19.8464  19.8741  19.8743  19.8807  19.8808
    20.0028  20.0029  20.0122  20.0123  20.4557  20.4560  20.4618  20.4620
    20.4905  20.4907  20.5967  20.5969  20.6431  20.6433  20.7487  20.7488
    20.7525  20.7527  20.7644  20.7646  21.2817  21.2817  21.2878  21.2878
    21.2922  21.2923  21.3268  21.3269  21.3285  21.3286  23.4635  23.4637
    23.4901  23.4903

          k = 0.1663 0.2778 0.2778 ( 11376 PWs)   bands (ev):

   -66.8128 -66.7652 -66.7643 -66.7473 -66.7393 -66.7308 -66.7298 -66.7195
   -66.7107 -66.7103 -66.7098 -66.7045 -66.7042 -66.6904 -66.6894 -66.6524
   -33.0930 -33.0839 -33.0834 -33.0533 -33.0529 -33.0294 -33.0036 -33.0014
   -33.0013 -33.0003 -32.9855 -32.9638 -32.9527 -32.9261 -32.8951 -32.8632
   -32.8606 -32.8601 -32.8514 -32.8507 -32.8259 -32.8011 -32.8008 -32.8002
   -32.7535 -32.7430 -32.7427 -32.7351 -32.7346 -32.7150 -32.7128 -32.6975
   -32.6870 -32.6852 -32.6765 -32.6757 -32.6534 -32.6282 -32.6158 -32.6086
   -32.6084 -32.6061 -32.6051 -32.5833 -32.5829 -32.5818 -32.5659 -32.5627
    12.3523  14.3673  14.3676  15.1185  15.2930  15.6595  15.6595  16.0219
    16.0422  16.0423  16.1089  16.1420  16.4034  16.4764  16.4767  16.7944
    16.9833  17.0314  17.0315  17.2355  17.2563  17.3828  17.3832  17.4568
    17.4598  17.4638  17.5123  17.5126  17.7473  17.7511  17.8432  18.1065
    18.1071  18.2160  18.2585  18.2591  18.3247  18.3267  18.4280  18.4887
    18.5420  18.5424  18.6905  18.6909  18.7749  18.8254  18.8258  19.2687
    19.6290  19.6295  19.6587  19.7909  19.8567  19.8572  20.0083  20.0389
    20.1926  20.1926  20.1994  20.1999  20.2284  20.3063  20.3306  20.3308
    20.3641  20.5823  20.5858  20.5864  20.6055  20.6349  20.6432  20.6439
    20.6590  20.8588  20.8591  20.9625  20.9931  21.1156  21.1164  21.1284
    21.1288  21.2194  21.4050  21.5016  21.5103  22.3686  22.3687  23.2954
    24.1066  24.1066

          k = 0.1663 0.2778 0.3889 ( 11368 PWs)   bands (ev):

   -66.8038 -66.7793 -66.7598 -66.7468 -66.7439 -66.7351 -66.7280 -66.7225
   -66.7101 -66.7099 -66.7079 -66.7050 -66.6995 -66.6922 -66.6778 -66.6589
   -33.0778 -33.0661 -33.0599 -33.0420 -33.0286 -33.0240 -33.0211 -33.0162
   -33.0061 -32.9967 -32.9957 -32.9915 -32.9571 -32.9357 -32.9039 -32.8832
   -32.8781 -32.8447 -32.8349 -32.8288 -32.8256 -32.8184 -32.8154 -32.8140
   -32.7739 -32.7517 -32.7422 -32.7271 -32.7253 -32.7169 -32.7109 -32.7017
   -32.6821 -32.6648 -32.6629 -32.6527 -32.6461 -32.6365 -32.6233 -32.6137
   -32.6046 -32.6038 -32.5981 -32.5888 -32.5870 -32.5869 -32.5682 -32.5654
    12.7293  13.7653  14.6054  15.0997  15.3096  15.5980  15.9603  16.1868
    16.1970  16.2488  16.2810  16.3172  16.4383  16.4523  16.4927  16.6947
    16.7203  16.7656  17.2213  17.2397  17.3176  17.3274  17.3673  17.4124
    17.4951  17.5710  17.6101  17.6423  17.7284  17.8705  17.9044  17.9100
    18.0279  18.0958  18.1430  18.1930  18.2057  18.2344  18.2769  18.2857
    18.3069  18.3249  18.3482  18.3786  18.4601  18.5247  19.0453  19.4802
    19.6752  19.7845  19.8495  19.8543  19.8549  19.9003  19.9205  19.9575
    20.0973  20.1097  20.1214  20.2130  20.2205  20.3019  20.3812  20.4344
    20.4928  20.5136  20.5195  20.6025  20.6335  20.6361  20.6813  20.6872
    20.6950  20.7048  20.7174  20.8259  20.9135  21.0182  21.1361  21.2041
    21.2608  21.2791  21.4110  21.4336  21.5012  22.0446  22.9772  23.6156
    24.1173  24.2489

          k = 0.1663 0.2778-0.5000 ( 11364 PWs)   bands (ev):

   -66.7927 -66.7925 -66.7539 -66.7537 -66.7399 -66.7397 -66.7254 -66.7252
   -66.7100 -66.7098 -66.7063 -66.7061 -66.6955 -66.6953 -66.6674 -66.6672
   -33.0556 -33.0555 -33.0441 -33.0440 -33.0300 -33.0297 -33.0293 -33.0291
   -33.0042 -33.0042 -32.9910 -32.9909 -32.9487 -32.9487 -32.9120 -32.9118
   -32.8528 -32.8527 -32.8333 -32.8331 -32.8242 -32.8241 -32.8047 -32.8046
   -32.7698 -32.7698 -32.7485 -32.7483 -32.7214 -32.7213 -32.6910 -32.6908
   -32.6805 -32.6804 -32.6415 -32.6415 -32.6323 -32.6321 -32.6231 -32.6230
   -32.6198 -32.6196 -32.5939 -32.5939 -32.5759 -32.5759 -32.5736 -32.5735
    13.2079  13.2084  14.8626  14.8630  15.4819  15.4823  16.3204  16.3209
    16.3401  16.3405  16.3477  16.3479  16.3957  16.3961  16.5256  16.5261
    16.5334  16.5338  17.2739  17.2740  17.3450  17.3451  17.5151  17.5155
    17.5325  17.5329  17.6217  17.6219  17.7236  17.7238  17.9477  17.9480
    18.1052  18.1053  18.1242  18.1245  18.1290  18.1292  18.1732  18.1734
    18.2424  18.2425  18.2545  18.2546  18.3265  18.3266  19.3346  19.3347
    19.7098  19.7100  19.8689  19.8691  19.9624  19.9626  20.0002  20.0003
    20.0450  20.0452  20.0606  20.0607  20.4067  20.4069  20.4138  20.4140
    20.4481  20.4484  20.5459  20.5461  20.6340  20.6342  20.6366  20.6368
    20.7177  20.7179  20.7746  20.7748  20.9292  20.9293  21.0880  21.0881
    21.3633  21.3634  21.4174  21.4174  21.7269  21.7270  23.6090  23.6091
    23.9148  23.9150

          k = 0.1663 0.3889 0.3889 ( 11380 PWs)   bands (ev):

   -66.7956 -66.7736 -66.7727 -66.7565 -66.7408 -66.7331 -66.7321 -66.7260
   -66.7090 -66.7085 -66.7076 -66.7055 -66.6923 -66.6819 -66.6810 -66.6646
   -33.0680 -33.0474 -33.0470 -33.0298 -33.0289 -33.0254 -33.0215 -33.0212
   -33.0173 -33.0108 -33.0058 -32.9759 -32.9504 -32.9224 -32.8790 -32.8752
   -32.8745 -32.8598 -32.8592 -32.8420 -32.8404 -32.8399 -32.8391 -32.8036
   -32.7679 -32.7443 -32.7415 -32.7411 -32.7341 -32.7333 -32.7224 -32.6829
   -32.6801 -32.6553 -32.6544 -32.6462 -32.6452 -32.6277 -32.6210 -32.6210
   -32.6118 -32.6033 -32.6031 -32.6021 -32.5755 -32.5745 -32.5651 -32.5633
    13.0891  14.0586  14.0590  14.7648  15.5368  15.8949  15.8949  16.3287
    16.3477  16.4279  16.4280  16.4943  16.4950  16.5135  16.5388  16.5781
    16.7441  16.9821  16.9824  17.2439  17.3030  17.3540  17.4186  17.4190
    17.4494  17.4495  17.5861  17.6007  17.6129  17.6513  17.8659  17.9446
    17.9455  17.9693  18.0276  18.0281  18.0951  18.0957  18.1070  18.1507
    18.1659  18.2167  18.2171  18.3060  18.3152  18.7182  18.7186  19.3134
    19.7258  19.8921  19.9636  19.9641  19.9820  20.0160  20.0163  20.0307
    20.1542  20.2171  20.2270  20.2271  20.2596  20.2601  20.2758  20.2761
    20.4143  20.4477  20.4519  20.4962  20.5302  20.6189  20.6194  20.6377
    20.6632  20.6640  20.7115  20.7219  20.8858  20.9325  20.9330  20.9528
    21.3905  21.3914  21.4526  21.5309  21.7886  22.5738  22.5739  23.6811
    24.0287  24.7523

          k = 0.1663 0.3889-0.5000 ( 11364 PWs)   bands (ev):

   -66.7854 -66.7852 -66.7655 -66.7653 -66.7370 -66.7368 -66.7295 -66.7293
   -66.7085 -66.7083 -66.7066 -66.7064 -66.6864 -66.6862 -66.6722 -66.6720
   -33.0513 -33.0512 -33.0345 -33.0343 -33.0254 -33.0252 -33.0226 -33.0226
   -33.0189 -33.0187 -32.9983 -32.9982 -32.9056 -32.9056 -32.9011 -32.9009
   -32.8631 -32.8630 -32.8600 -32.8598 -32.8458 -32.8457 -32.8135 -32.8135
   -32.7721 -32.7720 -32.7393 -32.7393 -32.7276 -32.7275 -32.7099 -32.7098
   -32.6675 -32.6673 -32.6316 -32.6316 -32.6311 -32.6309 -32.6235 -32.6233
   -32.6223 -32.6222 -32.6021 -32.6021 -32.5677 -32.5676 -32.5664 -32.5664
    13.5410  13.5414  14.4047  14.4051  15.7511  15.7514  16.2346  16.2350
    16.4344  16.4348  16.4431  16.4436  16.5605  16.5608  16.6470  16.6473
    16.7418  16.7422  17.2811  17.2815  17.3398  17.3401  17.3448  17.3449
    17.3501  17.3502  17.5103  17.5106  17.7581  17.7583  17.7775  17.7777
    17.9097  17.9098  17.9626  17.9629  18.0080  18.0082  18.0460  18.0463
    18.2196  18.2197  18.2590  18.2591  18.4208  18.4209  18.9856  18.9857
    19.9280  19.9281  19.9821  19.9823  20.0905  20.0906  20.1242  20.1243
    20.1345  20.1347  20.1392  20.1393  20.2423  20.2425  20.3520  20.3522
    20.3602  20.3604  20.4879  20.4881  20.5243  20.5245  20.5998  20.5999
    20.6486  20.6489  20.6934  20.6936  20.7968  20.7969  20.9338  20.9339
    21.4507  21.4507  21.4901  21.4901  22.1770  22.1771  23.1236  23.1237
    24.4317  24.4319

          k = 0.1663-0.5000-0.5000 ( 11368 PWs)   bands (ev):

   -66.7766 -66.7765 -66.7756 -66.7756 -66.7339 -66.7338 -66.7329 -66.7329
   -66.7077 -66.7077 -66.7068 -66.7067 -66.6790 -66.6789 -66.6780 -66.6780
   -33.0400 -33.0400 -33.0390 -33.0390 -33.0271 -33.0270 -33.0268 -33.0266
   -33.0080 -33.0079 -33.0078 -33.0077 -32.8835 -32.8834 -32.8828 -32.8826
   -32.8609 -32.8609 -32.8601 -32.8601 -32.8601 -32.8600 -32.8593 -32.8593
   -32.7406 -32.7406 -32.7402 -32.7402 -32.7338 -32.7337 -32.7328 -32.7328
   -32.6476 -32.6476 -32.6467 -32.6467 -32.6251 -32.6251 -32.6250 -32.6250
   -32.6127 -32.6127 -32.6125 -32.6125 -32.5648 -32.5648 -32.5638 -32.5638
    13.9506  13.9507  13.9509  13.9515  16.0297  16.0300  16.0301  16.0303
    16.4623  16.4624  16.4628  16.4635  16.6940  16.6944  16.6944  16.6945
    17.0051  17.0052  17.0054  17.0060  17.2763  17.2766  17.2767  17.2768
    17.4211  17.4214  17.4217  17.4218  17.7609  17.7609  17.7612  17.7614
    17.8725  17.8728  17.8736  17.8736  17.9610  17.9610  17.9614  17.9619
    18.2193  18.2193  18.2197  18.2198  18.6736  18.6738  18.6742  18.6742
    20.0620  20.0621  20.0623  20.0626  20.1484  20.1484  20.1491  20.1492
    20.2479  20.2479  20.2481  20.2484  20.2611  20.2613  20.2614  20.2614
    20.2838  20.2840  20.2844  20.2844  20.4705  20.4705  20.4712  20.4713
    20.6705  20.6706  20.6713  20.6714  20.8402  20.8402  20.8405  20.8408
    21.4996  21.4996  21.5006  21.5006  22.6470  22.6470  22.6470  22.6471
    24.9531  24.9532

          k = 0.2771 0.0556 0.0556 ( 11353 PWs)   bands (ev):

   -66.8253 -66.7719 -66.7350 -66.7341 -66.7253 -66.7244 -66.7191 -66.7188
   -66.7181 -66.7179 -66.7174 -66.7168 -66.7132 -66.7125 -66.6872 -66.6434
   -33.1052 -33.1046 -33.1034 -33.1015 -33.0906 -33.0901 -32.9696 -32.9669
   -32.9612 -32.9587 -32.9582 -32.9437 -32.9364 -32.9325 -32.9273 -32.9270
   -32.8416 -32.8323 -32.8292 -32.8146 -32.7696 -32.7694 -32.7655 -32.7650
   -32.7610 -32.7547 -32.7545 -32.7392 -32.7391 -32.7367 -32.7365 -32.7179
   -32.7103 -32.6986 -32.6982 -32.6688 -32.6669 -32.6660 -32.6595 -32.6034
   -32.5859 -32.5854 -32.5847 -32.5831 -32.5731 -32.5706 -32.5700 -32.5680
    11.8263  13.9861  15.4498  15.4499  15.4776  15.4776  15.6191  15.6191
    15.7224  15.7441  15.8747  15.8969  15.9135  15.9135  16.2872  16.9148
    16.9602  16.9606  17.1474  17.1952  17.2277  17.2383  17.4594  17.4598
    17.5279  17.5283  17.6706  17.6712  17.8696  17.8913  17.9510  17.9515
    18.4274  18.4280  18.5593  18.5858  18.5890  18.5893  18.6257  18.6749
    18.8112  19.0655  19.0802  19.0808  19.2956  19.2962  19.4587  19.4589
    19.4921  19.4969  19.4969  19.5184  19.5654  19.6404  19.7514  20.1585
    20.1864  20.1867  20.2843  20.2845  20.4202  20.4342  20.4778  20.4920
    20.4921  20.6306  20.6319  20.6610  20.6907  20.6927  20.6996  20.7246
    20.7250  20.7435  20.9256  20.9716  21.0990  21.1677  21.1681  21.4032
    21.4846  21.4847  21.5659  21.5662  21.6862  21.6864  22.0702  22.0702
    22.2065  22.2070

          k = 0.2771 0.0556 0.1667 ( 11364 PWs)   bands (ev):

   -66.8221 -66.7701 -66.7507 -66.7338 -66.7326 -66.7243 -66.7207 -66.7184
   -66.7171 -66.7164 -66.7143 -66.7124 -66.7106 -66.7034 -66.6879 -66.6457
   -33.1088 -33.0973 -33.0967 -33.0906 -33.0842 -33.0656 -32.9824 -32.9813
   -32.9784 -32.9675 -32.9649 -32.9632 -32.9404 -32.9384 -32.9124 -32.8889
   -32.8467 -32.8400 -32.8048 -32.8022 -32.8002 -32.7985 -32.7796 -32.7719
   -32.7702 -32.7628 -32.7581 -32.7452 -32.7436 -32.7318 -32.7244 -32.7077
   -32.7046 -32.6912 -32.6824 -32.6707 -32.6543 -32.6367 -32.6360 -32.6292
   -32.6061 -32.5894 -32.5892 -32.5846 -32.5778 -32.5764 -32.5608 -32.5598
    11.9594  14.0804  14.8825  15.3350  15.5247  15.5816  15.7173  15.7379
    15.7694  15.8057  15.9376  15.9569  15.9825  16.2326  16.3365  16.8622
    16.9425  16.9749  17.2076  17.2706  17.2943  17.3010  17.3628  17.4296
    17.4533  17.4888  17.5799  17.6585  17.7638  17.8186  17.8285  18.1640
    18.3215  18.4223  18.4391  18.4606  18.4996  18.5436  18.5603  18.7509
    18.7969  18.9506  18.9740  19.1271  19.2009  19.2807  19.2859  19.2928
    19.3834  19.4698  19.4919  19.5422  19.5715  19.7167  19.7429  20.0557
    20.1803  20.2105  20.2524  20.2843  20.3169  20.3653  20.4032  20.4421
    20.5995  20.6134  20.6153  20.6819  20.6875  20.7060  20.7117  20.7197
    20.7708  20.8857  20.8992  20.9018  20.9197  20.9471  21.0046  21.1052
    21.2185  21.4314  21.4858  21.5688  21.7008  22.2026  22.2191  22.7784
    22.8904  22.9998

          k = 0.2771 0.0556 0.2778 ( 11354 PWs)   bands (ev):

   -66.8159 -66.7667 -66.7663 -66.7405 -66.7323 -66.7232 -66.7228 -66.7179
   -66.7164 -66.7161 -66.7158 -66.7127 -66.7046 -66.6896 -66.6892 -66.6503
   -33.1025 -33.0824 -33.0818 -33.0721 -33.0716 -33.0316 -32.9981 -32.9978
   -32.9946 -32.9940 -32.9847 -32.9817 -32.9592 -32.9292 -32.8880 -32.8478
   -32.8452 -32.8445 -32.8341 -32.8338 -32.8000 -32.7888 -32.7856 -32.7789
   -32.7775 -32.7653 -32.7642 -32.7566 -32.7553 -32.7504 -32.7110 -32.6836
   -32.6748 -32.6745 -32.6681 -32.6648 -32.6616 -32.6375 -32.6310 -32.6101
   -32.6093 -32.5971 -32.5965 -32.5891 -32.5884 -32.5881 -32.5577 -32.5568
    12.2211  14.2566  14.2654  15.1742  15.6487  15.7795  15.7809  15.9018
    15.9040  15.9299  16.0423  16.0849  16.0857  16.3808  16.3907  16.8019
    16.8616  17.0521  17.0538  17.2695  17.3421  17.3612  17.3776  17.4058
    17.4215  17.4832  17.5075  17.6822  17.7059  17.8050  17.8479  18.2175
    18.2177  18.3212  18.3398  18.3413  18.3580  18.3626  18.4181  18.5260
    18.7693  18.7805  18.8315  18.8442  18.9922  19.0480  19.0518  19.1268
    19.5594  19.5605  19.6199  19.6596  19.7035  19.7130  19.9220  20.0091
    20.0141  20.1763  20.2608  20.2741  20.2883  20.3071  20.3220  20.3762
    20.4142  20.5695  20.5711  20.5790  20.6797  20.6895  20.7231  20.7750
    20.7870  20.7906  20.8394  20.8547  20.8656  20.9712  20.9766  21.1500
    21.1522  21.1909  21.5383  21.7295  21.7448  22.4365  22.8492  22.8540
    23.4521  23.4595

          k = 0.2771 0.0556 0.3889 ( 11362 PWs)   bands (ev):

   -66.8066 -66.7814 -66.7616 -66.7483 -66.7303 -66.7254 -66.7215 -66.7178
   -66.7172 -66.7163 -66.7154 -66.7134 -66.6994 -66.6919 -66.6767 -66.6571
   -33.0865 -33.0615 -33.0604 -33.0555 -33.0462 -33.0322 -33.0144 -33.0082
   -33.0075 -33.0062 -33.0033 -32.9909 -32.9868 -32.9118 -32.8946 -32.8634
   -32.8605 -32.8361 -32.8251 -32.8002 -32.7990 -32.7983 -32.7969 -32.7929
   -32.7923 -32.7858 -32.7685 -32.7563 -32.7545 -32.7276 -32.7061 -32.6991
   -32.6810 -32.6598 -32.6555 -32.6472 -32.6454 -32.6410 -32.6211 -32.6088
   -32.6087 -32.6061 -32.6036 -32.5963 -32.5880 -32.5868 -32.5606 -32.5603
    12.6020  13.6519  14.4893  14.9773  15.7695  15.8232  16.0165  16.0559
    16.0929  16.1480  16.1570  16.1762  16.2704  16.3498  16.4025  16.6697
    16.6723  16.7617  17.2521  17.2535  17.2953  17.3166  17.3462  17.4767
    17.4805  17.5203  17.6134  17.6188  17.8611  17.9517  17.9577  17.9853
    18.0961  18.1865  18.2038  18.2565  18.2763  18.2978  18.3864  18.4044
    18.4281  18.4837  18.4872  18.4992  18.6346  18.7085  19.3242  19.3405
    19.7027  19.7173  19.7713  19.8090  19.8124  19.8179  19.8245  19.9100
    20.0214  20.0748  20.1492  20.1901  20.2025  20.3244  20.3334  20.3594
    20.4651  20.4829  20.5007  20.5051  20.6078  20.6849  20.6993  20.7066
    20.7260  20.7873  20.8059  20.8247  20.8365  20.9106  20.9291  20.9984
    21.3220  21.3835  21.5266  21.6824  21.9981  22.5818  22.7251  23.2797
    23.5244  24.1190

          k = 0.2771 0.0556-0.5000 ( 11362 PWs)   bands (ev):

   -66.7951 -66.7949 -66.7555 -66.7553 -66.7280 -66.7278 -66.7198 -66.7196
   -66.7168 -66.7165 -66.7145 -66.7143 -66.6954 -66.6951 -66.6660 -66.6658
   -33.0628 -33.0627 -33.0357 -33.0356 -33.0355 -33.0354 -33.0345 -33.0344
   -33.0168 -33.0167 -33.0078 -33.0077 -32.9442 -32.9442 -32.8899 -32.8896
   -32.8304 -32.8303 -32.8179 -32.8178 -32.8137 -32.8135 -32.7908 -32.7907
   -32.7820 -32.7819 -32.7560 -32.7558 -32.7517 -32.7516 -32.6926 -32.6926
   -32.6892 -32.6890 -32.6289 -32.6287 -32.6253 -32.6251 -32.6236 -32.6235
   -32.6229 -32.6229 -32.6072 -32.6072 -32.5711 -32.5710 -32.5702 -32.5702
    13.0863  13.0868  14.7418  14.7422  15.8313  15.8316  16.1163  16.1166
    16.2418  16.2421  16.3119  16.3123  16.3723  16.3727  16.4359  16.4363
    16.4979  16.4984  17.2661  17.2662  17.2914  17.2915  17.5498  17.5501
    17.5697  17.5701  17.5783  17.5786  17.7807  17.7809  18.1451  18.1454
    18.1784  18.1786  18.1856  18.1858  18.2124  18.2127  18.2231  18.2232
    18.3836  18.3837  18.3900  18.3901  18.4479  18.4480  19.5388  19.5389
    19.6691  19.6692  19.7331  19.7333  19.9067  19.9069  19.9958  19.9959
    20.0140  20.0142  20.0396  20.0397  20.1803  20.1805  20.4176  20.4178
    20.4299  20.4301  20.5685  20.5687  20.6118  20.6119  20.6981  20.6983
    20.7205  20.7206  20.7461  20.7462  20.8417  20.8419  20.9692  20.9693
    21.4512  21.4513  21.5647  21.5647  22.2894  22.2895  23.0208  23.0209
    24.2191  24.2192

          k = 0.2771 0.1667 0.1667 ( 11377 PWs)   bands (ev):

   -66.8190 -66.7684 -66.7499 -66.7489 -66.7323 -66.7314 -66.7252 -66.7167
   -66.7130 -66.7111 -66.7109 -66.7100 -66.7040 -66.7031 -66.6887 -66.6480
   -33.1006 -33.1000 -33.0941 -33.0756 -33.0616 -33.0611 -32.9912 -32.9891
   -32.9883 -32.9802 -32.9775 -32.9542 -32.9534 -32.9022 -32.9022 -32.8898
   -32.8839 -32.8489 -32.8225 -32.8157 -32.8152 -32.7869 -32.7811 -32.7808
   -32.7741 -32.7682 -32.7460 -32.7287 -32.7285 -32.7152 -32.7123 -32.7122
   -32.7085 -32.7082 -32.6721 -32.6718 -32.6515 -32.6289 -32.6279 -32.6233
   -32.6067 -32.6063 -32.5974 -32.5826 -32.5738 -32.5688 -32.5682 -32.5627
    12.0915  14.1771  14.9699  14.9702  15.4459  15.4459  15.6955  15.8639
    15.8640  15.9065  16.0048  16.0120  16.3070  16.3071  16.3990  16.8189
    16.9760  17.0359  17.1740  17.2932  17.3084  17.3091  17.3808  17.4063
    17.4277  17.4281  17.5907  17.6035  17.6039  17.7824  18.0014  18.0016
    18.2870  18.3172  18.3179  18.4081  18.4271  18.4736  18.6732  18.6732
    18.6810  18.6815  18.9215  19.0497  19.0503  19.0810  19.0857  19.1324
    19.4172  19.5189  19.5193  19.6628  19.6630  19.8376  19.9183  20.1046
    20.1047  20.2086  20.2940  20.3065  20.3065  20.3969  20.4004  20.4042
    20.4173  20.4175  20.6087  20.6110  20.6359  20.6591  20.6731  20.6734
    20.6746  20.8830  20.9455  20.9460  20.9735  21.0510  21.1227  21.1335
    21.1337  21.4091  21.4193  21.4197  21.8201  21.8201  22.7135  23.0512
    23.0514  23.4730

          k = 0.2771 0.1667 0.2778 ( 11369 PWs)   bands (ev):

   -66.8128 -66.7651 -66.7647 -66.7470 -66.7395 -66.7303 -66.7299 -66.7195
   -66.7104 -66.7102 -66.7099 -66.7046 -66.7040 -66.6903 -66.6898 -66.6524
   -33.0938 -33.0837 -33.0831 -33.0532 -33.0527 -33.0300 -33.0037 -33.0019
   -33.0016 -33.0010 -32.9871 -32.9637 -32.9506 -32.9264 -32.8952 -32.8634
   -32.8606 -32.8602 -32.8500 -32.8496 -32.8267 -32.8019 -32.8005 -32.7991
   -32.7534 -32.7433 -32.7424 -32.7359 -32.7348 -32.7135 -32.7131 -32.6980
   -32.6877 -32.6853 -32.6754 -32.6751 -32.6533 -32.6276 -32.6164 -32.6090
   -32.6086 -32.6057 -32.6050 -32.5838 -32.5832 -32.5812 -32.5653 -32.5629
    12.3509  14.3579  14.3663  15.1273  15.2904  15.6594  15.6597  16.0231
    16.0399  16.0424  16.1119  16.1370  16.4118  16.4666  16.4765  16.7914
    16.9740  17.0293  17.0299  17.2354  17.2566  17.3661  17.3827  17.4525
    17.4649  17.4824  17.4966  17.5114  17.7566  17.7685  17.8442  18.1123
    18.1151  18.2091  18.2549  18.2616  18.3167  18.3350  18.4176  18.4853
    18.5436  18.5537  18.6910  18.7043  18.7621  18.8308  18.8344  19.2716
    19.6224  19.6239  19.6594  19.7821  19.8541  19.8642  19.9972  20.0413
    20.1918  20.2002  20.2030  20.2036  20.2157  20.2899  20.3269  20.3424
    20.3742  20.5777  20.5798  20.5817  20.6119  20.6439  20.6517  20.6543
    20.6703  20.8491  20.8589  20.9702  20.9982  21.1130  21.1150  21.1321
    21.1389  21.2270  21.4012  21.5012  21.5045  22.3681  22.3707  23.3229
    24.0655  24.1039

          k = 0.2771 0.1667 0.3889 ( 11370 PWs)   bands (ev):

   -66.8039 -66.7793 -66.7601 -66.7471 -66.7437 -66.7349 -66.7280 -66.7224
   -66.7100 -66.7098 -66.7077 -66.7048 -66.6997 -66.6924 -66.6778 -66.6589
   -33.0786 -33.0654 -33.0600 -33.0421 -33.0293 -33.0236 -33.0209 -33.0163
   -33.0069 -32.9978 -32.9957 -32.9919 -32.9573 -32.9342 -32.9039 -32.8822
   -32.8781 -32.8429 -32.8350 -32.8300 -32.8256 -32.8163 -32.8156 -32.8154
   -32.7744 -32.7515 -32.7422 -32.7282 -32.7256 -32.7177 -32.7105 -32.7005
   -32.6811 -32.6648 -32.6636 -32.6523 -32.6453 -32.6367 -32.6238 -32.6138
   -32.6047 -32.6046 -32.5976 -32.5882 -32.5877 -32.5872 -32.5677 -32.5656
    12.7280  13.7641  14.5970  15.0951  15.3165  15.5999  15.9601  16.1871
    16.1957  16.2521  16.2807  16.3120  16.4429  16.4472  16.4938  16.6907
    16.7180  16.7628  17.2164  17.2414  17.3181  17.3273  17.3648  17.4110
    17.4797  17.5885  17.5973  17.6438  17.7251  17.8734  17.9084  17.9226
    18.0315  18.0918  18.1565  18.1892  18.2148  18.2449  18.2664  18.2821
    18.3069  18.3352  18.3499  18.3685  18.4497  18.5351  19.0493  19.4827
    19.6779  19.7812  19.8459  19.8529  19.8567  19.8959  19.9126  19.9576
    20.1037  20.1087  20.1150  20.2075  20.2215  20.2998  20.3771  20.4375
    20.4918  20.5088  20.5155  20.5945  20.6424  20.6449  20.6816  20.7011
    20.7040  20.7179  20.7202  20.8201  20.9188  21.0289  21.1473  21.2055
    21.2593  21.2747  21.4085  21.4350  21.4957  22.0452  22.9771  23.6402
    24.1368  24.2498

          k = 0.2771 0.1667-0.5000 ( 11368 PWs)   bands (ev):

   -66.7927 -66.7925 -66.7541 -66.7539 -66.7397 -66.7395 -66.7254 -66.7252
   -66.7099 -66.7097 -66.7061 -66.7059 -66.6957 -66.6955 -66.6675 -66.6673
   -33.0563 -33.0562 -33.0436 -33.0435 -33.0300 -33.0298 -33.0294 -33.0292
   -33.0051 -33.0051 -32.9910 -32.9910 -32.9489 -32.9489 -32.9107 -32.9105
   -32.8529 -32.8528 -32.8314 -32.8313 -32.8256 -32.8254 -32.8048 -32.8047
   -32.7700 -32.7700 -32.7483 -32.7481 -32.7224 -32.7223 -32.6898 -32.6897
   -32.6801 -32.6801 -32.6422 -32.6421 -32.6326 -32.6324 -32.6233 -32.6231
   -32.6192 -32.6190 -32.5946 -32.5946 -32.5753 -32.5752 -32.5738 -32.5738
    13.2067  13.2071  14.8560  14.8564  15.4865  15.4868  16.3191  16.3196
    16.3385  16.3388  16.3486  16.3489  16.3982  16.3986  16.5214  16.5218
    16.5324  16.5327  17.2743  17.2744  17.3433  17.3434  17.5124  17.5128
    17.5263  17.5267  17.6106  17.6109  17.7396  17.7398  17.9480  17.9483
    18.1095  18.1096  18.1264  18.1267  18.1285  18.1287  18.1849  18.1851
    18.2470  18.2471  18.2542  18.2544  18.3162  18.3164  19.3378  19.3379
    19.7123  19.7125  19.8653  19.8655  19.9572  19.9574  20.0014  20.0016
    20.0504  20.0505  20.0510  20.0511  20.4077  20.4079  20.4104  20.4106
    20.4440  20.4443  20.5468  20.5471  20.6269  20.6271  20.6429  20.6431
    20.7325  20.7327  20.7817  20.7818  20.9317  20.9317  21.0996  21.0996
    21.3613  21.3614  21.4123  21.4124  21.7269  21.7269  23.6094  23.6095
    23.9370  23.9372

          k = 0.2771 0.2778 0.2778 ( 11377 PWs)   bands (ev):

   -66.8069 -66.7620 -66.7618 -66.7610 -66.7380 -66.7375 -66.7369 -66.7234
   -66.7082 -66.7053 -66.7048 -66.7043 -66.6918 -66.6916 -66.6907 -66.6564
   -33.0772 -33.0766 -33.0762 -33.0269 -33.0266 -33.0264 -33.0108 -33.0105
   -33.0098 -33.0093 -32.9735 -32.9716 -32.9409 -32.9404 -32.8878 -32.8875
   -32.8874 -32.8635 -32.8629 -32.8622 -32.8347 -32.8243 -32.8231 -32.8225
   -32.7181 -32.7174 -32.7169 -32.7165 -32.7157 -32.7155 -32.7151 -32.7094
   -32.7089 -32.6782 -32.6776 -32.6776 -32.6402 -32.6241 -32.6237 -32.6235
   -32.5993 -32.5985 -32.5980 -32.5815 -32.5812 -32.5806 -32.5754 -32.5753
    12.6055  14.5482  14.5558  14.5561  15.5156  15.5157  15.5168  16.1962
    16.1987  16.1987  16.2357  16.2420  16.5953  16.6044  16.6044  16.8106
    17.0175  17.0180  17.0183  17.0240  17.2333  17.2382  17.4200  17.4361
    17.4365  17.5929  17.6045  17.6235  17.6371  17.6374  17.9696  17.9709
    17.9713  18.1206  18.1213  18.1286  18.2255  18.2259  18.2357  18.2824
    18.2943  18.4204  18.4209  18.4329  18.5617  18.5620  18.5655  19.4804
    19.6662  19.7574  19.7610  19.7615  19.9795  19.9799  19.9898  20.1235
    20.1236  20.1316  20.2861  20.2991  20.3195  20.3195  20.3337  20.4616
    20.4632  20.4635  20.5836  20.5854  20.5859  20.5894  20.5898  20.6102
    20.6199  20.8600  20.8653  20.8656  21.0929  21.0994  21.1000  21.1572
    21.1650  21.2215  21.2219  21.2296  21.9743  21.9743  21.9752  24.2613
    24.3635  24.3992

          k = 0.2771 0.2778 0.3889 ( 11371 PWs)   bands (ev):

   -66.7985 -66.7753 -66.7572 -66.7568 -66.7448 -66.7444 -66.7347 -66.7274
   -66.7068 -66.7052 -66.7004 -66.7000 -66.6937 -66.6933 -66.6799 -66.6624
   -33.0631 -33.0623 -33.0521 -33.0258 -33.0252 -33.0226 -33.0142 -33.0106
   -32.9943 -32.9940 -32.9906 -32.9831 -32.9530 -32.9215 -32.9214 -32.9132
   -32.8970 -32.8661 -32.8649 -32.8515 -32.8447 -32.8439 -32.8424 -32.8048
   -32.7573 -32.7446 -32.7196 -32.7172 -32.7027 -32.7017 -32.6887 -32.6882
   -32.6829 -32.6823 -32.6688 -32.6457 -32.6424 -32.6419 -32.6301 -32.6217
   -32.6039 -32.5938 -32.5915 -32.5909 -32.5854 -32.5823 -32.5817 -32.5734
    12.9745  13.9795  14.8009  14.8076  15.3227  15.3258  15.8354  16.3631
    16.3648  16.3829  16.4024  16.4310  16.6271  16.6311  16.6446  16.6492
    16.7836  16.8018  17.1455  17.1476  17.2673  17.3780  17.4288  17.4365
    17.4963  17.5188  17.5341  17.7020  17.7103  17.7613  17.8132  17.8191
    17.9555  17.9614  18.0230  18.0243  18.0585  18.0701  18.0855  18.0941
    18.1661  18.1733  18.1757  18.2317  18.3012  18.3052  18.7137  19.2961
    19.7177  19.8992  19.9299  19.9356  20.0343  20.0411  20.0759  20.0796
    20.1839  20.2365  20.2385  20.2439  20.2542  20.2701  20.3737  20.3894
    20.5175  20.5299  20.5877  20.5895  20.5899  20.5958  20.6198  20.6305
    20.6494  20.6804  20.8574  20.9775  20.9927  20.9953  21.1293  21.1383
    21.2034  21.2365  21.2452  21.2491  21.6211  21.6220  22.5153  23.6633
    24.7009  24.7341

          k = 0.2771 0.2778-0.5000 ( 11378 PWs)   bands (ev):

   -66.7879 -66.7877 -66.7515 -66.7512 -66.7511 -66.7509 -66.7314 -66.7312
   -66.7059 -66.7057 -66.6968 -66.6965 -66.6963 -66.6961 -66.6704 -66.6702
   -33.0448 -33.0447 -33.0440 -33.0439 -33.0207 -33.0204 -33.0184 -33.0183
   -33.0038 -33.0038 -32.9583 -32.9582 -32.9581 -32.9580 -32.9276 -32.9273
   -32.8829 -32.8828 -32.8590 -32.8588 -32.8575 -32.8573 -32.8008 -32.8008
   -32.7746 -32.7745 -32.7204 -32.7202 -32.6912 -32.6910 -32.6902 -32.6901
   -32.6640 -32.6639 -32.6636 -32.6635 -32.6336 -32.6334 -32.6239 -32.6238
   -32.6174 -32.6172 -32.5857 -32.5857 -32.5849 -32.5849 -32.5770 -32.5770
    13.4405  13.4410  15.0745  15.0749  15.0797  15.0801  16.2251  16.2255
    16.5213  16.5214  16.5216  16.5217  16.5563  16.5567  16.5682  16.5687
    16.6657  16.6660  17.3177  17.3178  17.4006  17.4007  17.4331  17.4335
    17.4359  17.4363  17.6549  17.6551  17.6672  17.6674  17.7198  17.7201
    17.9333  17.9337  18.0264  18.0265  18.0318  18.0319  18.0719  18.0721
    18.0760  18.0762  18.1015  18.1017  18.1584  18.1586  18.9662  18.9663
    19.9733  19.9735  20.0472  20.0474  20.0529  20.0530  20.0544  20.0545
    20.1026  20.1028  20.1101  20.1102  20.4108  20.4110  20.4430  20.4433
    20.5070  20.5072  20.5392  20.5394  20.5910  20.5912  20.6211  20.6213
    20.6320  20.6322  20.7974  20.7976  21.1938  21.1939  21.2031  21.2032
    21.2587  21.2588  21.2856  21.2857  21.2885  21.2885  23.0829  23.0830
    24.9769  24.9771

          k = 0.2771 0.3889 0.3889 ( 11387 PWs)   bands (ev):

   -66.7907 -66.7699 -66.7690 -66.7537 -66.7528 -66.7417 -66.7408 -66.7324
[...]
   -32.8359 -32.8358 -32.8333 -32.8332 -32.8030 -32.8029 -32.8026 -32.8025
   -32.7636 -32.7636 -32.7324 -32.7323 -32.7159 -32.7158 -32.7158 -32.7156
   -32.6534 -32.6534 -32.6533 -32.6531 -32.6369 -32.6367 -32.6268 -32.6266
   -32.6142 -32.6140 -32.5895 -32.5895 -32.5888 -32.5887 -32.5823 -32.5821
    12.9689  12.9693  15.2830  15.2832  15.2832  15.2833  16.1752  16.1753
    16.1753  16.1754  16.3043  16.3044  16.3295  16.3296  16.4094  16.4098
    16.4277  16.4278  17.2075  17.2077  17.2725  17.2727  17.7029  17.7029
    17.7036  17.7037  17.7237  17.7237  17.7240  17.7241  18.1733  18.1733
    18.1734  18.1734  18.2235  18.2237  18.2825  18.2826  18.2832  18.2833
    18.3421  18.3423  18.3423  18.3425  18.4097  18.4098  19.4665  19.4667
    19.6985  19.6986  19.8359  19.8362  19.8709  19.8709  19.8710  19.8711
    19.9978  19.9979  19.9981  19.9983  20.4618  20.4619  20.4719  20.4719
    20.4987  20.4988  20.5973  20.5974  20.6496  20.6498  20.7574  20.7575
    20.7644  20.7644  20.7644  20.7644  21.2846  21.2846  21.2849  21.2850
    21.2901  21.2903  21.3263  21.3265  21.3266  21.3266  23.4815  23.4818
    23.4819  23.4822

          k =-0.4988 0.1667 0.2778 ( 11368 PWs)   bands (ev):

   -66.7927 -66.7926 -66.7540 -66.7538 -66.7397 -66.7395 -66.7253 -66.7251
   -66.7098 -66.7096 -66.7062 -66.7060 -66.6957 -66.6955 -66.6676 -66.6674
   -33.0568 -33.0567 -33.0443 -33.0442 -33.0296 -33.0295 -33.0293 -33.0292
   -33.0055 -33.0054 -32.9913 -32.9912 -32.9493 -32.9492 -32.9101 -32.9100
   -32.8534 -32.8534 -32.8315 -32.8314 -32.8243 -32.8242 -32.8045 -32.8044
   -32.7698 -32.7697 -32.7487 -32.7486 -32.7214 -32.7213 -32.6898 -32.6896
   -32.6806 -32.6805 -32.6420 -32.6419 -32.6329 -32.6326 -32.6237 -32.6235
   -32.6191 -32.6189 -32.5946 -32.5945 -32.5757 -32.5756 -32.5734 -32.5733
    13.2026  13.2030  14.8595  14.8597  15.4853  15.4854  16.3158  16.3159
    16.3410  16.3411  16.3500  16.3500  16.3918  16.3919  16.5223  16.5225
    16.5277  16.5278  17.2637  17.2638  17.3354  17.3356  17.5121  17.5122
    17.5266  17.5266  17.6222  17.6222  17.7395  17.7396  17.9601  17.9602
    18.1037  18.1039  18.1336  18.1337  18.1362  18.1362  18.1853  18.1854
    18.2468  18.2469  18.2548  18.2549  18.3186  18.3187  19.3410  19.3411
    19.7153  19.7155  19.8625  19.8626  19.9507  19.9510  19.9948  19.9949
    20.0412  20.0413  20.0474  20.0475  20.4152  20.4152  20.4154  20.4156
    20.4524  20.4525  20.5472  20.5473  20.6372  20.6372  20.6448  20.6449
    20.7326  20.7327  20.7869  20.7870  20.9286  20.9288  21.0967  21.0968
    21.3592  21.3594  21.4137  21.4137  21.7253  21.7256  23.6107  23.6112
    23.9315  23.9318

          k =-0.4988 0.1667 0.3889 ( 11374 PWs)   bands (ev):

   -66.7855 -66.7853 -66.7657 -66.7655 -66.7368 -66.7367 -66.7294 -66.7292
   -66.7082 -66.7081 -66.7065 -66.7064 -66.6865 -66.6863 -66.6723 -66.6721
   -33.0523 -33.0522 -33.0346 -33.0345 -33.0252 -33.0251 -33.0239 -33.0238
   -33.0189 -33.0188 -32.9986 -32.9985 -32.9061 -32.9060 -32.8991 -32.8990
   -32.8638 -32.8638 -32.8581 -32.8579 -32.8460 -32.8459 -32.8137 -32.8136
   -32.7722 -32.7722 -32.7395 -32.7395 -32.7276 -32.7275 -32.7099 -32.7099
   -32.6664 -32.6662 -32.6321 -32.6320 -32.6304 -32.6301 -32.6243 -32.6241
   -32.6228 -32.6226 -32.6027 -32.6026 -32.5674 -32.5673 -32.5664 -32.5663
    13.5360  13.5363  14.4008  14.4010  15.7529  15.7530  16.2313  16.2314
    16.4355  16.4357  16.4425  16.4427  16.5609  16.5610  16.6419  16.6419
    16.7356  16.7357  17.2743  17.2743  17.3360  17.3361  17.3378  17.3379
    17.3439  17.3440  17.5119  17.5119  17.7654  17.7654  17.7931  17.7932
    17.9067  17.9069  17.9726  17.9726  18.0214  18.0215  18.0514  18.0515
    18.2110  18.2111  18.2508  18.2509  18.4316  18.4317  18.9928  18.9929
    19.9254  19.9255  19.9870  19.9871  20.0766  20.0768  20.1111  20.1111
    20.1322  20.1323  20.1324  20.1326  20.2475  20.2475  20.3488  20.3490
    20.3614  20.3616  20.4905  20.4905  20.5266  20.5266  20.5999  20.6001
    20.6622  20.6623  20.7092  20.7092  20.8121  20.8122  20.9474  20.9474
    21.4463  21.4464  21.4860  21.4860  22.1758  22.1761  23.1244  23.1248
    24.4479  24.4482

          k =-0.4988 0.1667-0.5000 ( 11364 PWs)   bands (ev):

   -66.7765 -66.7764 -66.7761 -66.7759 -66.7335 -66.7334 -66.7331 -66.7329
   -66.7074 -66.7072 -66.7070 -66.7068 -66.6789 -66.6787 -66.6785 -66.6783
   -33.0409 -33.0408 -33.0405 -33.0405 -33.0270 -33.0269 -33.0268 -33.0267
   -33.0081 -33.0080 -33.0079 -33.0078 -32.8811 -32.8810 -32.8809 -32.8807
   -32.8611 -32.8610 -32.8610 -32.8610 -32.8602 -32.8600 -32.8596 -32.8595
   -32.7407 -32.7406 -32.7405 -32.7405 -32.7335 -32.7334 -32.7332 -32.7331
   -32.6465 -32.6463 -32.6462 -32.6460 -32.6256 -32.6255 -32.6255 -32.6254
   -32.6133 -32.6132 -32.6131 -32.6130 -32.5643 -32.5642 -32.5639 -32.5639
    13.9459  13.9463  13.9464  13.9467  16.0291  16.0292  16.0295  16.0296
    16.4630  16.4633  16.4635  16.4635  16.6911  16.6911  16.6913  16.6914
    16.9981  16.9983  16.9986  16.9987  17.2725  17.2726  17.2728  17.2729
    17.4214  17.4214  17.4216  17.4217  17.7602  17.7604  17.7605  17.7605
    17.8876  17.8877  17.8877  17.8880  17.9676  17.9679  17.9679  17.9680
    18.2108  18.2109  18.2110  18.2111  18.6825  18.6827  18.6828  18.6828
    20.0634  20.0636  20.0636  20.0637  20.1359  20.1361  20.1362  20.1363
    20.2473  20.2475  20.2476  20.2476  20.2549  20.2550  20.2550  20.2552
    20.2849  20.2850  20.2850  20.2853  20.4739  20.4740  20.4743  20.4743
    20.6858  20.6859  20.6861  20.6862  20.8564  20.8565  20.8566  20.8567
    21.4958  21.4959  21.4961  21.4962  22.6468  22.6468  22.6471  22.6472
    24.9690  24.9694

          k =-0.4988 0.2778 0.2778 ( 11372 PWs)   bands (ev):

   -66.7879 -66.7878 -66.7518 -66.7515 -66.7507 -66.7507 -66.7313 -66.7311
   -66.7058 -66.7056 -66.6971 -66.6967 -66.6960 -66.6959 -66.6705 -66.6703
   -33.0452 -33.0451 -33.0445 -33.0444 -33.0201 -33.0200 -33.0183 -33.0182
   -33.0046 -33.0046 -32.9585 -32.9585 -32.9585 -32.9583 -32.9263 -32.9261
   -32.8839 -32.8838 -32.8579 -32.8578 -32.8573 -32.8572 -32.8007 -32.8006
   -32.7743 -32.7742 -32.7206 -32.7206 -32.6904 -32.6902 -32.6900 -32.6898
   -32.6640 -32.6639 -32.6638 -32.6638 -32.6342 -32.6339 -32.6243 -32.6241
   -32.6171 -32.6169 -32.5858 -32.5857 -32.5850 -32.5849 -32.5766 -32.5765
    13.4367  13.4370  15.0775  15.0777  15.0777  15.0779  16.2225  16.2227
    16.5235  16.5236  16.5236  16.5238  16.5488  16.5489  16.5706  16.5710
    16.6608  16.6609  17.3073  17.3075  17.3929  17.3930  17.4306  17.4306
    17.4313  17.4314  17.6684  17.6684  17.6687  17.6687  17.7311  17.7312
    17.9434  17.9434  18.0231  18.0233  18.0238  18.0239  18.0791  18.0792
    18.0792  18.0793  18.1105  18.1106  18.1531  18.1532  18.9696  18.9697
    19.9763  19.9764  20.0391  20.0394  20.0496  20.0497  20.0498  20.0499
    20.1007  20.1008  20.1011  20.1012  20.4114  20.4116  20.4494  20.4496
    20.5082  20.5082  20.5489  20.5489  20.5949  20.5950  20.6324  20.6325
    20.6325  20.6326  20.8061  20.8061  21.1990  21.1991  21.1994  21.1995
    21.2525  21.2526  21.2849  21.2852  21.2853  21.2854  23.0834  23.0839
    24.9989  24.9993

          k =-0.4988 0.2778 0.3889 ( 11376 PWs)   bands (ev):

   -66.7810 -66.7809 -66.7623 -66.7621 -66.7473 -66.7472 -66.7371 -66.7369
   -66.7025 -66.7023 -66.6979 -66.6977 -66.6880 -66.6878 -66.6749 -66.6747
   -33.0380 -33.0379 -33.0298 -33.0297 -33.0130 -33.0129 -33.0117 -33.0117
   -33.0034 -33.0033 -32.9716 -32.9714 -32.9271 -32.9270 -32.9203 -32.9202
   -32.9026 -32.9026 -32.8877 -32.8876 -32.8837 -32.8836 -32.8386 -32.8384
   -32.7442 -32.7441 -32.7018 -32.7018 -32.6912 -32.6911 -32.6886 -32.6885
   -32.6627 -32.6625 -32.6484 -32.6483 -32.6284 -32.6283 -32.6282 -32.6282
   -32.6239 -32.6237 -32.5994 -32.5993 -32.5803 -32.5802 -32.5778 -32.5777
    13.7699  13.7702  14.6288  14.6290  15.3773  15.3775  16.0230  16.0232
    16.6087  16.6089  16.6197  16.6198  16.7624  16.7625  16.7805  16.7806
    16.8192  16.8193  17.2673  17.2673  17.2938  17.2938  17.3729  17.3730
    17.3884  17.3885  17.5824  17.5824  17.5980  17.5980  17.7334  17.7334
    17.7799  17.7800  17.7938  17.7940  17.9190  17.9190  17.9614  17.9615
    17.9873  17.9875  18.0643  18.0644  18.1289  18.1289  18.6165  18.6166
    20.1401  20.1404  20.1664  20.1664  20.1683  20.1684  20.1894  20.1895
    20.2273  20.2274  20.2720  20.2722  20.3919  20.3920  20.4029  20.4031
    20.4646  20.4646  20.4973  20.4974  20.5315  20.5316  20.5837  20.5838
    20.6183  20.6184  20.8175  20.8176  20.9169  20.9171  21.0011  21.0011
    21.2304  21.2304  21.2541  21.2541  21.7038  21.7041  22.6047  22.6052
    25.5314  25.5317

          k =-0.4988 0.2778-0.5000 ( 11372 PWs)   bands (ev):

   -66.7725 -66.7724 -66.7722 -66.7720 -66.7427 -66.7426 -66.7423 -66.7421
   -66.7000 -66.6999 -66.6997 -66.6995 -66.6810 -66.6808 -66.6806 -66.6804
   -33.0256 -33.0255 -33.0253 -33.0253 -33.0166 -33.0165 -33.0165 -33.0163
   -32.9871 -32.9870 -32.9869 -32.9868 -32.9124 -32.9123 -32.9122 -32.9120
   -32.9021 -32.9020 -32.9018 -32.9017 -32.8796 -32.8794 -32.8793 -32.8792
   -32.7156 -32.7155 -32.7154 -32.7153 -32.6939 -32.6938 -32.6935 -32.6935
   -32.6400 -32.6399 -32.6398 -32.6396 -32.6364 -32.6363 -32.6362 -32.6362
   -32.6150 -32.6149 -32.6149 -32.6148 -32.5783 -32.5782 -32.5779 -32.5779
    14.1784  14.1787  14.1789  14.1792  15.7160  15.7162  15.7164  15.7166
    16.6384  16.6387  16.6389  16.6390  16.9277  16.9277  16.9279  16.9280
    17.0319  17.0321  17.0324  17.0324  17.2282  17.2283  17.2286  17.2286
    17.4913  17.4913  17.4914  17.4916  17.6247  17.6248  17.6248  17.6249
    17.8010  17.8013  17.8013  17.8014  17.8283  17.8284  17.8284  17.8287
    18.0068  18.0069  18.0070  18.0071  18.3207  18.3209  18.3209  18.3210
    20.1994  20.1996  20.1997  20.1998  20.2938  20.2940  20.2942  20.2942
    20.3326  20.3327  20.3328  20.3329  20.3514  20.3515  20.3515  20.3517
    20.4567  20.4568  20.4570  20.4571  20.5867  20.5867  20.5868  20.5870
    20.5997  20.5997  20.6000  20.6001  20.8689  20.8690  20.8691  20.8692
    21.2564  21.2565  21.2567  21.2567  22.1475  22.1475  22.1478  22.1479
    26.0610  26.0612

          k =-0.4988 0.3889 0.3889 ( 11394 PWs)   bands (ev):

   -66.7747 -66.7746 -66.7580 -66.7577 -66.7570 -66.7569 -66.7445 -66.7444
   -66.6976 -66.6974 -66.6908 -66.6905 -66.6898 -66.6897 -66.6787 -66.6785
   -33.0183 -33.0183 -33.0177 -33.0176 -32.9992 -32.9992 -32.9985 -32.9983
   -32.9836 -32.9835 -32.9483 -32.9482 -32.9398 -32.9396 -32.9396 -32.9395
   -32.9339 -32.9338 -32.9181 -32.9180 -32.9174 -32.9173 -32.8702 -32.8701
   -32.7164 -32.7163 -32.6710 -32.6710 -32.6682 -32.6680 -32.6679 -32.6679
   -32.6590 -32.6589 -32.6585 -32.6583 -32.6376 -32.6375 -32.6302 -32.6299
   -32.6212 -32.6209 -32.5992 -32.5991 -32.5984 -32.5983 -32.5919 -32.5919
    14.1021  14.1024  14.9480  14.9483  14.9483  14.9485  15.7081  15.7083
    16.8134  16.8137  16.8553  16.8553  16.8752  16.8753  16.8754  16.8755
    17.0120  17.0120  17.2415  17.2415  17.2421  17.2422  17.4180  17.4181
    17.4570  17.4572  17.5205  17.5206  17.5433  17.5433  17.6577  17.6577
    17.6579  17.6580  17.7605  17.7606  17.7612  17.7613  17.8280  17.8281
    17.8283  17.8283  17.8803  17.8804  17.8908  17.8909  18.2544  18.2544
    20.2302  20.2305  20.2512  20.2512  20.2515  20.2515  20.3791  20.3791
    20.3795  20.3796  20.4051  20.4053  20.4258  20.4259  20.4859  20.4861
    20.5092  20.5094  20.5160  20.5160  20.5160  20.5161  20.5993  20.5995
    20.6435  20.6435  20.7959  20.7960  21.0120  21.0120  21.0124  21.0125
    21.0253  21.0253  21.3039  21.3042  21.3043  21.3044  22.1462  22.1466
    26.6986  26.6987

          k =-0.4988 0.3889-0.5000 ( 11396 PWs)   bands (ev):

   -66.7669 -66.7668 -66.7666 -66.7664 -66.7516 -66.7515 -66.7512 -66.7510
   -66.6937 -66.6935 -66.6933 -66.6931 -66.6841 -66.6840 -66.6837 -66.6835
   -33.0032 -33.0031 -33.0029 -33.0029 -32.9985 -32.9984 -32.9983 -32.9982
   -32.9616 -32.9614 -32.9614 -32.9613 -32.9442 -32.9441 -32.9440 -32.9439
   -32.9402 -32.9401 -32.9399 -32.9398 -32.9050 -32.9048 -32.9047 -32.9047
   -32.6911 -32.6910 -32.6909 -32.6909 -32.6574 -32.6573 -32.6570 -32.6570
   -32.6509 -32.6508 -32.6508 -32.6507 -32.6329 -32.6327 -32.6327 -32.6325
   -32.6194 -32.6193 -32.6193 -32.6191 -32.5990 -32.5989 -32.5987 -32.5986
    14.5071  14.5074  14.5076  14.5078  15.3258  15.3261  15.3263  15.3265
    16.8774  16.8777  16.8779  16.8779  17.0772  17.0773  17.0776  17.0777
    17.1621  17.1621  17.1624  17.1624  17.1805  17.1806  17.1809  17.1810
    17.5714  17.5714  17.5716  17.5718  17.5874  17.5875  17.5876  17.5876
    17.5888  17.5888  17.5889  17.5890  17.7495  17.7496  17.7496  17.7499
    17.8075  17.8076  17.8076  17.8077  17.9575  17.9577  17.9577  17.9578
    20.2861  20.2863  20.2864  20.2865  20.3445  20.3446  20.3448  20.3449
    20.4291  20.4292  20.4294  20.4295  20.4976  20.4977  20.4979  20.4980
    20.5092  20.5092  20.5092  20.5094  20.5624  20.5625  20.5626  20.5627
    20.8317  20.8318  20.8319  20.8320  20.9415  20.9415  20.9416  20.9419
    20.9840  20.9840  20.9842  20.9843  21.7170  21.7170  21.7173  21.7174
    27.2531  27.2534

          k =-0.4988-0.5000-0.5000 ( 11376 PWs)   bands (ev):

   -66.7602 -66.7602 -66.7599 -66.7599 -66.7595 -66.7594 -66.7588 -66.7587
   -66.6887 -66.6886 -66.6883 -66.6883 -66.6879 -66.6879 -66.6872 -66.6871
   -32.9748 -32.9747 -32.9747 -32.9747 -32.9746 -32.9742 -32.9741 -32.9740
   -32.9736 -32.9735 -32.9733 -32.9733 -32.9724 -32.9724 -32.9724 -32.9724
   -32.9335 -32.9332 -32.9332 -32.9331 -32.9331 -32.9331 -32.9331 -32.9330
   -32.6692 -32.6690 -32.6689 -32.6688 -32.6688 -32.6688 -32.6688 -32.6687
   -32.6263 -32.6263 -32.6260 -32.6259 -32.6257 -32.6257 -32.6257 -32.6256
   -32.6254 -32.6252 -32.6251 -32.6251 -32.6250 -32.6250 -32.6250 -32.6248
    14.9039  14.9040  14.9042  14.9042  14.9043  14.9045  14.9048  14.9049
    17.1263  17.1264  17.1264  17.1264  17.1267  17.1269  17.1274  17.1275
    17.1339  17.1342  17.1343  17.1343  17.1343  17.1345  17.1348  17.1349
    17.6403  17.6405  17.6405  17.6407  17.6407  17.6408  17.6408  17.6408
    17.6532  17.6534  17.6536  17.6537  17.6542  17.6542  17.6543  17.6543
    17.6640  17.6640  17.6640  17.6640  17.6641  17.6641  17.6642  17.6644
    20.3881  20.3881  20.3884  20.3884  20.3886  20.3887  20.3890  20.3893
    20.3916  20.3917  20.3917  20.3917  20.3923  20.3925  20.3927  20.3929
    20.7223  20.7223  20.7223  20.7223  20.7224  20.7225  20.7226  20.7229
    20.7338  20.7339  20.7340  20.7340  20.7344  20.7344  20.7346  20.7346
    21.3198  21.3198  21.3200  21.3202  21.3202  21.3203  21.3203  21.3204
    28.4013  28.4123

     the Fermi energy is    20.4568 ev

!    total energy              =   -5267.70815068 Ry
     Harris-Foulkes estimate   =   -5267.70818414 Ry
     estimated scf accuracy    <       0.00003836 Ry

     total all-electron energy =    -40728.452680 Ry

     The total energy is the sum of the following terms:

     one-electron contribution =   -1623.72085015 Ry
     hartree contribution      =     990.40169429 Ry
     xc contribution           =    -442.93581279 Ry
     ewald contribution        =   -2866.56311959 Ry
     one-center paw contrib.   =   -1324.75857380 Ry
     smearing contrib. (-TS)   =      -0.13148863 Ry

     convergence has been achieved in  12 iterations

     Forces acting on atoms (cartesian axes, Ry/au):

     atom    1 type  1   force =     0.00000000    0.00000000    0.00000000
     atom    2 type  1   force =     0.00049094   -0.00028406   -0.00028406
     atom    3 type  1   force =     0.00000000    0.00000000    0.00000000
     atom    4 type  1   force =     0.00049094   -0.00028406    0.00028406
     atom    5 type  1   force =     0.00000000    0.00000000    0.00000000
     atom    6 type  1   force =     0.00049094    0.00028406   -0.00028406
     atom    7 type  1   force =     0.00000000    0.00000000    0.00000000
     atom    8 type  1   force =     0.00049094    0.00028406    0.00028406
     atom    9 type  1   force =     0.00000000    0.00000000    0.00000000
     atom   10 type  1   force =    -0.00049094   -0.00028406   -0.00028406
     atom   11 type  1   force =     0.00000000    0.00000000    0.00000000
     atom   12 type  1   force =    -0.00049094   -0.00028406    0.00028406
     atom   13 type  1   force =     0.00000000    0.00000000    0.00000000
     atom   14 type  1   force =    -0.00049094    0.00028406   -0.00028406
     atom   15 type  1   force =     0.00000000    0.00000000    0.00000000
     atom   16 type  1   force =    -0.00049094    0.00028406    0.00028406

     Total force =     0.001794     Total SCF correction =     0.007231
     SCF correction compared to forces is large: reduce conv_thr to get better values


     Computing stress (Cartesian axis) and pressure

          total   stress  (Ry/bohr**3)                   (kbar)     P=  -21.08
  -0.00011864   0.00000000   0.00000000        -17.45      0.00      0.00
   0.00000000  -0.00015566   0.00000000          0.00    -22.90      0.00
   0.00000000   0.00000000  -0.00015566          0.00      0.00    -22.90


     Writing output data file WlRQapSFHqlTbqXC.save/
 
     init_run     :      6.44s CPU      6.93s WALL (       1 calls)
     electrons    :    270.79s CPU    280.00s WALL (       1 calls)
     forces       :      2.25s CPU      2.47s WALL (       1 calls)
     stress       :      6.05s CPU      6.13s WALL (       1 calls)

     Called by init_run:
     wfcinit      :      6.17s CPU      6.55s WALL (       1 calls)
     potinit      :      0.12s CPU      0.14s WALL (       1 calls)
     hinit0       :      0.07s CPU      0.09s WALL (       1 calls)

     Called by electrons:
     c_bands      :    242.96s CPU    250.44s WALL (      13 calls)
     sum_band     :     26.59s CPU     28.01s WALL (      13 calls)
     v_of_rho     :      0.12s CPU      0.23s WALL (      13 calls)
     newd         :      0.20s CPU      0.26s WALL (      13 calls)
     PAW_pot      :      0.91s CPU      1.00s WALL (      13 calls)
     mix_rho      :      0.04s CPU      0.08s WALL (      13 calls)

     Called by c_bands:
     init_us_2    :      1.32s CPU      1.36s WALL (    2175 calls)
     cegterg      :    236.17s CPU    243.56s WALL (     975 calls)

     Called by sum_band:
     sum_band:bec :      0.38s CPU      0.39s WALL (     975 calls)
     addusdens    :      0.20s CPU      0.24s WALL (      13 calls)

     Called by *egterg:
     h_psi        :    105.29s CPU    109.95s WALL (    3089 calls)
     s_psi        :      5.65s CPU      5.69s WALL (    3089 calls)
     g_psi        :      0.23s CPU      0.23s WALL (    2039 calls)
     cdiaghg      :    103.65s CPU    104.13s WALL (    2939 calls)

     Called by h_psi:
     h_psi:pot    :    104.65s CPU    109.31s WALL (    3089 calls)
     h_psi:calbec :      8.48s CPU      9.98s WALL (    3089 calls)
     vloc_psi     :     90.46s CPU     93.58s WALL (    3089 calls)
     add_vuspsi   :      5.69s CPU      5.73s WALL (    3089 calls)

     General routines
     calbec       :     13.68s CPU     16.06s WALL (    4439 calls)
     fft          :      0.16s CPU      0.38s WALL (     194 calls)
     ffts         :      0.03s CPU      0.08s WALL (      26 calls)
     fftw         :    105.46s CPU    109.03s WALL (  816460 calls)
     interpolate  :      0.04s CPU      0.07s WALL (      13 calls)
 
     Parallel routines
     fft_scatt_xy :      7.16s CPU      7.38s WALL (  816680 calls)
     fft_scatt_yz :     70.56s CPU     73.24s WALL (  816680 calls)
 
     PWSCF        :  4m50.67s CPU     5m 7.94s WALL

 
   This run was terminated on:   6:47:29   5Sep2020            

=------------------------------------------------------------------------------=
   JOB DONE.
=------------------------------------------------------------------------------=
