--------------------------------------------------------------------------
WARNING: There was an error initializing an OpenFabrics device.

  Local host:   bear-pg0211u07b
  Local device: mlx5_0
--------------------------------------------------------------------------

     Program PWSCF v.6.3 starts on  5Sep2020 at  7: 9: 7 

     This program is part of the open-source Quantum ESPRESSO suite
     for quantum simulation of materials; please cite
         "P. Giannozzi et al., J. Phys.:Condens. Matter 21 395502 (2009);
         "P. Giannozzi et al., J. Phys.:Condens. Matter 29 465901 (2017);
          URL http://www.quantum-espresso.org", 
     in publications or presentations arising from this work. More details at
     http://www.quantum-espresso.org/quote

     Parallel version (MPI & OpenMP), running on      40 processor cores
     Number of MPI processes:                40
     Threads/MPI process:                     1

     MPI processes distributed on     1 nodes
     R & G space division:  proc/nbgrp/npool/nimage =      40
     Reading input from wd/ec/ec_2_002.in
Warning: card &IONS ignored
Warning: card ION_DYNAMICS = 'BFGS', ignored
Warning: card / ignored
Warning: card &CELL ignored
Warning: card CELL_DYNAMICS = 'BFGS', ignored
Warning: card CELL_FACTOR = 2.0, ignored
Warning: card PRESS = 0.0, ignored
Warning: card / ignored

     Current dimensions of program PWSCF are:
     Max number of different atomic species (ntypx) = 10
     Max number of k-points (npk) =  40000
     Max angular momentum in pseudopotentials (lmaxx) =  3
               file Fe.pbe-spn-kjpaw_psl.1.0.0.UPF: wavefunction(s)  3P 3D renormalized

     Subspace diagonalization in iterative solution of the eigenvalue problem:
     a serial algorithm will be used

 
     Parallelization info
     --------------------
     sticks:   dense  smooth     PW     G-vecs:    dense   smooth      PW
     Min          92      61     17                 4226     2267     339
     Max          93      62     18                 4231     2271     343
     Sum        3705    2441    681               169133    90799   13613
 


     bravais-lattice index     =            0
     lattice parameter (alat)  =      10.3915  a.u.
     unit-cell volume          =    1122.7986 (a.u.)^3
     number of atoms/cell      =           16
     number of atomic types    =            1
     number of electrons       =       256.00
     number of Kohn-Sham states=          154
     kinetic-energy cutoff     =      71.0000  Ry
     charge density cutoff     =     430.0000  Ry
     convergence threshold     =      5.0E-05
     mixing beta               =       0.1000
     number of iterations used =           10  plain     mixing
     Exchange-correlation      = SLA PW PBX PBC ( 1  4  3  4 0 0)

     celldm(1)=  10.391466  celldm(2)=   0.000000  celldm(3)=   0.000000
     celldm(4)=   0.000000  celldm(5)=   0.000000  celldm(6)=   0.000000

     crystal axes: (cart. coord. in units of alat)
               a(1) = (   1.000000   0.000000   0.000000 )  
               a(2) = (   0.000000   1.000625   0.000000 )  
               a(3) = (   0.000000   0.000000   1.000000 )  

     reciprocal axes: (cart. coord. in units 2 pi/alat)
               b(1) = (  1.000000  0.000000  0.000000 )  
               b(2) = (  0.000000  0.999375  0.000000 )  
               b(3) = (  0.000000  0.000000  1.000000 )  


     PseudoPot. # 1 for Fe read from file:
     /rds/homes/b/bxp912/pp/Fe.pbe-spn-kjpaw_psl.1.0.0.UPF
     MD5 check sum: 42f43b795421b414b0dc916aa790dbcb
     Pseudo is Projector augmented-wave + core cor, Zval = 16.0
     Generated using "atomic" code by A. Dal Corso v.6.3
     Shape of augmentation charge: PSQ
     Using radial grid of 1191 points,  6 beta functions with: 
                l(1) =   0
                l(2) =   0
                l(3) =   1
                l(4) =   1
                l(5) =   2
                l(6) =   2
     Q(r) pseudized with 0 coefficients 


     atomic species   valence    mass     pseudopotential
        Fe            16.00    55.84500     Fe( 1.00)

     16 Sym. Ops., with inversion, found



   Cartesian axes

     site n.     atom                  positions (alat units)
         1           Fe  tau(   1) = (   0.0000000   0.0000000   0.0000000  )
         2           Fe  tau(   2) = (   0.2500089   0.2501652   0.2500089  )
         3           Fe  tau(   3) = (   0.0000000   0.0000000   0.4999995  )
         4           Fe  tau(   4) = (   0.2500089   0.2501652   0.7499911  )
         5           Fe  tau(   5) = (   0.0000000   0.5003126   0.0000000  )
         6           Fe  tau(   6) = (   0.2500089   0.7504599   0.2500089  )
         7           Fe  tau(   7) = (   0.0000000   0.5003126   0.4999995  )
         8           Fe  tau(   8) = (   0.2500089   0.7504599   0.7499911  )
         9           Fe  tau(   9) = (   0.5000001   0.0000000   0.0000000  )
        10           Fe  tau(  10) = (   0.7499912   0.2501652   0.2500089  )
        11           Fe  tau(  11) = (   0.5000001   0.0000000   0.4999995  )
        12           Fe  tau(  12) = (   0.7499912   0.2501652   0.7499911  )
        13           Fe  tau(  13) = (   0.5000001   0.5003126   0.0000000  )
        14           Fe  tau(  14) = (   0.7499912   0.7504599   0.2500089  )
        15           Fe  tau(  15) = (   0.5000001   0.5003126   0.4999995  )
        16           Fe  tau(  16) = (   0.7499912   0.7504599   0.7499911  )

     number of k points=    75  Marzari-Vanderbilt smearing, width (Ry)=  0.0400
                       cart. coord. in units 2pi/alat
        k(    1) = (   0.0555556   0.0555209   0.0555556), wk =   0.0219479
        k(    2) = (   0.0555556   0.0555209   0.1666667), wk =   0.0438957
        k(    3) = (   0.0555556   0.0555209   0.2777778), wk =   0.0438957
        k(    4) = (   0.0555556   0.0555209   0.3888889), wk =   0.0438957
        k(    5) = (   0.0555556   0.0555209  -0.5000000), wk =   0.0219479
        k(    6) = (   0.0555556   0.1665626   0.0555556), wk =   0.0219479
        k(    7) = (   0.0555556   0.1665626   0.1666667), wk =   0.0438957
        k(    8) = (   0.0555556   0.1665626   0.2777778), wk =   0.0438957
        k(    9) = (   0.0555556   0.1665626   0.3888889), wk =   0.0438957
        k(   10) = (   0.0555556   0.1665626  -0.5000000), wk =   0.0219479
        k(   11) = (   0.0555556   0.2776043   0.0555556), wk =   0.0219479
        k(   12) = (   0.0555556   0.2776043   0.1666667), wk =   0.0438957
        k(   13) = (   0.0555556   0.2776043   0.2777778), wk =   0.0438957
        k(   14) = (   0.0555556   0.2776043   0.3888889), wk =   0.0438957
        k(   15) = (   0.0555556   0.2776043  -0.5000000), wk =   0.0219479
        k(   16) = (   0.0555556   0.3886460   0.0555556), wk =   0.0219479
        k(   17) = (   0.0555556   0.3886460   0.1666667), wk =   0.0438957
        k(   18) = (   0.0555556   0.3886460   0.2777778), wk =   0.0438957
        k(   19) = (   0.0555556   0.3886460   0.3888889), wk =   0.0438957
        k(   20) = (   0.0555556   0.3886460  -0.5000000), wk =   0.0219479
        k(   21) = (   0.0555556  -0.4996877   0.0555556), wk =   0.0109739
        k(   22) = (   0.0555556  -0.4996877   0.1666667), wk =   0.0219479
        k(   23) = (   0.0555556  -0.4996877   0.2777778), wk =   0.0219479
        k(   24) = (   0.0555556  -0.4996877   0.3888889), wk =   0.0219479
        k(   25) = (   0.0555556  -0.4996877  -0.5000000), wk =   0.0109739
        k(   26) = (   0.1666667   0.0555209   0.1666667), wk =   0.0219479
        k(   27) = (   0.1666667   0.0555209   0.2777778), wk =   0.0438957
        k(   28) = (   0.1666667   0.0555209   0.3888889), wk =   0.0438957
        k(   29) = (   0.1666667   0.0555209  -0.5000000), wk =   0.0219479
        k(   30) = (   0.1666667   0.1665626   0.1666667), wk =   0.0219479
        k(   31) = (   0.1666667   0.1665626   0.2777778), wk =   0.0438957
        k(   32) = (   0.1666667   0.1665626   0.3888889), wk =   0.0438957
        k(   33) = (   0.1666667   0.1665626  -0.5000000), wk =   0.0219479
        k(   34) = (   0.1666667   0.2776043   0.1666667), wk =   0.0219479
        k(   35) = (   0.1666667   0.2776043   0.2777778), wk =   0.0438957
        k(   36) = (   0.1666667   0.2776043   0.3888889), wk =   0.0438957
        k(   37) = (   0.1666667   0.2776043  -0.5000000), wk =   0.0219479
        k(   38) = (   0.1666667   0.3886460   0.1666667), wk =   0.0219479
        k(   39) = (   0.1666667   0.3886460   0.2777778), wk =   0.0438957
        k(   40) = (   0.1666667   0.3886460   0.3888889), wk =   0.0438957
        k(   41) = (   0.1666667   0.3886460  -0.5000000), wk =   0.0219479
        k(   42) = (   0.1666667  -0.4996877   0.1666667), wk =   0.0109739
        k(   43) = (   0.1666667  -0.4996877   0.2777778), wk =   0.0219479
        k(   44) = (   0.1666667  -0.4996877   0.3888889), wk =   0.0219479
        k(   45) = (   0.1666667  -0.4996877  -0.5000000), wk =   0.0109739
        k(   46) = (   0.2777778   0.0555209   0.2777778), wk =   0.0219479
        k(   47) = (   0.2777778   0.0555209   0.3888889), wk =   0.0438957
        k(   48) = (   0.2777778   0.0555209  -0.5000000), wk =   0.0219479
        k(   49) = (   0.2777778   0.1665626   0.2777778), wk =   0.0219479
        k(   50) = (   0.2777778   0.1665626   0.3888889), wk =   0.0438957
        k(   51) = (   0.2777778   0.1665626  -0.5000000), wk =   0.0219479
        k(   52) = (   0.2777778   0.2776043   0.2777778), wk =   0.0219479
        k(   53) = (   0.2777778   0.2776043   0.3888889), wk =   0.0438957
        k(   54) = (   0.2777778   0.2776043  -0.5000000), wk =   0.0219479
        k(   55) = (   0.2777778   0.3886460   0.2777778), wk =   0.0219479
        k(   56) = (   0.2777778   0.3886460   0.3888889), wk =   0.0438957
        k(   57) = (   0.2777778   0.3886460  -0.5000000), wk =   0.0219479
        k(   58) = (   0.2777778  -0.4996877   0.2777778), wk =   0.0109739
        k(   59) = (   0.2777778  -0.4996877   0.3888889), wk =   0.0219479
        k(   60) = (   0.2777778  -0.4996877  -0.5000000), wk =   0.0109739
        k(   61) = (   0.3888889   0.0555209   0.3888889), wk =   0.0219479
        k(   62) = (   0.3888889   0.0555209  -0.5000000), wk =   0.0219479
        k(   63) = (   0.3888889   0.1665626   0.3888889), wk =   0.0219479
        k(   64) = (   0.3888889   0.1665626  -0.5000000), wk =   0.0219479
        k(   65) = (   0.3888889   0.2776043   0.3888889), wk =   0.0219479
        k(   66) = (   0.3888889   0.2776043  -0.5000000), wk =   0.0219479
        k(   67) = (   0.3888889   0.3886460   0.3888889), wk =   0.0219479
        k(   68) = (   0.3888889   0.3886460  -0.5000000), wk =   0.0219479
        k(   69) = (   0.3888889  -0.4996877   0.3888889), wk =   0.0109739
        k(   70) = (   0.3888889  -0.4996877  -0.5000000), wk =   0.0109739
        k(   71) = (  -0.5000000   0.0555209  -0.5000000), wk =   0.0054870
        k(   72) = (  -0.5000000   0.1665626  -0.5000000), wk =   0.0054870
        k(   73) = (  -0.5000000   0.2776043  -0.5000000), wk =   0.0054870
        k(   74) = (  -0.5000000   0.3886460  -0.5000000), wk =   0.0054870
        k(   75) = (  -0.5000000  -0.4996877  -0.5000000), wk =   0.0027435

     Dense  grid:   169133 G-vectors     FFT dimensions: (  72,  72,  72)

     Smooth grid:    90799 G-vectors     FFT dimensions: (  60,  60,  60)

     Estimated max dynamical RAM per process >      83.28 MB

     Estimated total dynamical RAM >       3.25 GB

     Check: negative/imaginary core charge=   -0.000006    0.000000

     Initial potential from superposition of free atoms

     starting charge  255.99300, renormalised to  256.00000
     Starting wfcs are  160 randomized atomic wfcs
     Checking if some PAW data can be deallocated... 

     total cpu time spent up to now is        7.5 secs

     Self-consistent Calculation

     iteration #  1     ecut=    71.00 Ry     beta= 0.10
     Davidson diagonalization with overlap
     ethr =  1.00E-02,  avg # of iterations =  3.4

     Threshold (ethr) on eigenvalues was too large:
     Diagonalizing with lowered threshold

     Davidson diagonalization with overlap
     ethr =  2.55E-04,  avg # of iterations =  3.0

     total cpu time spent up to now is       61.3 secs

     total energy              =   -5267.75227378 Ry
     Harris-Foulkes estimate   =   -5267.86784925 Ry
     estimated scf accuracy    <       0.73256875 Ry

     iteration #  2     ecut=    71.00 Ry     beta= 0.10
     Davidson diagonalization with overlap
     ethr =  2.86E-04,  avg # of iterations =  1.0

     total cpu time spent up to now is       78.1 secs

     total energy              =   -5267.61742033 Ry
     Harris-Foulkes estimate   =   -5267.76751749 Ry
     estimated scf accuracy    <       0.36313111 Ry

     iteration #  3     ecut=    71.00 Ry     beta= 0.10
     Davidson diagonalization with overlap
     ethr =  1.42E-04,  avg # of iterations =  3.2

     total cpu time spent up to now is      108.6 secs

     total energy              =   -5267.69983971 Ry
     Harris-Foulkes estimate   =   -5267.72125649 Ry
     estimated scf accuracy    <       0.50019961 Ry

     iteration #  4     ecut=    71.00 Ry     beta= 0.10
     Davidson diagonalization with overlap
     ethr =  1.42E-04,  avg # of iterations =  1.0

     total cpu time spent up to now is      124.9 secs

     total energy              =   -5267.70491192 Ry
     Harris-Foulkes estimate   =   -5267.71117263 Ry
     estimated scf accuracy    <       0.02937831 Ry

     iteration #  5     ecut=    71.00 Ry     beta= 0.10
     Davidson diagonalization with overlap
     ethr =  1.15E-05,  avg # of iterations =  2.2

     total cpu time spent up to now is      146.4 secs

     total energy              =   -5267.70522415 Ry
     Harris-Foulkes estimate   =   -5267.70729693 Ry
     estimated scf accuracy    <       0.02271311 Ry

     iteration #  6     ecut=    71.00 Ry     beta= 0.10
     Davidson diagonalization with overlap
     ethr =  8.87E-06,  avg # of iterations =  2.8

     total cpu time spent up to now is      171.6 secs

     total energy              =   -5267.70749478 Ry
     Harris-Foulkes estimate   =   -5267.70752932 Ry
     estimated scf accuracy    <       0.01179907 Ry

     iteration #  7     ecut=    71.00 Ry     beta= 0.10
     Davidson diagonalization with overlap
     ethr =  4.61E-06,  avg # of iterations =  1.1

     total cpu time spent up to now is      191.0 secs

     total energy              =   -5267.70681166 Ry
     Harris-Foulkes estimate   =   -5267.70789669 Ry
     estimated scf accuracy    <       0.01273520 Ry

     iteration #  8     ecut=    71.00 Ry     beta= 0.10
     Davidson diagonalization with overlap
     ethr =  4.61E-06,  avg # of iterations =  1.1

     total cpu time spent up to now is      207.8 secs

     total energy              =   -5267.70730338 Ry
     Harris-Foulkes estimate   =   -5267.70748110 Ry
     estimated scf accuracy    <       0.00382445 Ry

     iteration #  9     ecut=    71.00 Ry     beta= 0.10
     Davidson diagonalization with overlap
     ethr =  1.49E-06,  avg # of iterations =  2.2

     total cpu time spent up to now is      228.3 secs

     total energy              =   -5267.70745702 Ry
     Harris-Foulkes estimate   =   -5267.70747498 Ry
     estimated scf accuracy    <       0.00043731 Ry

     iteration # 10     ecut=    71.00 Ry     beta= 0.10
     Davidson diagonalization with overlap
     ethr =  1.71E-07,  avg # of iterations =  2.6

     total cpu time spent up to now is      250.7 secs

     total energy              =   -5267.70746175 Ry
     Harris-Foulkes estimate   =   -5267.70747811 Ry
     estimated scf accuracy    <       0.00023389 Ry

     iteration # 11     ecut=    71.00 Ry     beta= 0.10
     Davidson diagonalization with overlap
     ethr =  9.14E-08,  avg # of iterations =  1.0

     total cpu time spent up to now is      267.9 secs

     total energy              =   -5267.70744817 Ry
     Harris-Foulkes estimate   =   -5267.70747158 Ry
     estimated scf accuracy    <       0.00016708 Ry

     iteration # 12     ecut=    71.00 Ry     beta= 0.10
     Davidson diagonalization with overlap
     ethr =  6.53E-08,  avg # of iterations =  1.0

     total cpu time spent up to now is      284.3 secs

     total energy              =   -5267.70745230 Ry
     Harris-Foulkes estimate   =   -5267.70745728 Ry
     estimated scf accuracy    <       0.00010343 Ry

     iteration # 13     ecut=    71.00 Ry     beta= 0.10
     Davidson diagonalization with overlap
     ethr =  4.04E-08,  avg # of iterations =  1.7

     total cpu time spent up to now is      302.8 secs

     End of self-consistent calculation

          k = 0.0556 0.0555 0.0556 ( 11288 PWs)   bands (ev):

   -66.7929 -66.6935 -66.6935 -66.6932 -66.6770 -66.6769 -66.6767 -66.6759
   -66.6758 -66.6757 -66.6754 -66.6752 -66.6751 -66.6680 -66.6677 -66.5915
   -33.0899 -33.0897 -33.0896 -33.0868 -33.0867 -33.0865 -32.9215 -32.9211
   -32.9153 -32.8456 -32.8426 -32.8425 -32.8421 -32.8209 -32.8206 -32.8074
   -32.8073 -32.8069 -32.7698 -32.7697 -32.7453 -32.7291 -32.7289 -32.7288
   -32.7176 -32.7175 -32.7174 -32.7040 -32.7038 -32.7037 -32.7009 -32.7007
   -32.7005 -32.6931 -32.6929 -32.6928 -32.6822 -32.6822 -32.6819 -32.5180
   -32.5165 -32.5162 -32.5160 -32.5133 -32.5130 -32.5129 -32.5113 -32.5113
    11.4535  15.3385  15.3423  15.3423  15.4644  15.4646  15.4646  15.4904
    15.4907  15.4907  15.7333  15.7348  15.8514  15.8552  15.8552  17.2286
    17.3179  17.3189  17.3243  17.3296  17.3297  17.3382  17.3435  17.3436
    17.4589  17.4610  17.5067  17.7608  17.7624  17.7624  18.1554  18.1573
    18.1573  18.6409  18.6437  18.6899  18.9684  18.9686  18.9709  19.0728
    19.0729  19.0750  19.1604  19.1605  19.1631  19.2557  19.2558  19.2584
    20.0046  20.0046  20.0063  20.2251  20.2251  20.2284  20.2554  20.2554
    20.2566  20.3943  20.3944  20.3966  20.3967  20.3993  20.4013  20.4281
    20.4329  20.6772  20.6772  20.6824  20.6928  20.6928  20.6948  20.7383
    20.7385  20.7405  20.7409  21.2252  21.2252  21.2290  21.4541  21.4993
    21.5056  21.5057  21.5327  21.5337  21.9609  21.9611  21.9621  21.9796
    21.9879  21.9880

          k = 0.0556 0.0555 0.1667 ( 11325 PWs)   bands (ev):

   -66.7894 -66.7112 -66.6927 -66.6926 -66.6789 -66.6788 -66.6764 -66.6756
   -66.6755 -66.6749 -66.6743 -66.6742 -66.6685 -66.6681 -66.6589 -66.5942
   -33.0818 -33.0816 -33.0805 -33.0778 -33.0728 -33.0727 -32.9250 -32.9153
   -32.9054 -32.8825 -32.8740 -32.8737 -32.8716 -32.8709 -32.8398 -32.8396
   -32.8046 -32.7767 -32.7666 -32.7648 -32.7527 -32.7290 -32.7287 -32.7202
   -32.7101 -32.7079 -32.7076 -32.7071 -32.7061 -32.6981 -32.6979 -32.6937
   -32.6934 -32.6893 -32.6891 -32.6581 -32.6553 -32.6551 -32.6481 -32.5331
   -32.5260 -32.5257 -32.5241 -32.5214 -32.5170 -32.5166 -32.5162 -32.5139
    11.5915  14.7104  15.3954  15.3990  15.4751  15.4752  15.5552  15.5553
    15.5656  15.5903  15.7969  15.7989  15.8952  15.8988  16.1904  17.1198
    17.2301  17.2400  17.3114  17.3238  17.3538  17.3700  17.3748  17.3801
    17.4163  17.4215  17.6482  17.6600  17.7156  17.7169  18.0565  18.0580
    18.5107  18.6164  18.6385  18.7521  18.7523  18.7561  18.8191  18.9327
    18.9367  18.9783  19.2512  19.2514  19.3675  19.3682  19.3960  19.4967
    19.6900  19.6931  19.7597  19.9834  19.9837  19.9871  20.1434  20.2348
    20.2362  20.3339  20.3387  20.3581  20.4164  20.4173  20.4227  20.4425
    20.4593  20.4786  20.4797  20.5045  20.6956  20.7182  20.7185  20.7368
    20.7370  20.9117  21.0212  21.0242  21.1918  21.2793  21.3931  21.5078
    21.5140  21.5256  21.5610  21.5638  21.8642  21.8651  22.0252  22.0332
    22.1249  22.1275

          k = 0.0556 0.0555 0.2778 ( 11326 PWs)   bands (ev):

   -66.7825 -66.7286 -66.6912 -66.6911 -66.6813 -66.6812 -66.6754 -66.6751
   -66.6750 -66.6740 -66.6739 -66.6737 -66.6696 -66.6690 -66.6432 -66.5993
   -33.0633 -33.0632 -33.0625 -33.0604 -33.0488 -33.0486 -32.9259 -32.9246
   -32.9190 -32.9157 -32.9154 -32.9025 -32.8936 -32.8906 -32.8843 -32.8840
   -32.7993 -32.7893 -32.7868 -32.7715 -32.7269 -32.7266 -32.7220 -32.7211
   -32.7164 -32.7119 -32.7116 -32.6963 -32.6960 -32.6936 -32.6934 -32.6737
   -32.6660 -32.6540 -32.6538 -32.6250 -32.6219 -32.6216 -32.6158 -32.5589
   -32.5415 -32.5411 -32.5396 -32.5379 -32.5286 -32.5261 -32.5258 -32.5235
    11.8635  14.0329  15.4832  15.4863  15.5125  15.5128  15.6536  15.6537
    15.7595  15.7813  15.9135  15.9274  15.9466  15.9496  16.3346  16.9577
    16.9981  17.0044  17.1881  17.2373  17.2787  17.2891  17.4874  17.4926
    17.5561  17.5613  17.7070  17.7083  17.9012  17.9229  17.9882  17.9895
    18.4618  18.4660  18.6000  18.6238  18.6280  18.6316  18.6657  18.7120
    18.8448  19.1127  19.1259  19.1288  19.3424  19.3457  19.5101  19.5113
    19.5277  19.5485  19.5491  19.5506  19.5972  19.6758  19.7866  20.2133
    20.2341  20.2387  20.3322  20.3370  20.4544  20.4685  20.5164  20.5388
    20.5400  20.6778  20.6789  20.7011  20.7315  20.7334  20.7444  20.7723
    20.7731  20.7832  20.9817  21.0155  21.1420  21.2161  21.2191  21.4533
    21.5232  21.5289  21.6157  21.6172  21.7366  21.7376  22.1076  22.1151
    22.2577  22.2620

          k = 0.0556 0.0555 0.3889 ( 11337 PWs)   bands (ev):

   -66.7726 -66.7451 -66.6891 -66.6890 -66.6839 -66.6838 -66.6746 -66.6745
   -66.6741 -66.6738 -66.6737 -66.6728 -66.6710 -66.6701 -66.6292 -66.6070
   -33.0366 -33.0355 -33.0353 -33.0351 -33.0154 -33.0152 -32.9659 -32.9635
   -32.9592 -32.9590 -32.9307 -32.9305 -32.9245 -32.9091 -32.8839 -32.8710
   -32.8314 -32.8185 -32.7726 -32.7605 -32.7368 -32.7304 -32.7238 -32.7235
   -32.7159 -32.7157 -32.6948 -32.6946 -32.6937 -32.6934 -32.6768 -32.6310
   -32.6269 -32.6195 -32.6192 -32.5950 -32.5927 -32.5904 -32.5901 -32.5862
   -32.5626 -32.5623 -32.5623 -32.5621 -32.5460 -32.5415 -32.5412 -32.5396
    12.2610  13.3712  15.5573  15.5578  15.5585  15.5598  15.7715  15.7720
    15.9500  15.9521  16.0302  16.0469  16.0628  16.1169  16.3235  16.6590
    16.6834  16.6913  17.1827  17.2000  17.2394  17.2481  17.6575  17.6625
    17.7517  17.7567  17.8271  17.8285  18.0257  18.0257  18.2011  18.2039
    18.2282  18.2492  18.3147  18.3191  18.5946  18.5948  18.5974  18.6279
    18.6428  18.6548  18.7706  18.7735  18.9702  19.0779  19.0818  19.3152
    19.4239  19.7471  19.7490  19.7747  19.7769  19.9953  20.0025  20.1001
    20.1040  20.1149  20.1988  20.2028  20.5055  20.5145  20.5986  20.6239
    20.6266  20.6913  20.7082  20.7245  20.7305  20.7428  20.8201  20.8267
    20.8409  20.8414  20.9672  21.0606  21.0609  21.2488  21.2509  21.3297
    21.5067  21.5075  21.5422  21.5473  21.6184  21.6206  22.2076  22.2143
    22.3226  22.3277

          k = 0.0556 0.0555-0.5000 ( 11338 PWs)   bands (ev):

   -66.7601 -66.7598 -66.6867 -66.6866 -66.6864 -66.6864 -66.6742 -66.6741
   -66.6740 -66.6739 -66.6727 -66.6725 -66.6716 -66.6714 -66.6171 -66.6169
   -33.0036 -33.0034 -33.0033 -33.0031 -32.9999 -32.9999 -32.9997 -32.9996
   -32.9753 -32.9753 -32.9752 -32.9750 -32.9193 -32.9191 -32.8600 -32.8598
   -32.8470 -32.8469 -32.7548 -32.7546 -32.7461 -32.7459 -32.7203 -32.7200
   -32.7199 -32.7197 -32.6943 -32.6941 -32.6940 -32.6938 -32.6325 -32.6323
   -32.5937 -32.5935 -32.5920 -32.5918 -32.5887 -32.5887 -32.5885 -32.5883
   -32.5684 -32.5682 -32.5631 -32.5631 -32.5629 -32.5627 -32.5607 -32.5605
    12.7702  12.7707  15.5818  15.5822  15.5834  15.5836  15.8827  15.8831
    15.8840  15.8842  16.2140  16.2144  16.3520  16.3524  16.3602  16.3606
    16.3625  16.3630  17.2036  17.2038  17.2130  17.2131  17.8737  17.8739
    17.8784  17.8785  17.9713  17.9714  17.9750  17.9752  18.1806  18.1809
    18.1818  18.1821  18.3405  18.3408  18.3427  18.3430  18.6064  18.6065
    18.6228  18.6230  18.6347  18.6349  18.6366  18.6368  19.1278  19.1281
    19.7343  19.7346  19.9356  19.9358  19.9386  19.9386  20.0105  20.0107
    20.0137  20.0137  20.3411  20.3412  20.4669  20.4671  20.5638  20.5641
    20.5692  20.5695  20.7021  20.7023  20.7163  20.7165  20.7312  20.7314
    21.0990  21.0990  21.0995  21.0996  21.1649  21.1652  21.3122  21.3122
    21.3124  21.3124  21.5649  21.5651  21.5689  21.5691  22.2932  22.2934
    22.2991  22.2994

          k = 0.0556 0.1666 0.0556 ( 11319 PWs)   bands (ev):

   -66.7894 -66.7113 -66.6927 -66.6925 -66.6790 -66.6788 -66.6763 -66.6757
   -66.6755 -66.6748 -66.6744 -66.6742 -66.6685 -66.6681 -66.6590 -66.5942
   -33.0817 -33.0817 -33.0805 -33.0777 -33.0728 -33.0727 -32.9254 -32.9150
   -32.9054 -32.8826 -32.8741 -32.8740 -32.8714 -32.8711 -32.8399 -32.8399
   -32.8043 -32.7763 -32.7663 -32.7647 -32.7526 -32.7288 -32.7287 -32.7205
   -32.7102 -32.7076 -32.7075 -32.7072 -32.7062 -32.6980 -32.6979 -32.6934
   -32.6934 -32.6894 -32.6893 -32.6581 -32.6553 -32.6552 -32.6480 -32.5330
   -32.5257 -32.5257 -32.5244 -32.5217 -32.5171 -32.5162 -32.5162 -32.5138
    11.5914  14.7070  15.3988  15.3988  15.4752  15.4752  15.5554  15.5555
    15.5652  15.5898  15.7959  15.7997  15.8987  15.8987  16.1866  17.1190
    17.2300  17.2378  17.3064  17.3187  17.3522  17.3688  17.3800  17.3801
    17.4214  17.4216  17.6503  17.6623  17.7169  17.7169  18.0579  18.0579
    18.5092  18.6170  18.6364  18.7539  18.7552  18.7554  18.8211  18.9355
    18.9356  18.9792  19.2483  19.2484  19.3647  19.3647  19.3988  19.4996
    19.6897  19.6897  19.7617  19.9827  19.9828  19.9872  20.1480  20.2348
    20.2349  20.3346  20.3347  20.3545  20.4191  20.4192  20.4209  20.4470
    20.4625  20.4786  20.4787  20.5053  20.6976  20.7172  20.7175  20.7384
    20.7387  20.9143  21.0210  21.0211  21.1873  21.2798  21.3941  21.5138
    21.5139  21.5249  21.5612  21.5613  21.8640  21.8641  22.0329  22.0330
    22.1250  22.1251

          k = 0.0556 0.1666 0.1667 ( 11325 PWs)   bands (ev):

   -66.7860 -66.7100 -66.7099 -66.6918 -66.6839 -66.6784 -66.6783 -66.6753
   -66.6739 -66.6738 -66.6704 -66.6694 -66.6683 -66.6592 -66.6591 -66.5967
   -33.0797 -33.0730 -33.0728 -33.0649 -33.0648 -33.0532 -32.9323 -32.9113
   -32.9062 -32.9009 -32.9007 -32.8934 -32.8898 -32.8858 -32.8612 -32.8151
   -32.8000 -32.7996 -32.7654 -32.7639 -32.7637 -32.7347 -32.7236 -32.7234
   -32.7175 -32.7148 -32.7146 -32.7037 -32.7035 -32.7010 -32.6978 -32.6891
   -32.6792 -32.6664 -32.6593 -32.6592 -32.6354 -32.6224 -32.6221 -32.5542
   -32.5410 -32.5323 -32.5319 -32.5244 -32.5240 -32.5220 -32.5129 -32.5114
    11.7278  14.7829  14.7860  15.4185  15.4617  15.5775  15.5778  15.6538
    15.6542  15.6656  15.8591  15.8629  15.9512  16.2288  16.2322  17.0203
    17.1327  17.3103  17.3539  17.3587  17.3588  17.3598  17.3911  17.3960
    17.4021  17.4275  17.5265  17.6332  17.6568  17.6737  17.9520  18.3338
    18.3345  18.5559  18.6190  18.6197  18.6210  18.6664  18.8110  18.8564
    19.1573  19.1585  19.2231  19.2247  19.2678  19.3320  19.4333  19.5311
    19.5345  19.5426  19.5461  19.7305  19.7346  19.8822  19.9914  19.9930
    20.2272  20.3432  20.3563  20.3603  20.4120  20.4143  20.4184  20.4402
    20.4413  20.6205  20.6685  20.7022  20.7024  20.7177  20.7184  20.7288
    20.7302  20.8317  20.8336  21.0505  21.1588  21.1611  21.1736  21.1779
    21.2908  21.5447  21.5516  21.6835  21.7555  22.1082  22.4326  22.4341
    22.6208  22.7727

          k = 0.0556 0.1666 0.2778 ( 11351 PWs)   bands (ev):

   -66.7794 -66.7268 -66.7075 -66.6904 -66.6891 -66.6806 -66.6773 -66.6749
   -66.6734 -66.6731 -66.6707 -66.6688 -66.6670 -66.6599 -66.6440 -66.6016
   -33.0672 -33.0558 -33.0555 -33.0496 -33.0423 -33.0238 -32.9398 -32.9384
   -32.9363 -32.9250 -32.9227 -32.9209 -32.8988 -32.8958 -32.8699 -32.8457
   -32.8037 -32.7976 -32.7616 -32.7597 -32.7575 -32.7556 -32.7365 -32.7276
   -32.7274 -32.7200 -32.7137 -32.7021 -32.7003 -32.6874 -32.6813 -32.6634
   -32.6614 -32.6470 -32.6382 -32.6270 -32.6099 -32.5923 -32.5919 -32.5849
   -32.5618 -32.5450 -32.5444 -32.5395 -32.5334 -32.5320 -32.5162 -32.5152
    11.9965  14.1267  14.9162  15.3708  15.5610  15.6168  15.7518  15.7750
    15.8040  15.8429  15.9744  15.9892  16.0185  16.2651  16.3831  16.9027
    16.9845  17.0123  17.2493  17.3213  17.3372  17.3515  17.3987  17.4583
    17.4862  17.5176  17.6172  17.6920  17.7963  17.8563  17.8611  18.2022
    18.3598  18.4601  18.4791  18.4996  18.5367  18.5812  18.6040  18.7951
    18.8367  18.9886  19.0220  19.1765  19.2336  19.3127  19.3329  19.3381
    19.4200  19.5192  19.5407  19.5915  19.6226  19.7547  19.7786  20.1034
    20.2337  20.2629  20.2997  20.3379  20.3667  20.4000  20.4375  20.4813
    20.6453  20.6605  20.6621  20.7240  20.7294  20.7503  20.7525  20.7661
    20.8171  20.9260  20.9446  20.9577  20.9679  20.9957  21.0488  21.1450
    21.2686  21.4805  21.5353  21.6139  21.7510  22.2481  22.2723  22.8336
    22.9266  23.0530

          k = 0.0556 0.1666 0.3889 ( 11327 PWs)   bands (ev):

   -66.7696 -66.7428 -66.7038 -66.6943 -66.6883 -66.6832 -66.6758 -66.6743
   -66.6734 -66.6724 -66.6720 -66.6697 -66.6643 -66.6608 -66.6304 -66.6090
   -33.0451 -33.0310 -33.0297 -33.0274 -33.0118 -32.9858 -32.9789 -32.9687
   -32.9626 -32.9612 -32.9416 -32.9352 -32.9336 -32.8946 -32.8806 -32.8468
   -32.8290 -32.7897 -32.7855 -32.7535 -32.7533 -32.7451 -32.7369 -32.7345
   -32.7267 -32.7254 -32.7099 -32.7013 -32.7008 -32.6744 -32.6646 -32.6508
   -32.6253 -32.6220 -32.6153 -32.6099 -32.5975 -32.5871 -32.5847 -32.5652
   -32.5641 -32.5628 -32.5625 -32.5619 -32.5502 -32.5448 -32.5259 -32.5256
    12.3887  13.4800  15.0728  15.3096  15.6489  15.6624  15.8696  15.9608
    16.0382  16.0497  16.1030  16.1238  16.1723  16.2302  16.3794  16.6913
    16.6935  16.7089  17.2186  17.2618  17.2766  17.3006  17.5694  17.6086
    17.6280  17.6806  17.6850  17.8341  17.9095  18.0464  18.0858  18.1474
    18.2571  18.2677  18.3272  18.3381  18.4616  18.4619  18.5065  18.5425
    18.5546  18.5863  18.6647  18.8014  18.8643  18.8650  19.1458  19.5306
    19.5654  19.7233  19.7247  19.7831  19.7860  19.8035  19.9729  20.0503
    20.0695  20.1311  20.2030  20.2421  20.4100  20.4612  20.4846  20.5645
    20.6004  20.6060  20.6117  20.7213  20.7274  20.7358  20.7372  20.7985
    20.8118  20.8466  20.8805  21.0069  21.0130  21.1037  21.1505  21.2501
    21.2564  21.2620  21.4567  21.6542  21.7331  22.0899  22.4296  22.7635
    23.1031  23.2520

          k = 0.0556 0.1666-0.5000 ( 11324 PWs)   bands (ev):

   -66.7574 -66.7572 -66.6995 -66.6992 -66.6859 -66.6857 -66.6743 -66.6741
   -66.6738 -66.6736 -66.6710 -66.6708 -66.6624 -66.6622 -66.6188 -66.6186
   -33.0150 -33.0149 -33.0001 -32.9999 -32.9995 -32.9993 -32.9971 -32.9971
   -32.9749 -32.9749 -32.9422 -32.9421 -32.9404 -32.9402 -32.8571 -32.8569
   -32.8199 -32.8198 -32.7656 -32.7654 -32.7459 -32.7456 -32.7411 -32.7409
   -32.7305 -32.7303 -32.7009 -32.7006 -32.6689 -32.6687 -32.6645 -32.6644
   -32.6173 -32.6171 -32.5912 -32.5909 -32.5869 -32.5867 -32.5842 -32.5842
   -32.5717 -32.5715 -32.5624 -32.5624 -32.5430 -32.5428 -32.5418 -32.5417
    12.8900  12.8905  15.2118  15.2122  15.6832  15.6834  15.9791  15.9793
    16.1149  16.1153  16.2740  16.2745  16.3746  16.3749  16.4032  16.4035
    16.4082  16.4087  17.2367  17.2368  17.2611  17.2613  17.7699  17.7701
    17.7901  17.7903  17.8203  17.8204  17.8809  17.8812  18.2043  18.2044
    18.2441  18.2444  18.3117  18.3119  18.4291  18.4294  18.4473  18.4474
    18.4478  18.4480  18.4892  18.4895  18.5710  18.5711  19.3272  19.3274
    19.8187  19.8190  19.8439  19.8441  19.9688  19.9688  20.0152  20.0152
    20.0508  20.0509  20.0591  20.0592  20.3975  20.3976  20.5306  20.5309
    20.5435  20.5438  20.6708  20.6711  20.7208  20.7210  20.7595  20.7596
    20.8700  20.8700  20.9722  20.9723  21.0803  21.0805  21.1604  21.1606
    21.3246  21.3248  21.4869  21.4870  21.9004  21.9006  22.6157  22.6159
    23.2392  23.2394

          k = 0.0556 0.2776 0.0556 ( 11335 PWs)   bands (ev):

   -66.7826 -66.7287 -66.6912 -66.6911 -66.6814 -66.6812 -66.6754 -66.6751
   -66.6750 -66.6740 -66.6739 -66.6737 -66.6696 -66.6690 -66.6433 -66.5993
   -33.0634 -33.0633 -33.0625 -33.0606 -33.0488 -33.0487 -32.9262 -32.9247
   -32.9191 -32.9158 -32.9157 -32.9022 -32.8934 -32.8905 -32.8844 -32.8843
   -32.7991 -32.7890 -32.7867 -32.7714 -32.7266 -32.7266 -32.7216 -32.7212
   -32.7167 -32.7117 -32.7116 -32.6961 -32.6961 -32.6935 -32.6935 -32.6740
   -32.6662 -32.6540 -32.6540 -32.6250 -32.6220 -32.6219 -32.6157 -32.5589
   -32.5412 -32.5412 -32.5399 -32.5383 -32.5288 -32.5258 -32.5257 -32.5235
    11.8630  14.0300  15.4859  15.4859  15.5127  15.5127  15.6538  15.6538
    15.7588  15.7805  15.9119  15.9282  15.9492  15.9492  16.3312  16.9558
    16.9974  17.0022  17.1870  17.2359  17.2741  17.2846  17.4923  17.4925
    17.5610  17.5612  17.7082  17.7082  17.9041  17.9258  17.9894  17.9894
    18.4651  18.4653  18.6001  18.6271  18.6273  18.6298  18.6661  18.7134
    18.8473  19.1107  19.1260  19.1261  19.3426  19.3426  19.5077  19.5077
    19.5301  19.5459  19.5459  19.5546  19.6013  19.6786  19.7897  20.2098
    20.2347  20.2348  20.3329  20.3330  20.4583  20.4723  20.5190  20.5388
    20.5389  20.6778  20.6787  20.7030  20.7332  20.7351  20.7448  20.7722
    20.7723  20.7854  20.9790  21.0166  21.1436  21.2170  21.2170  21.4526
    21.5285  21.5286  21.6159  21.6159  21.7364  21.7365  22.1145  22.1145
    22.2588  22.2588

          k = 0.0556 0.2776 0.1667 ( 11345 PWs)   bands (ev):

   -66.7794 -66.7269 -66.7074 -66.6904 -66.6891 -66.6807 -66.6773 -66.6749
   -66.6735 -66.6730 -66.6707 -66.6688 -66.6670 -66.6598 -66.6440 -66.6017
   -33.0673 -33.0558 -33.0556 -33.0496 -33.0424 -33.0239 -32.9399 -32.9385
   -32.9363 -32.9251 -32.9227 -32.9208 -32.8988 -32.8959 -32.8699 -32.8459
   -32.8036 -32.7976 -32.7614 -32.7596 -32.7573 -32.7553 -32.7364 -32.7276
   -32.7273 -32.7199 -32.7138 -32.7019 -32.7002 -32.6876 -32.6812 -32.6636
   -32.6613 -32.6471 -32.6382 -32.6269 -32.6099 -32.5922 -32.5919 -32.5848
   -32.5618 -32.5447 -32.5445 -32.5398 -32.5334 -32.5317 -32.5163 -32.5152
    11.9961  14.1241  14.9188  15.3709  15.5608  15.6168  15.7521  15.7744
    15.8041  15.8422  15.9733  15.9899  16.0182  16.2677  16.3799  16.9018
    16.9833  17.0117  17.2480  17.3169  17.3357  17.3473  17.3996  17.4630
    17.4861  17.5222  17.6172  17.6919  17.7987  17.8564  17.8634  18.2028
    18.3593  18.4619  18.4789  18.4992  18.5377  18.5831  18.6042  18.7952
    18.8358  18.9894  19.0193  19.1734  19.2371  19.3166  19.3332  19.3376
    19.4215  19.5177  19.5387  19.5896  19.6201  19.7565  19.7820  20.1037
    20.2312  20.2591  20.2985  20.3338  20.3667  20.4038  20.4415  20.4833
    20.6453  20.6607  20.6625  20.7247  20.7303  20.7508  20.7539  20.7668
    20.8170  20.9279  20.9450  20.9550  20.9666  20.9951  21.0497  21.1490
    21.2670  21.4803  21.5351  21.6136  21.7509  22.2477  22.2709  22.8312
    22.9350  23.0543

          k = 0.0556 0.2776 0.2778 ( 11336 PWs)   bands (ev):

   -66.7731 -66.7234 -66.7233 -66.6971 -66.6890 -66.6796 -66.6795 -66.6744
   -66.6728 -66.6727 -66.6723 -66.6692 -66.6609 -66.6456 -66.6455 -66.6063
   -33.0609 -33.0408 -33.0406 -33.0305 -33.0303 -32.9897 -32.9557 -32.9554
   -32.9527 -32.9514 -32.9425 -32.9397 -32.9169 -32.8874 -32.8450 -32.8048
   -32.8020 -32.8017 -32.7916 -32.7915 -32.7568 -32.7452 -32.7428 -32.7347
   -32.7345 -32.7212 -32.7210 -32.7124 -32.7121 -32.7067 -32.6676 -32.6395
   -32.6311 -32.6310 -32.6241 -32.6206 -32.6173 -32.5931 -32.5868 -32.5654
   -32.5652 -32.5524 -32.5521 -32.5442 -32.5440 -32.5437 -32.5130 -32.5120
    12.2579  14.2997  14.3019  15.2113  15.6849  15.8159  15.8163  15.9383
    15.9389  15.9649  16.0757  16.1208  16.1212  16.4227  16.4250  16.8402
    16.9009  17.0899  17.0905  17.3082  17.3816  17.4073  17.4113  17.4517
    17.4556  17.5207  17.5406  17.7202  17.7435  17.8426  17.8818  18.2538
    18.2540  18.3628  18.3819  18.3822  18.3954  18.4058  18.4597  18.5701
    18.8139  18.8167  18.8771  18.8802  19.0389  19.0880  19.0889  19.1674
    19.6055  19.6058  19.6640  19.7047  19.7518  19.7542  19.9697  20.0545
    20.0557  20.2248  20.3099  20.3134  20.3382  20.3572  20.3610  20.4203
    20.4573  20.6171  20.6187  20.6261  20.7230  20.7326  20.7676  20.8210
    20.8322  20.8330  20.8845  20.9074  20.9100  21.0180  21.0193  21.1985
    21.1990  21.2386  21.5876  21.7797  21.7912  22.4829  22.9017  22.9030
    23.5056  23.5075

          k = 0.0556 0.2776 0.3889 ( 11332 PWs)   bands (ev):

   -66.7638 -66.7384 -66.7183 -66.7048 -66.6869 -66.6820 -66.6780 -66.6742
   -66.6738 -66.6728 -66.6718 -66.6699 -66.6557 -66.6481 -66.6329 -66.6131
   -33.0449 -33.0196 -33.0191 -33.0136 -33.0047 -32.9902 -32.9725 -32.9664
   -32.9656 -32.9640 -32.9608 -32.9487 -32.9447 -32.8699 -32.8519 -32.8212
   -32.8171 -32.7932 -32.7825 -32.7575 -32.7555 -32.7543 -32.7539 -32.7496
   -32.7486 -32.7416 -32.7253 -32.7120 -32.7104 -32.6841 -32.6621 -32.6557
   -32.6374 -32.6159 -32.6114 -32.6035 -32.6013 -32.5966 -32.5766 -32.5642
   -32.5640 -32.5617 -32.5595 -32.5516 -32.5432 -32.5425 -32.5159 -32.5156
    12.6388  13.6886  14.5313  15.0161  15.8058  15.8597  16.0531  16.0917
    16.1286  16.1843  16.1923  16.2090  16.3068  16.3888  16.4359  16.7073
    16.7093  16.7985  17.2883  17.2932  17.3322  17.3510  17.3812  17.5148
    17.5257  17.5651  17.6521  17.6527  17.9027  17.9934  17.9989  18.0201
    18.1311  18.2283  18.2398  18.2989  18.3129  18.3399  18.4234  18.4480
    18.4649  18.5285  18.5315  18.5433  18.6798  18.7449  19.3661  19.3816
    19.7462  19.7618  19.8161  19.8546  19.8558  19.8637  19.8675  19.9579
    20.0647  20.1202  20.1893  20.2299  20.2506  20.3678  20.3827  20.4093
    20.5105  20.5297  20.5489  20.5535  20.6576  20.7285  20.7445  20.7503
    20.7704  20.8393  20.8495  20.8704  20.8792  20.9545  20.9754  21.0415
    21.3709  21.4315  21.5759  21.7320  22.0459  22.6307  22.7724  23.3276
    23.5778  24.1915

          k = 0.0556 0.2776-0.5000 ( 11346 PWs)   bands (ev):

   -66.7522 -66.7520 -66.7122 -66.7119 -66.6846 -66.6844 -66.6762 -66.6760
   -66.6733 -66.6731 -66.6710 -66.6708 -66.6516 -66.6514 -66.6221 -66.6219
   -33.0210 -33.0209 -32.9939 -32.9938 -32.9937 -32.9935 -32.9930 -32.9929
   -32.9752 -32.9751 -32.9655 -32.9654 -32.9019 -32.9017 -32.8477 -32.8475
   -32.7867 -32.7866 -32.7751 -32.7749 -32.7712 -32.7710 -32.7468 -32.7466
   -32.7389 -32.7388 -32.7118 -32.7116 -32.7081 -32.7080 -32.6489 -32.6488
   -32.6457 -32.6455 -32.5846 -32.5845 -32.5810 -32.5808 -32.5795 -32.5793
   -32.5787 -32.5786 -32.5627 -32.5626 -32.5263 -32.5261 -32.5258 -32.5257
    13.1230  13.1236  14.7823  14.7827  15.8677  15.8680  16.1529  16.1531
    16.2787  16.2791  16.3448  16.3453  16.4086  16.4090  16.4718  16.4722
    16.5346  16.5350  17.3012  17.3013  17.3271  17.3272  17.5908  17.5911
    17.6108  17.6112  17.6210  17.6212  17.8147  17.8147  18.1886  18.1889
    18.2174  18.2176  18.2257  18.2260  18.2554  18.2557  18.2593  18.2593
    18.4190  18.4190  18.4335  18.4337  18.4920  18.4921  19.5819  19.5821
    19.7114  19.7114  19.7786  19.7788  19.9513  19.9515  20.0372  20.0373
    20.0549  20.0550  20.0863  20.0864  20.2278  20.2280  20.4664  20.4667
    20.4791  20.4794  20.6142  20.6144  20.6586  20.6586  20.7419  20.7421
    20.7698  20.7699  20.7905  20.7906  20.8846  20.8848  21.0126  21.0128
    21.5004  21.5006  21.6135  21.6136  22.3379  22.3381  23.0685  23.0687
    24.2731  24.2734

          k = 0.0556 0.3886 0.0556 ( 11343 PWs)   bands (ev):

   -66.7727 -66.7452 -66.6891 -66.6890 -66.6840 -66.6838 -66.6746 -66.6745
   -66.6740 -66.6739 -66.6736 -66.6727 -66.6710 -66.6701 -66.6292 -66.6070
   -33.0366 -33.0355 -33.0354 -33.0352 -33.0154 -33.0154 -32.9660 -32.9636
   -32.9593 -32.9592 -32.9309 -32.9309 -32.9248 -32.9093 -32.8836 -32.8709
   -32.8313 -32.8183 -32.7724 -32.7602 -32.7367 -32.7304 -32.7236 -32.7235
   -32.7157 -32.7156 -32.6946 -32.6946 -32.6935 -32.6934 -32.6764 -32.6313
   -32.6271 -32.6194 -32.6194 -32.5950 -32.5927 -32.5904 -32.5903 -32.5862
   -32.5627 -32.5627 -32.5622 -32.5622 -32.5461 -32.5413 -32.5412 -32.5396
    12.2600  13.3690  15.5582  15.5582  15.5592  15.5592  15.7719  15.7719
    15.9516  15.9517  16.0290  16.0457  16.0607  16.1174  16.3203  16.6588
    16.6815  16.6893  17.1808  17.1980  17.2356  17.2444  17.6621  17.6622
    17.7563  17.7564  17.8282  17.8282  18.0264  18.0264  18.2038  18.2039
    18.2315  18.2525  18.3185  18.3186  18.5947  18.5955  18.5955  18.6268
    18.6440  18.6548  18.7715  18.7715  18.9730  19.0817  19.0857  19.3178
    19.4209  19.7456  19.7456  19.7730  19.7730  19.9979  19.9991  20.1003
    20.1004  20.1178  20.1987  20.1987  20.5087  20.5178  20.6000  20.6250
    20.6278  20.6931  20.7101  20.7263  20.7323  20.7448  20.8222  20.8256
    20.8408  20.8409  20.9672  21.0603  21.0604  21.2499  21.2500  21.3292
    21.5067  21.5068  21.5465  21.5466  21.6192  21.6192  22.2131  22.2132
    22.3251  22.3251

          k = 0.0556 0.3886 0.1667 ( 11327 PWs)   bands (ev):

   -66.7696 -66.7429 -66.7038 -66.6943 -66.6883 -66.6833 -66.6758 -66.6743
   -66.6735 -66.6724 -66.6720 -66.6697 -66.6643 -66.6607 -66.6304 -66.6091
   -33.0452 -33.0310 -33.0298 -33.0275 -33.0118 -32.9859 -32.9791 -32.9688
   -32.9626 -32.9613 -32.9417 -32.9353 -32.9335 -32.8948 -32.8805 -32.8466
   -32.8290 -32.7895 -32.7853 -32.7535 -32.7531 -32.7452 -32.7368 -32.7343
   -32.7267 -32.7252 -32.7096 -32.7011 -32.7007 -32.6744 -32.6646 -32.6510
   -32.6256 -32.6219 -32.6155 -32.6099 -32.5975 -32.5871 -32.5846 -32.5651
   -32.5643 -32.5631 -32.5623 -32.5621 -32.5502 -32.5446 -32.5259 -32.5256
    12.3879  13.4780  15.0746  15.3101  15.6485  15.6623  15.8697  15.9611
    16.0379  16.0487  16.1019  16.1219  16.1730  16.2317  16.3766  16.6912
    16.6920  16.7073  17.2166  17.2599  17.2730  17.2970  17.5704  17.6128
    17.6278  17.6845  17.6850  17.8351  17.9092  18.0461  18.0889  18.1503
    18.2579  18.2694  18.3278  18.3406  18.4610  18.4616  18.5059  18.5408
    18.5560  18.5870  18.6627  18.8022  18.8677  18.8687  19.1471  19.5322
    19.5637  19.7234  19.7248  19.7804  19.7831  19.8021  19.9730  20.0475
    20.0725  20.1277  20.1991  20.2414  20.4110  20.4642  20.4880  20.5659
    20.6017  20.6074  20.6111  20.7223  20.7286  20.7376  20.7383  20.7974
    20.8133  20.8465  20.8824  21.0066  21.0123  21.1071  21.1507  21.2498
    21.2554  21.2614  21.4565  21.6540  21.7325  22.0887  22.4287  22.7614
    23.1100  23.2552

          k = 0.0556 0.3886 0.2778 ( 11338 PWs)   bands (ev):

   -66.7638 -66.7385 -66.7183 -66.7048 -66.6870 -66.6820 -66.6779 -66.6742
   -66.6738 -66.6728 -66.6718 -66.6699 -66.6557 -66.6481 -66.6329 -66.6131
   -33.0450 -33.0196 -33.0191 -33.0136 -33.0048 -32.9903 -32.9726 -32.9664
   -32.9656 -32.9639 -32.9609 -32.9488 -32.9448 -32.8700 -32.8521 -32.8212
   -32.8171 -32.7932 -32.7825 -32.7575 -32.7552 -32.7542 -32.7540 -32.7497
   -32.7485 -32.7415 -32.7253 -32.7119 -32.7104 -32.6842 -32.6620 -32.6557
   -32.6373 -32.6159 -32.6114 -32.6036 -32.6013 -32.5965 -32.5766 -32.5644
   -32.5639 -32.5619 -32.5595 -32.5515 -32.5430 -32.5426 -32.5159 -32.5156
    12.6383  13.6870  14.5329  15.0164  15.8057  15.8598  16.0534  16.0909
    16.1288  16.1843  16.1914  16.2082  16.3069  16.3902  16.4339  16.7064
    16.7084  16.7982  17.2866  17.2939  17.3308  17.3478  17.3781  17.5149
    17.5291  17.5680  17.6520  17.6532  17.9048  17.9935  18.0008  18.0199
    18.1311  18.2289  18.2397  18.2999  18.3127  18.3402  18.4218  18.4487
    18.4628  18.5316  18.5319  18.5460  18.6802  18.7443  19.3666  19.3825
    19.7450  19.7608  19.8172  19.8531  19.8558  19.8631  19.8661  19.9600
    20.0651  20.1185  20.1864  20.2266  20.2497  20.3671  20.3855  20.4124
    20.5114  20.5306  20.5498  20.5545  20.6589  20.7288  20.7434  20.7507
    20.7709  20.8415  20.8494  20.8714  20.8787  20.9543  20.9751  21.0407
    21.3712  21.4310  21.5759  21.7319  22.0456  22.6298  22.7719  23.3262
    23.5787  24.1997

          k = 0.0556 0.3886 0.3889 ( 11327 PWs)   bands (ev):

   -66.7553 -66.7321 -66.7320 -66.7149 -66.6851 -66.6803 -66.6803 -66.6762
   -66.6731 -66.6720 -66.6719 -66.6704 -66.6481 -66.6368 -66.6367 -66.6191
   -33.0352 -33.0047 -33.0045 -32.9959 -32.9957 -32.9931 -32.9929 -32.9784
   -32.9772 -32.9756 -32.9746 -32.9591 -32.9042 -32.8542 -32.8095 -32.8094
   -32.8051 -32.8049 -32.7908 -32.7850 -32.7769 -32.7610 -32.7607 -32.7591
   -32.7449 -32.7249 -32.7246 -32.7187 -32.7180 -32.7179 -32.7078 -32.6477
   -32.6389 -32.6126 -32.6124 -32.5939 -32.5875 -32.5842 -32.5732 -32.5697
   -32.5682 -32.5680 -32.5623 -32.5621 -32.5261 -32.5259 -32.5125 -32.5121
    13.0002  13.9776  13.9787  14.6794  15.9807  16.1250  16.1253  16.2697
    16.2939  16.2945  16.3039  16.3236  16.4328  16.4339  16.5072  16.6234
    16.6809  17.0159  17.0164  17.3323  17.3492  17.4122  17.4334  17.4358
    17.4435  17.4454  17.5310  17.6539  17.7314  17.8448  17.9548  18.0335
    18.0338  18.1275  18.1855  18.2032  18.2166  18.2187  18.2505  18.2520
    18.3864  18.3869  18.3871  18.4739  18.5121  19.0283  19.0288  19.6046
    19.7029  19.7846  19.8464  19.8475  19.9665  19.9668  19.9858  19.9959
    20.1125  20.1132  20.1512  20.2361  20.2732  20.2753  20.2764  20.2915
    20.2937  20.4708  20.4742  20.4868  20.5765  20.6712  20.6723  20.6982
    20.7447  20.7752  20.8081  20.8084  20.8454  20.9014  20.9019  20.9258
    21.5571  21.5575  21.6360  21.7426  22.4221  23.1688  23.2086  23.2092
    23.9394  23.9403

          k = 0.0556 0.3886-0.5000 ( 11346 PWs)   bands (ev):

   -66.7447 -66.7445 -66.7242 -66.7240 -66.6829 -66.6827 -66.6785 -66.6783
   -66.6726 -66.6724 -66.6713 -66.6711 -66.6419 -66.6417 -66.6271 -66.6269
   -33.0176 -33.0175 -32.9890 -32.9889 -32.9888 -32.9887 -32.9885 -32.9883
   -32.9867 -32.9865 -32.9768 -32.9767 -32.8556 -32.8554 -32.8338 -32.8335
   -32.7947 -32.7944 -32.7790 -32.7789 -32.7634 -32.7632 -32.7564 -32.7563
   -32.7517 -32.7516 -32.7368 -32.7367 -32.7233 -32.7231 -32.6821 -32.6820
   -32.6244 -32.6242 -32.5912 -32.5909 -32.5769 -32.5767 -32.5761 -32.5760
   -32.5747 -32.5747 -32.5648 -32.5647 -32.5159 -32.5158 -32.5157 -32.5155
    13.4555  13.4560  14.3206  14.3211  16.0998  16.1001  16.3617  16.3620
    16.3739  16.3744  16.3909  16.3914  16.4087  16.4090  16.5344  16.5346
    16.7494  16.7498  17.3144  17.3148  17.3614  17.3614  17.3632  17.3632
    17.4266  17.4268  17.4836  17.4838  17.8610  17.8610  17.9835  17.9837
    18.0695  18.0698  18.0779  18.0781  18.0902  18.0902  18.1392  18.1394
    18.4038  18.4039  18.4255  18.4256  18.6912  18.6912  19.3512  19.3513
    19.7814  19.7816  19.8533  19.8534  20.0330  20.0332  20.0857  20.0859
    20.1388  20.1390  20.1407  20.1408  20.1441  20.1442  20.3736  20.3738
    20.3805  20.3807  20.4092  20.4092  20.5499  20.5502  20.5997  20.5999
    20.7688  20.7690  20.8200  20.8201  20.8327  20.8329  20.9140  20.9141
    21.6284  21.6286  21.6840  21.6842  22.8187  22.8189  23.5711  23.5713
    23.8010  23.8012

          k = 0.0556-0.4997 0.0556 ( 11330 PWs)   bands (ev):

   -66.7601 -66.7599 -66.6866 -66.6866 -66.6866 -66.6863 -66.6742 -66.6741
   -66.6741 -66.6738 -66.6727 -66.6725 -66.6715 -66.6713 -66.6171 -66.6170
   -33.0037 -33.0034 -33.0034 -33.0031 -33.0000 -32.9999 -32.9999 -32.9999
   -32.9754 -32.9753 -32.9753 -32.9753 -32.9193 -32.9193 -32.8598 -32.8596
   -32.8468 -32.8466 -32.7546 -32.7545 -32.7459 -32.7458 -32.7199 -32.7198
   -32.7197 -32.7197 -32.6940 -32.6940 -32.6939 -32.6938 -32.6322 -32.6321
   -32.5939 -32.5938 -32.5920 -32.5919 -32.5886 -32.5885 -32.5885 -32.5885
   -32.5684 -32.5683 -32.5630 -32.5629 -32.5629 -32.5629 -32.5607 -32.5606
    12.7688  12.7689  15.5829  15.5830  15.5830  15.5830  15.8837  15.8838
    15.8838  15.8838  16.2116  16.2117  16.3506  16.3507  16.3587  16.3589
    16.3629  16.3631  17.2007  17.2008  17.2101  17.2102  17.8779  17.8780
    17.8780  17.8781  17.9746  17.9747  17.9747  17.9748  18.1817  18.1817
    18.1818  18.1819  18.3418  18.3418  18.3419  18.3420  18.6070  18.6070
    18.6266  18.6267  18.6344  18.6344  18.6403  18.6403  19.1306  19.1309
    19.7310  19.7312  19.9350  19.9351  19.9351  19.9352  20.0096  20.0096
    20.0097  20.0098  20.3435  20.3435  20.4696  20.4696  20.5662  20.5664
    20.5715  20.5717  20.7025  20.7026  20.7182  20.7183  20.7332  20.7334
    21.0991  21.0992  21.0992  21.0993  21.1648  21.1649  21.3119  21.3119
    21.3120  21.3121  21.5678  21.5678  21.5678  21.5679  22.2973  22.2973
    22.2974  22.2974

          k = 0.0556-0.4997 0.1667 ( 11326 PWs)   bands (ev):

   -66.7574 -66.7572 -66.6994 -66.6992 -66.6859 -66.6857 -66.6743 -66.6740
   -66.6738 -66.6736 -66.6710 -66.6708 -66.6623 -66.6621 -66.6188 -66.6186
   -33.0151 -33.0151 -33.0001 -32.9998 -32.9996 -32.9993 -32.9973 -32.9972
   -32.9750 -32.9750 -32.9424 -32.9424 -32.9403 -32.9403 -32.8571 -32.8569
   -32.8198 -32.8197 -32.7655 -32.7654 -32.7458 -32.7456 -32.7410 -32.7409
   -32.7303 -32.7301 -32.7007 -32.7005 -32.6689 -32.6687 -32.6643 -32.6642
   -32.6173 -32.6173 -32.5911 -32.5910 -32.5871 -32.5870 -32.5841 -32.5841
   -32.5717 -32.5716 -32.5623 -32.5623 -32.5429 -32.5429 -32.5420 -32.5419
    12.8888  12.8889  15.2129  15.2130  15.6829  15.6829  15.9790  15.9790
    16.1158  16.1159  16.2718  16.2719  16.3733  16.3734  16.4018  16.4019
    16.4086  16.4089  17.2340  17.2341  17.2584  17.2585  17.7732  17.7732
    17.7920  17.7921  17.8199  17.8200  17.8816  17.8818  18.2041  18.2041
    18.2449  18.2450  18.3112  18.3113  18.4301  18.4302  18.4469  18.4469
    18.4514  18.4514  18.4926  18.4927  18.5722  18.5722  19.3288  19.3291
    19.8162  19.8164  19.8435  19.8436  19.9656  19.9657  20.0116  20.0117
    20.0496  20.0497  20.0605  20.0605  20.3999  20.4000  20.5329  20.5331
    20.5462  20.5464  20.6712  20.6713  20.7220  20.7222  20.7608  20.7609
    20.8706  20.8707  20.9719  20.9720  21.0818  21.0819  21.1599  21.1599
    21.3246  21.3247  21.4866  21.4866  21.8995  21.8996  22.6143  22.6143
    23.2444  23.2445

          k = 0.0556-0.4997 0.2778 ( 11344 PWs)   bands (ev):

   -66.7522 -66.7520 -66.7121 -66.7119 -66.6847 -66.6845 -66.6762 -66.6760
   -66.6733 -66.6731 -66.6709 -66.6707 -66.6515 -66.6514 -66.6221 -66.6219
   -33.0211 -33.0210 -32.9939 -32.9938 -32.9937 -32.9936 -32.9932 -32.9931
   -32.9752 -32.9751 -32.9653 -32.9653 -32.9019 -32.9019 -32.8477 -32.8475
   -32.7864 -32.7864 -32.7750 -32.7749 -32.7711 -32.7709 -32.7467 -32.7466
   -32.7388 -32.7387 -32.7117 -32.7116 -32.7079 -32.7079 -32.6489 -32.6489
   -32.6457 -32.6455 -32.5848 -32.5847 -32.5811 -32.5811 -32.5795 -32.5793
   -32.5786 -32.5786 -32.5625 -32.5625 -32.5262 -32.5261 -32.5258 -32.5257
    13.1222  13.1223  14.7834  14.7834  15.8677  15.8677  16.1530  16.1531
    16.2795  16.2795  16.3435  16.3437  16.4077  16.4078  16.4708  16.4709
    16.5348  16.5350  17.2988  17.2989  17.3250  17.3251  17.5919  17.5920
    17.6115  17.6116  17.6231  17.6232  17.8144  17.8146  18.1916  18.1916
    18.2170  18.2171  18.2262  18.2263  18.2581  18.2582  18.2591  18.2592
    18.4187  18.4187  18.4340  18.4341  18.4927  18.4927  19.5828  19.5830
    19.7122  19.7123  19.7782  19.7783  19.9497  19.9498  20.0349  20.0350
    20.0523  20.0524  20.0854  20.0855  20.2295  20.2295  20.4683  20.4685
    20.4812  20.4814  20.6144  20.6145  20.6589  20.6590  20.7423  20.7424
    20.7710  20.7711  20.7912  20.7913  20.8845  20.8846  21.0122  21.0122
    21.5007  21.5008  21.6133  21.6133  22.3373  22.3373  23.0675  23.0676
    24.2738  24.2738

          k = 0.0556-0.4997 0.3889 ( 11346 PWs)   bands (ev):

   -66.7447 -66.7445 -66.7242 -66.7240 -66.6829 -66.6827 -66.6784 -66.6782
   -66.6726 -66.6724 -66.6712 -66.6711 -66.6419 -66.6417 -66.6271 -66.6269
   -33.0176 -33.0176 -32.9890 -32.9890 -32.9889 -32.9887 -32.9884 -32.9884
   -32.9867 -32.9865 -32.9768 -32.9767 -32.8556 -32.8555 -32.8338 -32.8335
   -32.7946 -32.7944 -32.7790 -32.7790 -32.7633 -32.7632 -32.7563 -32.7563
   -32.7516 -32.7515 -32.7367 -32.7367 -32.7232 -32.7232 -32.6821 -32.6821
   -32.6244 -32.6242 -32.5911 -32.5910 -32.5769 -32.5768 -32.5762 -32.5761
   -32.5747 -32.5746 -32.5647 -32.5647 -32.5159 -32.5158 -32.5157 -32.5155
    13.4552  13.4553  14.3213  14.3214  16.1000  16.1001  16.3621  16.3621
    16.3745  16.3746  16.3905  16.3907  16.4083  16.4084  16.5338  16.5339
    16.7493  16.7495  17.3148  17.3149  17.3603  17.3604  17.3617  17.3618
    17.4271  17.4272  17.4847  17.4848  17.8609  17.8610  17.9851  17.9851
    18.0708  18.0708  18.0774  18.0775  18.0902  18.0903  18.1393  18.1394
    18.4039  18.4040  18.4258  18.4258  18.6910  18.6910  19.3515  19.3516
    19.7810  19.7812  19.8537  19.8538  20.0337  20.0338  20.0851  20.0852
    20.1386  20.1386  20.1395  20.1396  20.1428  20.1430  20.3746  20.3748
    20.3817  20.3819  20.4089  20.4090  20.5499  20.5501  20.6006  20.6006
    20.7690  20.7691  20.8203  20.8203  20.8327  20.8328  20.9138  20.9139
    21.6286  21.6286  21.6839  21.6840  22.8184  22.8185  23.5707  23.5708
    23.8014  23.8014

          k = 0.0556-0.4997-0.5000 ( 11360 PWs)   bands (ev):

   -66.7353 -66.7351 -66.7351 -66.7349 -66.6808 -66.6806 -66.6806 -66.6804
   -66.6720 -66.6718 -66.6717 -66.6715 -66.6339 -66.6337 -66.6337 -66.6335
   -33.0066 -33.0065 -33.0064 -33.0062 -32.9872 -32.9871 -32.9870 -32.9869
   -32.9807 -32.9806 -32.9805 -32.9803 -32.8161 -32.8160 -32.8159 -32.8156
   -32.8065 -32.8064 -32.8064 -32.8062 -32.7752 -32.7751 -32.7750 -32.7748
   -32.7320 -32.7319 -32.7318 -32.7316 -32.7170 -32.7168 -32.7167 -32.7167
   -32.6064 -32.6062 -32.6061 -32.6060 -32.5738 -32.5736 -32.5735 -32.5735
   -32.5697 -32.5696 -32.5695 -32.5695 -32.5125 -32.5123 -32.5122 -32.5121
    13.8651  13.8653  13.8657  13.8658  16.3074  16.3074  16.3077  16.3077
    16.4061  16.4062  16.4064  16.4068  16.5154  16.5154  16.5156  16.5157
    17.0188  17.0189  17.0191  17.0193  17.3543  17.3545  17.3546  17.3547
    17.4020  17.4022  17.4022  17.4023  17.9545  17.9547  17.9548  17.9549
    17.9623  17.9624  17.9624  17.9626  18.0503  18.0504  18.0505  18.0507
    18.3940  18.3941  18.3941  18.3941  19.0055  19.0055  19.0055  19.0056
    19.8704  19.8706  19.8707  19.8707  20.1260  20.1261  20.1261  20.1262
    20.1665  20.1665  20.1667  20.1668  20.2599  20.2601  20.2601  20.2602
    20.2617  20.2619  20.2619  20.2621  20.5272  20.5273  20.5274  20.5275
    20.7979  20.7979  20.7980  20.7982  20.8557  20.8558  20.8559  20.8560
    21.6902  21.6904  21.6905  21.6906  23.3126  23.3127  23.3127  23.3129
    24.0816  24.0817

          k = 0.1667 0.0555 0.1667 ( 11333 PWs)   bands (ev):

   -66.7860 -66.7100 -66.7098 -66.6919 -66.6838 -66.6784 -66.6782 -66.6753
   -66.6740 -66.6738 -66.6703 -66.6694 -66.6683 -66.6592 -66.6591 -66.5967
   -33.0797 -33.0730 -33.0730 -33.0649 -33.0648 -33.0532 -32.9320 -32.9117
   -32.9062 -32.9009 -32.9007 -32.8931 -32.8897 -32.8857 -32.8610 -32.8153
   -32.8000 -32.7998 -32.7655 -32.7641 -32.7641 -32.7346 -32.7236 -32.7234
   -32.7176 -32.7147 -32.7146 -32.7036 -32.7035 -32.7008 -32.6979 -32.6893
   -32.6791 -32.6662 -32.6594 -32.6593 -32.6352 -32.6224 -32.6222 -32.5544
   -32.5413 -32.5320 -32.5320 -32.5241 -32.5240 -32.5220 -32.5133 -32.5114
    11.7280  14.7861  14.7861  15.4186  15.4585  15.5778  15.5778  15.6541
    15.6541  15.6654  15.8583  15.8639  15.9479  16.2323  16.2323  17.0211
    17.1339  17.3111  17.3588  17.3589  17.3597  17.3598  17.3960  17.3961
    17.3969  17.4290  17.5213  17.6314  17.6558  17.6716  17.9510  18.3349
    18.3350  18.5536  18.6161  18.6162  18.6245  18.6684  18.8130  18.8547
    19.1547  19.1547  19.2257  19.2259  19.2707  19.3331  19.4354  19.5311
    19.5311  19.5448  19.5449  19.7308  19.7308  19.8869  19.9911  19.9912
    20.2315  20.3468  20.3558  20.3559  20.4128  20.4138  20.4139  20.4369
    20.4458  20.6209  20.6701  20.7037  20.7039  20.7177  20.7178  20.7267
    20.7280  20.8311  20.8312  21.0500  21.1583  21.1583  21.1779  21.1780
    21.2898  21.5391  21.5523  21.6841  21.7569  22.1009  22.4326  22.4327
    22.6254  22.7828

          k = 0.1667 0.0555 0.2778 ( 11349 PWs)   bands (ev):

   -66.7794 -66.7268 -66.7074 -66.6905 -66.6891 -66.6807 -66.6773 -66.6749
   -66.6735 -66.6731 -66.6707 -66.6688 -66.6670 -66.6598 -66.6440 -66.6016
   -33.0672 -33.0559 -33.0555 -33.0496 -33.0423 -33.0239 -32.9398 -32.9382
   -32.9362 -32.9248 -32.9227 -32.9208 -32.8992 -32.8956 -32.8698 -32.8459
   -32.8038 -32.7979 -32.7617 -32.7599 -32.7574 -32.7556 -32.7364 -32.7277
   -32.7274 -32.7199 -32.7137 -32.7019 -32.7002 -32.6875 -32.6814 -32.6633
   -32.6614 -32.6469 -32.6380 -32.6270 -32.6097 -32.5923 -32.5920 -32.5849
   -32.5621 -32.5446 -32.5444 -32.5395 -32.5333 -32.5317 -32.5165 -32.5153
    11.9966  14.1269  14.9192  15.3713  15.5582  15.6167  15.7520  15.7750
    15.8039  15.8428  15.9735  15.9904  16.0158  16.2680  16.3832  16.9034
    16.9855  17.0124  17.2491  17.3214  17.3374  17.3517  17.3998  17.4631
    17.4812  17.5224  17.6165  17.6870  17.7957  17.8558  17.8604  18.2027
    18.3567  18.4627  18.4780  18.4969  18.5365  18.5839  18.6074  18.7977
    18.8326  18.9874  19.0190  19.1732  19.2336  19.3128  19.3367  19.3399
    19.4180  19.5210  19.5405  19.5920  19.6228  19.7544  19.7803  20.1073
    20.2351  20.2590  20.2983  20.3339  20.3712  20.4002  20.4379  20.4803
    20.6450  20.6615  20.6632  20.7223  20.7276  20.7497  20.7513  20.7681
    20.8164  20.9251  20.9447  20.9577  20.9650  20.9953  21.0483  21.1491
    21.2659  21.4808  21.5358  21.6092  21.7518  22.2418  22.2709  22.8305
    22.9358  23.0588

          k = 0.1667 0.0555 0.3889 ( 11328 PWs)   bands (ev):

   -66.7696 -66.7428 -66.7038 -66.6943 -66.6884 -66.6833 -66.6758 -66.6743
   -66.6735 -66.6724 -66.6720 -66.6697 -66.6642 -66.6607 -66.6303 -66.6090
   -33.0451 -33.0310 -33.0297 -33.0274 -33.0117 -32.9859 -32.9789 -32.9687
   -32.9625 -32.9610 -32.9414 -32.9351 -32.9335 -32.8947 -32.8810 -32.8466
   -32.8293 -32.7895 -32.7855 -32.7538 -32.7533 -32.7451 -32.7371 -32.7344
   -32.7267 -32.7252 -32.7099 -32.7012 -32.7007 -32.6745 -32.6647 -32.6510
   -32.6253 -32.6221 -32.6152 -32.6097 -32.5975 -32.5873 -32.5845 -32.5653
   -32.5644 -32.5628 -32.5622 -32.5619 -32.5502 -32.5445 -32.5261 -32.5258
    12.3888  13.4801  15.0752  15.3107  15.6468  15.6619  15.8694  15.9611
    16.0364  16.0497  16.1030  16.1233  16.1731  16.2320  16.3794  16.6916
    16.6939  16.7094  17.2185  17.2619  17.2767  17.3007  17.5710  17.6131
    17.6231  17.6845  17.6850  17.8347  17.9047  18.0425  18.0856  18.1471
    18.2584  18.2694  18.3296  18.3407  18.4585  18.4587  18.5021  18.5400
    18.5576  18.5897  18.6620  18.8044  18.8642  18.8649  19.1448  19.5299
    19.5666  19.7218  19.7262  19.7822  19.7847  19.8059  19.9763  20.0511
    20.0705  20.1280  20.1998  20.2459  20.4092  20.4616  20.4853  20.5642
    20.6013  20.6069  20.6109  20.7197  20.7260  20.7357  20.7359  20.7985
    20.8106  20.8449  20.8831  21.0054  21.0099  21.1073  21.1507  21.2501
    21.2540  21.2619  21.4571  21.6548  21.7296  22.0884  22.4243  22.7597
    23.1116  23.2588

          k = 0.1667 0.0555-0.5000 ( 11322 PWs)   bands (ev):

   -66.7574 -66.7572 -66.6994 -66.6992 -66.6860 -66.6858 -66.6743 -66.6741
   -66.6738 -66.6736 -66.6710 -66.6708 -66.6623 -66.6621 -66.6188 -66.6186
   -33.0150 -33.0149 -33.0000 -32.9998 -32.9995 -32.9993 -32.9971 -32.9970
   -32.9749 -32.9748 -32.9423 -32.9422 -32.9402 -32.9401 -32.8575 -32.8572
   -32.8197 -32.8196 -32.7656 -32.7655 -32.7461 -32.7458 -32.7411 -32.7410
   -32.7304 -32.7302 -32.7007 -32.7006 -32.6692 -32.6689 -32.6645 -32.6644
   -32.6174 -32.6174 -32.5910 -32.5907 -32.5869 -32.5867 -32.5840 -32.5839
   -32.5718 -32.5715 -32.5622 -32.5621 -32.5430 -32.5429 -32.5420 -32.5419
    12.8901  12.8907  15.2136  15.2139  15.6819  15.6822  15.9781  15.9784
    16.1159  16.1161  16.2739  16.2743  16.3748  16.3751  16.4033  16.4037
    16.4086  16.4091  17.2368  17.2369  17.2612  17.2614  17.7735  17.7736
    17.7924  17.7926  17.8155  17.8156  17.8825  17.8829  18.2000  18.2001
    18.2439  18.2441  18.3102  18.3105  18.4313  18.4315  18.4441  18.4442
    18.4477  18.4479  18.4891  18.4893  18.5742  18.5744  19.3265  19.3267
    19.8195  19.8198  19.8465  19.8466  19.9666  19.9667  20.0128  20.0130
    20.0540  20.0541  20.0580  20.0580  20.3980  20.3981  20.5313  20.5316
    20.5444  20.5447  20.6707  20.6710  20.7194  20.7196  20.7581  20.7583
    20.8708  20.8709  20.9695  20.9696  21.0823  21.0825  21.1584  21.1584
    21.3249  21.3251  21.4872  21.4873  21.8982  21.8983  22.6113  22.6115
    23.2469  23.2472

          k = 0.1667 0.1666 0.1667 ( 11332 PWs)   bands (ev):

   -66.7827 -66.7088 -66.7087 -66.7085 -66.6833 -66.6832 -66.6830 -66.6711
   -66.6702 -66.6701 -66.6700 -66.6676 -66.6595 -66.6595 -66.6593 -66.5991
   -33.0710 -33.0708 -33.0707 -33.0469 -33.0468 -33.0467 -32.9270 -32.9255
   -32.9252 -32.9181 -32.9180 -32.9176 -32.8701 -32.8645 -32.8642 -32.8230
   -32.8229 -32.8226 -32.7712 -32.7711 -32.7710 -32.7266 -32.7264 -32.7262
   -32.7170 -32.7167 -32.6988 -32.6986 -32.6985 -32.6938 -32.6936 -32.6935
   -32.6621 -32.6619 -32.6619 -32.6536 -32.6062 -32.6061 -32.6058 -32.5756
   -32.5452 -32.5448 -32.5448 -32.5214 -32.5211 -32.5210 -32.5173 -32.5172
    11.8628  14.8626  14.8656  14.8656  15.5255  15.5256  15.5256  15.7611
    15.7615  15.7615  15.9229  15.9244  16.2824  16.2856  16.2856  16.9389
    17.2412  17.2413  17.3338  17.3346  17.3346  17.3765  17.3813  17.3815
    17.4864  17.4912  17.4913  17.5171  17.5950  17.5978  18.1825  18.1831
    18.1831  18.5387  18.5389  18.5408  18.5411  18.5439  18.9710  18.9713
    18.9713  18.9732  19.1606  19.1606  19.1636  19.3398  19.3400  19.3400
    19.5597  19.5597  19.5639  19.6205  19.6206  19.6232  20.1912  20.1912
    20.1924  20.2635  20.2636  20.2675  20.3767  20.3810  20.4155  20.4156
    20.4199  20.6716  20.6716  20.6732  20.7020  20.7039  20.7045  20.7067
    20.7738  20.8243  20.8243  20.8246  21.1708  21.1748  21.1750  21.3867
    21.3868  21.3889  21.4131  21.4144  22.1342  22.1343  22.1351  22.8885
    22.8975  22.8976

          k = 0.1667 0.1666 0.2778 ( 11350 PWs)   bands (ev):

   -66.7762 -66.7251 -66.7062 -66.7061 -66.6884 -66.6883 -66.6819 -66.6732
   -66.6695 -66.6675 -66.6668 -66.6668 -66.6600 -66.6599 -66.6448 -66.6039
   -33.0587 -33.0586 -33.0531 -33.0345 -33.0196 -33.0194 -32.9490 -32.9461
   -32.9459 -32.9370 -32.9353 -32.9122 -32.9119 -32.8594 -32.8591 -32.8469
   -32.8412 -32.8067 -32.7796 -32.7725 -32.7723 -32.7426 -32.7384 -32.7380
   -32.7312 -32.7250 -32.7016 -32.6855 -32.6852 -32.6709 -32.6681 -32.6679
   -32.6650 -32.6648 -32.6281 -32.6279 -32.6074 -32.5839 -32.5836 -32.5792
   -32.5624 -32.5620 -32.5525 -32.5375 -32.5293 -32.5242 -32.5238 -32.5181
    12.1285  14.2231  15.0040  15.0067  15.4817  15.4821  15.7322  15.8983
    15.8986  15.9439  16.0424  16.0437  16.3399  16.3425  16.4453  16.8583
    17.0129  17.0797  17.2146  17.3438  17.3453  17.3460  17.4310  17.4508
    17.4563  17.4611  17.6224  17.6331  17.6377  17.8144  18.0389  18.0389
    18.3276  18.3569  18.3591  18.4430  18.4625  18.5197  18.7116  18.7141
    18.7252  18.7279  18.9545  19.0964  19.1000  19.1128  19.1253  19.1691
    19.4636  19.5654  19.5665  19.7118  19.7131  19.8732  19.9581  20.1527
    20.1560  20.2624  20.3296  20.3575  20.3613  20.4349  20.4411  20.4425
    20.4632  20.4636  20.6573  20.6589  20.6770  20.7008  20.7154  20.7175
    20.7198  20.9385  20.9922  20.9930  21.0211  21.0915  21.1659  21.1748
    21.1782  21.4603  21.4688  21.4707  21.8707  21.8712  22.7619  23.0890
    23.0972  23.5290

          k = 0.1667 0.1666 0.3889 ( 11353 PWs)   bands (ev):

   -66.7667 -66.7406 -66.7027 -66.7026 -66.6935 -66.6934 -66.6801 -66.6755
   -66.6689 -66.6677 -66.6644 -66.6643 -66.6610 -66.6609 -66.6315 -66.6110
   -33.0382 -33.0380 -33.0275 -33.0169 -32.9847 -32.9845 -32.9786 -32.9784
   -32.9725 -32.9556 -32.9448 -32.9446 -32.9018 -32.9016 -32.8931 -32.8393
   -32.8214 -32.8156 -32.7683 -32.7680 -32.7646 -32.7625 -32.7502 -32.7499
   -32.7342 -32.7256 -32.7111 -32.6783 -32.6781 -32.6683 -32.6681 -32.6456
   -32.6376 -32.6374 -32.6290 -32.6033 -32.5971 -32.5839 -32.5836 -32.5650
   -32.5625 -32.5622 -32.5615 -32.5562 -32.5470 -32.5317 -32.5313 -32.5250
    12.5160  13.5900  15.1709  15.1731  15.4213  15.4222  16.0221  16.0554
    16.0555  16.1918  16.1957  16.2175  16.3211  16.3227  16.4492  16.7114
    16.7116  16.7406  17.2217  17.2977  17.3359  17.3639  17.4838  17.4847
    17.5876  17.5921  17.7991  17.8032  17.9017  17.9177  17.9197  18.0782
    18.2319  18.2323  18.3110  18.3131  18.3887  18.4047  18.4057  18.4364
    18.4392  18.4889  18.6369  18.6397  18.6640  18.6782  19.3043  19.4258
    19.6646  19.7253  19.8112  19.8114  19.8169  19.8186  20.0350  20.0377
    20.0857  20.0943  20.1763  20.2342  20.2372  20.4138  20.4802  20.5330
    20.5879  20.6011  20.6840  20.6970  20.7008  20.7021  20.7420  20.7737
    20.7872  20.7901  20.8508  20.9039  21.1736  21.1748  21.1982  21.2206
    21.2225  21.4318  21.4393  21.4412  21.6142  21.6144  23.3234  23.3308
    23.4546  23.6235

          k = 0.1667 0.1666-0.5000 ( 11340 PWs)   bands (ev):

   -66.7548 -66.7546 -66.6985 -66.6984 -66.6982 -66.6981 -66.6779 -66.6777
   -66.6683 -66.6681 -66.6625 -66.6624 -66.6622 -66.6621 -66.6203 -66.6201
   -33.0106 -33.0105 -33.0104 -33.0103 -32.9958 -32.9956 -32.9947 -32.9945
   -32.9476 -32.9475 -32.9446 -32.9445 -32.9444 -32.9443 -32.8686 -32.8684
   -32.7928 -32.7927 -32.7900 -32.7898 -32.7604 -32.7602 -32.7601 -32.7599
   -32.7201 -32.7199 -32.6889 -32.6888 -32.6728 -32.6725 -32.6724 -32.6723
   -32.6091 -32.6090 -32.6088 -32.6087 -32.5922 -32.5919 -32.5822 -32.5820
   -32.5700 -32.5698 -32.5445 -32.5445 -32.5443 -32.5442 -32.5379 -32.5378
    13.0101  13.0106  15.3191  15.3195  15.3207  15.3211  16.2099  16.2103
    16.2106  16.2109  16.3469  16.3472  16.3701  16.3705  16.4426  16.4431
    16.4683  16.4686  17.2534  17.2535  17.3179  17.3181  17.7428  17.7430
    17.7431  17.7434  17.7550  17.7551  17.7588  17.7590  18.2074  18.2075
    18.2093  18.2094  18.2544  18.2546  18.3243  18.3245  18.3262  18.3263
    18.3738  18.3741  18.3777  18.3778  18.4524  18.4525  19.5051  19.5053
    19.7381  19.7382  19.8876  19.8878  19.9191  19.9193  19.9208  19.9209
    20.0483  20.0485  20.0509  20.0510  20.5032  20.5035  20.5102  20.5103
    20.5386  20.5389  20.6430  20.6432  20.6911  20.6913  20.7975  20.7977
    20.8052  20.8053  20.8082  20.8083  21.3321  21.3321  21.3337  21.3338
    21.3398  21.3400  21.3754  21.3755  21.3758  21.3760  23.5276  23.5278
    23.5342  23.5344

          k = 0.1667 0.2776 0.1667 ( 11350 PWs)   bands (ev):

   -66.7762 -66.7251 -66.7063 -66.7061 -66.6885 -66.6883 -66.6818 -66.6732
   -66.6695 -66.6675 -66.6669 -66.6667 -66.6600 -66.6598 -66.6448 -66.6039
   -33.0588 -33.0587 -33.0531 -33.0343 -33.0195 -33.0195 -32.9491 -32.9462
   -32.9460 -32.9372 -32.9352 -32.9121 -32.9119 -32.8594 -32.8594 -32.8469
   -32.8411 -32.8066 -32.7796 -32.7724 -32.7723 -32.7427 -32.7381 -32.7380
   -32.7310 -32.7249 -32.7016 -32.6853 -32.6852 -32.6712 -32.6681 -32.6681
   -32.6649 -32.6648 -32.6281 -32.6280 -32.6073 -32.5839 -32.5838 -32.5791
   -32.5621 -32.5621 -32.5528 -32.5377 -32.5293 -32.5239 -32.5238 -32.5180
    12.1282  14.2205  15.0064  15.0064  15.4818  15.4818  15.7319  15.8987
    15.8987  15.9432  16.0420  16.0436  16.3423  16.3423  16.4423  16.8574
    17.0125  17.0777  17.2136  17.3395  17.3458  17.3459  17.4269  17.4488
    17.4609  17.4610  17.6251  17.6375  17.6376  17.8170  18.0395  18.0395
    18.3273  18.3578  18.3580  18.4449  18.4642  18.5179  18.7133  18.7134
    18.7253  18.7254  18.9576  19.0966  19.0967  19.1167  19.1261  19.1710
    19.4623  19.5647  19.5647  19.7105  19.7105  19.8761  19.9595  20.1527
    20.1528  20.2594  20.3329  20.3569  20.3570  20.4388  20.4417  20.4451
    20.4633  20.4633  20.6567  20.6584  20.6787  20.7022  20.7171  20.7190
    20.7190  20.9358  20.9928  20.9929  21.0208  21.0938  21.1674  21.1781
    21.1782  21.4593  21.4691  21.4692  21.8704  21.8705  22.7630  23.0966
    23.0967  23.5275

          k = 0.1667 0.2776 0.2778 ( 11348 PWs)   bands (ev):

   -66.7700 -66.7217 -66.7216 -66.7038 -66.6960 -66.6868 -66.6867 -66.6759
   -66.6667 -66.6665 -66.6664 -66.6610 -66.6604 -66.6463 -66.6462 -66.6084
   -33.0522 -33.0422 -33.0420 -33.0115 -33.0113 -32.9879 -32.9616 -32.9596
   -32.9593 -32.9590 -32.9445 -32.9216 -32.9088 -32.8839 -32.8525 -32.8204
   -32.8176 -32.8173 -32.8072 -32.8071 -32.7833 -32.7578 -32.7575 -32.7564
   -32.7098 -32.6993 -32.6991 -32.6917 -32.6915 -32.6701 -32.6693 -32.6541
   -32.6436 -32.6413 -32.6316 -32.6314 -32.6092 -32.5834 -32.5719 -32.5644
   -32.5642 -32.5611 -32.5608 -32.5390 -32.5387 -32.5369 -32.5206 -32.5182
    12.3877  14.4008  14.4029  15.1636  15.3276  15.6957  15.6958  16.0581
    16.0766  16.0772  16.1454  16.1724  16.4474  16.5086  16.5110  16.8288
    17.0144  17.0664  17.0667  17.2732  17.2936  17.4121  17.4162  17.4929
    17.5023  17.5156  17.5423  17.5459  17.7938  17.8027  17.8827  18.1511
    18.1518  18.2508  18.2975  18.2991  18.3599  18.3726  18.4604  18.5267
    18.5872  18.5897  18.7367  18.7400  18.8081  18.8719  18.8728  19.3135
    19.6677  19.6682  19.7027  19.8282  19.9015  19.9041  20.0446  20.0854
    20.2400  20.2428  20.2460  20.2468  20.2640  20.3395  20.3773  20.3812
    20.4170  20.6252  20.6277  20.6289  20.6566  20.6879  20.6966  20.6972
    20.7138  20.9013  20.9035  21.0155  21.0442  21.1618  21.1624  21.1807
    21.1824  21.2733  21.4504  21.5500  21.5546  22.4195  22.4202  23.3690
    24.1397  24.1493

          k = 0.1667 0.2776 0.3889 ( 11346 PWs)   bands (ev):

   -66.7610 -66.7363 -66.7168 -66.7037 -66.7004 -66.6916 -66.6845 -66.6789
   -66.6664 -66.6661 -66.6642 -66.6612 -66.6560 -66.6486 -66.6340 -66.6149
   -33.0369 -33.0243 -33.0182 -33.0002 -32.9873 -32.9821 -32.9793 -32.9744
   -32.9647 -32.9555 -32.9536 -32.9498 -32.9150 -32.8920 -32.8614 -32.8394
   -32.8354 -32.8005 -32.7919 -32.7863 -32.7829 -32.7738 -32.7723 -32.7714
   -32.7306 -32.7081 -32.6988 -32.6837 -32.6817 -32.6734 -32.6670 -32.6571
   -32.6375 -32.6208 -32.6194 -32.6083 -32.6012 -32.5924 -32.5794 -32.5695
   -32.5603 -32.5599 -32.5531 -32.5439 -32.5429 -32.5423 -32.5232 -32.5208
    12.7648  13.8007  14.6389  15.1338  15.3529  15.6363  15.9964  16.2228
    16.2325  16.2851  16.3158  16.3482  16.4793  16.4864  16.5273  16.7287
    16.7544  16.7997  17.2552  17.2766  17.3551  17.3613  17.4022  17.4463
    17.5253  17.6221  17.6411  17.6856  17.7657  17.9112  17.9493  17.9587
    18.0709  18.1325  18.1924  18.2294  18.2517  18.2825  18.3104  18.3242
    18.3517  18.3715  18.3930  18.4114  18.4940  18.5729  19.0913  19.5259
    19.7214  19.8246  19.8917  19.8948  19.8988  19.9403  19.9588  20.0032
    20.1447  20.1563  20.1598  20.2550  20.2613  20.3478  20.4269  20.4833
    20.5384  20.5565  20.5634  20.6446  20.6869  20.6896  20.7268  20.7439
    20.7491  20.7614  20.7672  20.8699  20.9662  21.0734  21.1911  21.2525
    21.3072  21.3244  21.4571  21.4831  21.5459  22.0946  23.0297  23.6868
    24.1835  24.3043

          k = 0.1667 0.2776-0.5000 ( 11350 PWs)   bands (ev):

   -66.7497 -66.7495 -66.7108 -66.7106 -66.6963 -66.6961 -66.6819 -66.6817
   -66.6663 -66.6661 -66.6626 -66.6624 -66.6520 -66.6518 -66.6236 -66.6234
   -33.0145 -33.0144 -33.0022 -33.0022 -32.9881 -32.9879 -32.9874 -32.9873
   -32.9631 -32.9630 -32.9492 -32.9491 -32.9067 -32.9066 -32.8683 -32.8681
   -32.8101 -32.8100 -32.7889 -32.7888 -32.7817 -32.7816 -32.7615 -32.7614
   -32.7266 -32.7265 -32.7049 -32.7048 -32.6781 -32.6779 -32.6463 -32.6461
   -32.6363 -32.6362 -32.5977 -32.5977 -32.5882 -32.5880 -32.5790 -32.5788
   -32.5750 -32.5748 -32.5500 -32.5499 -32.5310 -32.5308 -32.5291 -32.5289
    13.2434  13.2439  14.8964  14.8968  15.5229  15.5232  16.3560  16.3564
    16.3755  16.3759  16.3854  16.3856  16.4311  16.4316  16.5581  16.5585
    16.5680  16.5682  17.3090  17.3092  17.3796  17.3797  17.5513  17.5516
    17.5663  17.5667  17.6546  17.6548  17.7741  17.7742  17.9915  17.9918
    18.1472  18.1473  18.1688  18.1691  18.1697  18.1700  18.2219  18.2219
    18.2893  18.2894  18.2914  18.2914  18.3594  18.3595  19.3807  19.3807
    19.7563  19.7564  19.9097  19.9099  20.0012  20.0014  20.0440  20.0441
    20.0918  20.0919  20.0967  20.0969  20.4550  20.4551  20.4582  20.4585
    20.4931  20.4934  20.5926  20.5929  20.6782  20.6784  20.6875  20.6877
    20.7753  20.7756  20.8279  20.8281  20.9775  20.9775  21.1436  21.1437
    21.4095  21.4097  21.4625  21.4625  21.7758  21.7759  23.6630  23.6632
    23.9838  23.9840

          k = 0.1667 0.3886 0.1667 ( 11353 PWs)   bands (ev):

   -66.7667 -66.7407 -66.7028 -66.7026 -66.6935 -66.6933 -66.6800 -66.6755
   -66.6688 -66.6677 -66.6644 -66.6642 -66.6610 -66.6608 -66.6316 -66.6111
   -33.0382 -33.0382 -33.0275 -33.0169 -32.9846 -32.9846 -32.9787 -32.9786
   -32.9726 -32.9557 -32.9450 -32.9445 -32.9018 -32.9018 -32.8929 -32.8392
   -32.8214 -32.8155 -32.7681 -32.7680 -32.7647 -32.7623 -32.7500 -32.7498
   -32.7340 -32.7254 -32.7111 -32.6782 -32.6781 -32.6682 -32.6681 -32.6455
   -32.6376 -32.6375 -32.6293 -32.6035 -32.5971 -32.5837 -32.5837 -32.5652
   -32.5624 -32.5623 -32.5618 -32.5561 -32.5471 -32.5315 -32.5314 -32.5248
    12.5152  13.5880  15.1725  15.1725  15.4217  15.4217  16.0213  16.0557
    16.0557  16.1907  16.1938  16.2182  16.3225  16.3226  16.4465  16.7101
    16.7113  16.7388  17.2199  17.2941  17.3339  17.3606  17.4842  17.4843
    17.5918  17.5920  17.8025  17.8026  17.9049  17.9199  17.9200  18.0812
    18.2318  18.2320  18.3119  18.3119  18.3906  18.4052  18.4063  18.4390
    18.4391  18.4876  18.6374  18.6374  18.6677  18.6813  19.3056  19.4275
    19.6624  19.7268  19.8094  19.8094  19.8158  19.8158  20.0348  20.0349
    20.0867  20.0912  20.1791  20.2331  20.2331  20.4163  20.4833  20.5346
    20.5883  20.6021  20.6855  20.6985  20.7021  20.7021  20.7439  20.7726
    20.7898  20.7899  20.8530  20.9061  21.1743  21.1744  21.1977  21.2222
    21.2223  21.4309  21.4399  21.4400  21.6138  21.6138  23.3296  23.3296
    23.4554  23.6254

          k = 0.1667 0.3886 0.2778 ( 11343 PWs)   bands (ev):

   -66.7610 -66.7363 -66.7167 -66.7036 -66.7004 -66.6916 -66.6844 -66.6789
   -66.6664 -66.6661 -66.6642 -66.6612 -66.6560 -66.6486 -66.6340 -66.6150
   -33.0370 -33.0244 -33.0182 -33.0002 -32.9874 -32.9821 -32.9793 -32.9745
   -32.9646 -32.9555 -32.9536 -32.9497 -32.9152 -32.8919 -32.8616 -32.8394
   -32.8354 -32.8005 -32.7918 -32.7862 -32.7829 -32.7737 -32.7721 -32.7713
   -32.7304 -32.7080 -32.6987 -32.6837 -32.6817 -32.6734 -32.6670 -32.6569
   -32.6374 -32.6210 -32.6194 -32.6083 -32.6012 -32.5925 -32.5792 -32.5697
   -32.5605 -32.5599 -32.5532 -32.5440 -32.5427 -32.5423 -32.5231 -32.5208
    12.7643  13.7992  14.6403  15.1342  15.3527  15.6361  15.9959  16.2230
    16.2330  16.2844  16.3148  16.3482  16.4793  16.4877  16.5253  16.7277
    16.7536  16.7996  17.2556  17.2748  17.3548  17.3580  17.4007  17.4436
    17.5289  17.6221  17.6434  17.6882  17.7669  17.9103  17.9512  17.9589
    18.0720  18.1322  18.1921  18.2288  18.2507  18.2827  18.3116  18.3254
    18.3549  18.3691  18.3955  18.4115  18.4942  18.5726  19.0923  19.5264
    19.7219  19.8231  19.8915  19.8934  19.8972  19.9394  19.9586  20.0042
    20.1424  20.1579  20.1587  20.2543  20.2579  20.3499  20.4302  20.4843
    20.5387  20.5569  20.5644  20.6466  20.6872  20.6901  20.7258  20.7437
    20.7499  20.7613  20.7683  20.8712  20.9677  21.0731  21.1899  21.2522
    21.3066  21.3250  21.4566  21.4829  21.5461  22.0941  23.0302  23.6862
    24.1814  24.3044

          k = 0.1667 0.3886 0.3889 ( 11360 PWs)   bands (ev):

   -66.7527 -66.7301 -66.7301 -66.7134 -66.6973 -66.6891 -66.6890 -66.6825
   -66.6652 -66.6644 -66.6643 -66.6618 -66.6487 -66.6378 -66.6377 -66.6207
   -33.0272 -33.0055 -33.0053 -32.9884 -32.9881 -32.9833 -32.9795 -32.9794
   -32.9757 -32.9699 -32.9637 -32.9341 -32.9085 -32.8785 -32.8364 -32.8308
   -32.8307 -32.8169 -32.8166 -32.7993 -32.7970 -32.7968 -32.7960 -32.7606
   -32.7246 -32.7006 -32.6978 -32.6976 -32.6903 -32.6900 -32.6789 -32.6382
   -32.6359 -32.6099 -32.6098 -32.6021 -32.6019 -32.5837 -32.5771 -32.5769
   -32.5669 -32.5593 -32.5591 -32.5582 -32.5304 -32.5301 -32.5200 -32.5187
    13.1241  14.0927  14.0938  14.7990  15.5784  15.9322  15.9324  16.3648
    16.3836  16.4627  16.4634  16.5293  16.5303  16.5444  16.5728  16.6176
    16.7774  17.0148  17.0151  17.2800  17.3406  17.3879  17.4511  17.4540
    17.4817  17.4830  17.6282  17.6392  17.6454  17.7020  17.9124  17.9947
    17.9949  18.0054  18.0703  18.0727  18.1406  18.1417  18.1559  18.1920
    18.2158  18.2508  18.2515  18.3399  18.3479  18.7656  18.7660  19.3599
    19.7729  19.9326  20.0012  20.0018  20.0267  20.0612  20.0626  20.0700
    20.1885  20.2505  20.2702  20.2718  20.3060  20.3064  20.3204  20.3227
    20.4651  20.4918  20.4932  20.5456  20.5757  20.6642  20.6649  20.6931
    20.7205  20.7206  20.7700  20.7794  20.9338  20.9885  20.9895  21.0107
    21.4364  21.4368  21.4981  21.5760  21.8375  22.6250  22.6254  23.7353
    24.0981  24.8185

          k = 0.1667 0.3886-0.5000 ( 11350 PWs)   bands (ev):

   -66.7424 -66.7422 -66.7225 -66.7223 -66.6935 -66.6933 -66.6860 -66.6858
   -66.6647 -66.6645 -66.6630 -66.6628 -66.6428 -66.6426 -66.6284 -66.6282
   -33.0103 -33.0102 -32.9927 -32.9926 -32.9835 -32.9833 -32.9817 -32.9816
   -32.9771 -32.9770 -32.9565 -32.9564 -32.8633 -32.8632 -32.8572 -32.8570
   -32.8205 -32.8204 -32.8157 -32.8156 -32.8033 -32.8031 -32.7706 -32.7705
   -32.7288 -32.7287 -32.6957 -32.6956 -32.6841 -32.6839 -32.6660 -32.6659
   -32.6227 -32.6225 -32.5878 -32.5877 -32.5863 -32.5861 -32.5797 -32.5795
   -32.5782 -32.5780 -32.5581 -32.5581 -32.5226 -32.5224 -32.5219 -32.5218
    13.5760  13.5765  14.4387  14.4392  15.7907  15.7910  16.2707  16.2711
    16.4700  16.4704  16.4790  16.4795  16.5969  16.5972  16.6814  16.6817
    16.7735  16.7739  17.3134  17.3138  17.3749  17.3752  17.3789  17.3790
    17.3870  17.3871  17.5462  17.5464  17.7993  17.7995  17.8278  17.8279
    17.9494  17.9495  18.0080  18.0083  18.0574  18.0575  18.0892  18.0894
    18.2538  18.2539  18.2920  18.2921  18.4694  18.4695  19.0324  19.0324
    19.9714  19.9716  20.0303  20.0303  20.1256  20.1258  20.1594  20.1596
    20.1802  20.1804  20.1806  20.1807  20.2898  20.2899  20.3937  20.3939
    20.4045  20.4047  20.5357  20.5359  20.5686  20.5687  20.6483  20.6483
    20.7051  20.7053  20.7518  20.7520  20.8541  20.8542  20.9920  20.9922
    21.4963  21.4964  21.5353  21.5354  22.2269  22.2271  23.1763  23.1765
    24.4998  24.5001

          k = 0.1667-0.4997 0.1667 ( 11340 PWs)   bands (ev):

   -66.7548 -66.7546 -66.6984 -66.6984 -66.6984 -66.6980 -66.6779 -66.6777
   -66.6683 -66.6681 -66.6624 -66.6624 -66.6624 -66.6621 -66.6204 -66.6202
   -33.0107 -33.0106 -33.0106 -33.0105 -32.9959 -32.9957 -32.9947 -32.9944
   -32.9477 -32.9476 -32.9446 -32.9446 -32.9445 -32.9445 -32.8683 -32.8681
   -32.7931 -32.7930 -32.7898 -32.7897 -32.7602 -32.7601 -32.7600 -32.7599
   -32.7199 -32.7198 -32.6887 -32.6887 -32.6726 -32.6725 -32.6724 -32.6723
   -32.6090 -32.6089 -32.6089 -32.6088 -32.5924 -32.5923 -32.5822 -32.5821
   -32.5700 -32.5699 -32.5445 -32.5444 -32.5443 -32.5443 -32.5378 -32.5377
    13.0090  13.0090  15.3203  15.3203  15.3203  15.3204  16.2107  16.2107
    16.2108  16.2108  16.3446  16.3447  16.3689  16.3690  16.4431  16.4434
    16.4669  16.4670  17.2506  17.2507  17.3155  17.3156  17.7428  17.7428
    17.7429  17.7430  17.7586  17.7587  17.7587  17.7588  18.2100  18.2100
    18.2100  18.2101  18.2579  18.2580  18.3247  18.3248  18.3248  18.3249
    18.3771  18.3771  18.3793  18.3794  18.4517  18.4517  19.5066  19.5068
    19.7394  19.7394  19.8848  19.8850  19.9183  19.9183  19.9184  19.9185
    20.0473  20.0473  20.0474  20.0474  20.5049  20.5051  20.5127  20.5128
[...]
   -32.8595 -32.8594 -32.8456 -32.8454 -32.8411 -32.8410 -32.7956 -32.7956
   -32.7006 -32.7005 -32.6580 -32.6579 -32.6475 -32.6474 -32.6447 -32.6446
   -32.6188 -32.6186 -32.6041 -32.6040 -32.5838 -32.5837 -32.5836 -32.5834
   -32.5798 -32.5796 -32.5547 -32.5546 -32.5358 -32.5358 -32.5335 -32.5335
    13.8102  13.8107  14.6680  14.6685  15.4150  15.4154  16.0625  16.0629
    16.6444  16.6448  16.6542  16.6545  16.7979  16.7982  16.8195  16.8200
    16.8595  16.8598  17.3084  17.3089  17.3348  17.3351  17.4143  17.4145
    17.4319  17.4321  17.6165  17.6167  17.6312  17.6314  17.7647  17.7649
    17.8134  17.8136  17.8375  17.8376  17.9550  17.9551  17.9948  17.9949
    18.0319  18.0320  18.1069  18.1070  18.1652  18.1653  18.6554  18.6554
    20.1905  20.1908  20.2118  20.2118  20.2183  20.2184  20.2357  20.2360
    20.2761  20.2762  20.3170  20.3171  20.4347  20.4350  20.4511  20.4513
    20.5083  20.5086  20.5377  20.5378  20.5751  20.5753  20.6260  20.6262
    20.6591  20.6593  20.8572  20.8572  20.9646  20.9647  21.0442  21.0442
    21.2831  21.2832  21.3039  21.3040  21.7543  21.7544  22.6563  22.6564
    25.5775  25.5777

          k = 0.3889 0.3886 0.3889 ( 11376 PWs)   bands (ev):

   -66.7406 -66.7211 -66.7210 -66.7208 -66.7065 -66.7064 -66.7062 -66.6952
   -66.6568 -66.6516 -66.6515 -66.6513 -66.6426 -66.6425 -66.6423 -66.6285
   -32.9873 -32.9871 -32.9870 -32.9734 -32.9734 -32.9731 -32.9553 -32.9338
   -32.9336 -32.9282 -32.9281 -32.9280 -32.9205 -32.9205 -32.8743 -32.8742
   -32.8740 -32.8664 -32.8663 -32.8662 -32.8586 -32.8585 -32.8582 -32.7888
   -32.7006 -32.6466 -32.6465 -32.6464 -32.6327 -32.6327 -32.6324 -32.6195
   -32.6192 -32.6071 -32.6069 -32.6069 -32.6047 -32.6045 -32.6045 -32.5859
   -32.5575 -32.5572 -32.5572 -32.5519 -32.5517 -32.5475 -32.5474 -32.5470
    13.7122  14.6231  14.6240  14.6240  15.3572  15.3572  15.3577  16.1428
    16.7196  16.7210  16.7921  16.7930  16.7930  16.9621  16.9634  16.9635
    16.9891  16.9891  16.9898  17.0810  17.4297  17.4316  17.4989  17.5013
    17.5746  17.5775  17.5777  17.5968  17.5968  17.5987  17.6863  17.6876
    17.6876  17.8081  17.8081  17.8102  17.8381  17.8389  17.8390  17.8705
    17.8707  17.8725  18.0210  18.0238  18.1259  18.1259  18.1260  18.5998
    20.1886  20.1899  20.1899  20.3264  20.3559  20.3565  20.3565  20.3575
    20.3599  20.3627  20.3628  20.3652  20.4221  20.4222  20.4246  20.5372
    20.5373  20.5665  20.5666  20.5667  20.5838  20.5851  20.5853  20.6656
    20.6684  20.9729  20.9756  20.9861  20.9861  20.9870  21.0617  21.0618
    21.0638  21.1081  21.1106  21.1107  21.7372  21.7373  21.7373  22.6730
    26.4350  26.4426

          k = 0.3889 0.3886-0.5000 ( 11386 PWs)   bands (ev):

   -66.7316 -66.7314 -66.7144 -66.7143 -66.7141 -66.7140 -66.7013 -66.7011
   -66.6539 -66.6537 -66.6466 -66.6465 -66.6464 -66.6463 -66.6349 -66.6347
   -32.9760 -32.9759 -32.9758 -32.9757 -32.9570 -32.9568 -32.9567 -32.9566
   -32.9416 -32.9415 -32.9067 -32.9065 -32.8973 -32.8972 -32.8972 -32.8970
   -32.8909 -32.8908 -32.8756 -32.8755 -32.8753 -32.8752 -32.8274 -32.8273
   -32.6727 -32.6726 -32.6272 -32.6271 -32.6241 -32.6241 -32.6239 -32.6238
   -32.6149 -32.6148 -32.6146 -32.6145 -32.5933 -32.5931 -32.5857 -32.5855
   -32.5769 -32.5766 -32.5544 -32.5544 -32.5542 -32.5540 -32.5477 -32.5476
    14.1418  14.1423  14.9864  14.9869  14.9872  14.9876  15.7471  15.7476
    16.8466  16.8470  16.8963  16.8966  16.9096  16.9099  16.9103  16.9107
    17.0526  17.0529  17.2823  17.2827  17.2833  17.2837  17.4586  17.4587
    17.5016  17.5018  17.5532  17.5536  17.5755  17.5757  17.6895  17.6897
    17.6916  17.6918  17.8043  17.8044  17.8055  17.8056  17.8650  17.8651
    17.8653  17.8654  17.9128  17.9130  17.9344  17.9346  18.2935  18.2935
    20.2796  20.2798  20.2974  20.2976  20.2992  20.2993  20.4250  20.4250
    20.4270  20.4271  20.4471  20.4474  20.4714  20.4716  20.5358  20.5359
    20.5547  20.5549  20.5594  20.5596  20.5601  20.5603  20.6439  20.6440
    20.6828  20.6829  20.8361  20.8362  21.0577  21.0577  21.0603  21.0604
    21.0794  21.0795  21.3526  21.3527  21.3531  21.3532  22.1968  22.1970
    26.7485  26.7514

          k = 0.3889-0.4997 0.3889 ( 11384 PWs)   bands (ev):

   -66.7316 -66.7314 -66.7143 -66.7143 -66.7142 -66.7139 -66.7013 -66.7011
   -66.6539 -66.6537 -66.6466 -66.6465 -66.6465 -66.6462 -66.6349 -66.6347
   -32.9760 -32.9759 -32.9759 -32.9758 -32.9570 -32.9567 -32.9567 -32.9567
   -32.9416 -32.9415 -32.9066 -32.9064 -32.8973 -32.8973 -32.8973 -32.8971
   -32.8910 -32.8909 -32.8754 -32.8753 -32.8753 -32.8752 -32.8273 -32.8273
   -32.6727 -32.6726 -32.6270 -32.6269 -32.6240 -32.6240 -32.6240 -32.6238
   -32.6148 -32.6147 -32.6147 -32.6146 -32.5933 -32.5932 -32.5858 -32.5856
   -32.5770 -32.5768 -32.5543 -32.5543 -32.5542 -32.5541 -32.5475 -32.5475
    14.1416  14.1416  14.9870  14.9870  14.9871  14.9871  15.7474  15.7474
    16.8476  16.8478  16.8950  16.8951  16.9107  16.9107  16.9108  16.9109
    17.0515  17.0516  17.2818  17.2819  17.2819  17.2820  17.4578  17.4579
    17.4995  17.4995  17.5552  17.5553  17.5775  17.5776  17.6923  17.6924
    17.6924  17.6926  17.8032  17.8032  17.8033  17.8033  17.8658  17.8658
    17.8658  17.8658  17.9149  17.9151  17.9329  17.9329  18.2938  18.2939
    20.2781  20.2782  20.2977  20.2977  20.2978  20.2978  20.4256  20.4257
    20.4257  20.4258  20.4485  20.4487  20.4716  20.4718  20.5345  20.5346
    20.5548  20.5548  20.5604  20.5605  20.5605  20.5606  20.6444  20.6446
    20.6852  20.6852  20.8383  20.8384  21.0591  21.0592  21.0592  21.0593
    21.0771  21.0771  21.3527  21.3527  21.3527  21.3528  22.1968  22.1969
    26.7522  26.7523

          k = 0.3889-0.4997-0.5000 ( 11384 PWs)   bands (ev):

   -66.7237 -66.7235 -66.7235 -66.7233 -66.7083 -66.7081 -66.7081 -66.7079
   -66.6499 -66.6497 -66.6496 -66.6495 -66.6402 -66.6401 -66.6400 -66.6398
   -32.9609 -32.9608 -32.9607 -32.9605 -32.9567 -32.9566 -32.9565 -32.9563
   -32.9194 -32.9193 -32.9192 -32.9191 -32.9022 -32.9021 -32.9020 -32.9018
   -32.8976 -32.8975 -32.8974 -32.8972 -32.8624 -32.8623 -32.8622 -32.8622
   -32.6472 -32.6470 -32.6469 -32.6469 -32.6133 -32.6132 -32.6130 -32.6129
   -32.6067 -32.6066 -32.6065 -32.6065 -32.5886 -32.5885 -32.5884 -32.5883
   -32.5751 -32.5750 -32.5748 -32.5748 -32.5546 -32.5545 -32.5544 -32.5542
    14.5463  14.5464  14.5468  14.5469  15.3649  15.3650  15.3654  15.3654
    16.9130  16.9131  16.9134  16.9137  17.1159  17.1161  17.1163  17.1164
    17.1999  17.2000  17.2002  17.2003  17.2188  17.2190  17.2192  17.2193
    17.6097  17.6099  17.6100  17.6100  17.6248  17.6248  17.6249  17.6252
    17.6272  17.6273  17.6273  17.6274  17.7856  17.7857  17.7859  17.7859
    17.8481  17.8482  17.8482  17.8482  17.9965  17.9965  17.9965  17.9966
    20.3334  20.3334  20.3336  20.3337  20.3896  20.3897  20.3897  20.3899
    20.4741  20.4742  20.4743  20.4744  20.5426  20.5426  20.5428  20.5429
    20.5573  20.5575  20.5575  20.5576  20.6069  20.6070  20.6071  20.6071
    20.8759  20.8760  20.8760  20.8760  20.9886  20.9886  20.9886  20.9888
    21.0332  21.0332  21.0334  21.0335  21.7666  21.7666  21.7666  21.7668
    27.3050  27.3051

          k =-0.5000 0.0555-0.5000 ( 11356 PWs)   bands (ev):

   -66.7352 -66.7352 -66.7350 -66.7349 -66.6808 -66.6808 -66.6806 -66.6805
   -66.6719 -66.6719 -66.6717 -66.6716 -66.6338 -66.6338 -66.6336 -66.6335
   -33.0064 -33.0064 -33.0061 -33.0061 -32.9870 -32.9869 -32.9869 -32.9868
   -32.9805 -32.9804 -32.9803 -32.9803 -32.8165 -32.8163 -32.8162 -32.8160
   -32.8065 -32.8065 -32.8063 -32.8063 -32.7753 -32.7753 -32.7750 -32.7749
   -32.7321 -32.7321 -32.7318 -32.7318 -32.7169 -32.7169 -32.7167 -32.7167
   -32.6065 -32.6062 -32.6062 -32.6059 -32.5736 -32.5734 -32.5734 -32.5733
   -32.5694 -32.5692 -32.5692 -32.5691 -32.5126 -32.5126 -32.5123 -32.5123
    13.8664  13.8667  13.8669  13.8672  16.3080  16.3082  16.3083  16.3085
    16.4063  16.4064  16.4065  16.4068  16.5161  16.5164  16.5164  16.5166
    17.0203  17.0206  17.0207  17.0212  17.3550  17.3552  17.3553  17.3555
    17.4023  17.4025  17.4026  17.4028  17.9507  17.9509  17.9510  17.9510
    17.9617  17.9617  17.9618  17.9619  18.0491  18.0491  18.0492  18.0493
    18.3962  18.3962  18.3963  18.3964  19.0020  19.0021  19.0021  19.0021
    19.8713  19.8714  19.8715  19.8716  20.1254  20.1255  20.1255  20.1256
    20.1704  20.1705  20.1705  20.1708  20.2609  20.2610  20.2611  20.2613
    20.2622  20.2623  20.2624  20.2627  20.5262  20.5262  20.5264  20.5267
    20.7935  20.7936  20.7937  20.7937  20.8513  20.8514  20.8515  20.8515
    21.6911  21.6911  21.6913  21.6913  23.3118  23.3118  23.3118  23.3120
    24.0793  24.0795

          k =-0.5000 0.1666-0.5000 ( 11336 PWs)   bands (ev):

   -66.7332 -66.7332 -66.7330 -66.7329 -66.6900 -66.6899 -66.6897 -66.6896
   -66.6637 -66.6637 -66.6635 -66.6633 -66.6348 -66.6348 -66.6346 -66.6345
   -32.9986 -32.9985 -32.9982 -32.9982 -32.9851 -32.9850 -32.9850 -32.9849
   -32.9659 -32.9657 -32.9657 -32.9656 -32.8392 -32.8391 -32.8390 -32.8388
   -32.8180 -32.8180 -32.8178 -32.8178 -32.8173 -32.8172 -32.8170 -32.8170
   -32.6970 -32.6969 -32.6968 -32.6968 -32.6897 -32.6897 -32.6894 -32.6894
   -32.6026 -32.6024 -32.6024 -32.6021 -32.5811 -32.5809 -32.5809 -32.5809
   -32.5685 -32.5683 -32.5683 -32.5682 -32.5198 -32.5198 -32.5195 -32.5195
    13.9862  13.9865  13.9867  13.9870  16.0678  16.0681  16.0682  16.0685
    16.4983  16.4985  16.4986  16.4989  16.7298  16.7300  16.7301  16.7303
    17.0384  17.0387  17.0388  17.0393  17.3120  17.3122  17.3123  17.3126
    17.4594  17.4597  17.4597  17.4598  17.8000  17.8000  17.8001  17.8001
    17.9191  17.9194  17.9194  17.9194  18.0042  18.0042  18.0042  18.0044
    18.2550  18.2551  18.2552  18.2552  18.7194  18.7195  18.7195  18.7195
    20.1076  20.1076  20.1077  20.1078  20.1873  20.1874  20.1875  20.1877
    20.2929  20.2929  20.2930  20.2933  20.3032  20.3033  20.3033  20.3036
    20.3298  20.3299  20.3299  20.3300  20.5179  20.5179  20.5181  20.5184
    20.7250  20.7251  20.7252  20.7253  20.8954  20.8954  20.8955  20.8955
    21.5468  21.5468  21.5470  21.5470  22.6985  22.6985  22.6985  22.6987
    25.0165  25.0166

          k =-0.5000 0.2776-0.5000 ( 11364 PWs)   bands (ev):

   -66.7292 -66.7292 -66.7290 -66.7289 -66.6993 -66.6993 -66.6991 -66.6990
   -66.6563 -66.6562 -66.6560 -66.6559 -66.6370 -66.6370 -66.6368 -66.6366
   -32.9833 -32.9832 -32.9829 -32.9829 -32.9748 -32.9747 -32.9746 -32.9745
   -32.9451 -32.9450 -32.9449 -32.9449 -32.8705 -32.8704 -32.8703 -32.8702
   -32.8593 -32.8593 -32.8590 -32.8590 -32.8366 -32.8365 -32.8364 -32.8364
   -32.6718 -32.6717 -32.6716 -32.6716 -32.6500 -32.6499 -32.6496 -32.6496
   -32.5960 -32.5958 -32.5957 -32.5955 -32.5920 -32.5918 -32.5918 -32.5918
   -32.5707 -32.5705 -32.5705 -32.5703 -32.5339 -32.5339 -32.5336 -32.5335
    14.2184  14.2187  14.2189  14.2192  15.7545  15.7548  15.7549  15.7553
    16.6735  16.6737  16.6737  16.6740  16.9661  16.9663  16.9664  16.9665
    17.0721  17.0723  17.0724  17.0729  17.2679  17.2682  17.2682  17.2686
    17.5281  17.5284  17.5284  17.5285  17.6652  17.6652  17.6653  17.6653
    17.8369  17.8369  17.8370  17.8372  17.8606  17.8609  17.8609  17.8609
    18.0503  18.0503  18.0504  18.0505  18.3586  18.3587  18.3587  18.3587
    20.2503  20.2504  20.2504  20.2507  20.3387  20.3387  20.3388  20.3392
    20.3758  20.3759  20.3759  20.3760  20.4008  20.4009  20.4010  20.4011
    20.5008  20.5009  20.5010  20.5013  20.6322  20.6324  20.6324  20.6325
    20.6407  20.6408  20.6409  20.6410  20.9094  20.9094  20.9094  20.9095
    21.3077  21.3077  21.3078  21.3078  22.1986  22.1987  22.1987  22.1989
    26.1068  26.1070

          k =-0.5000 0.3886-0.5000 ( 11384 PWs)   bands (ev):

   -66.7236 -66.7236 -66.7234 -66.7233 -66.7083 -66.7082 -66.7080 -66.7079
   -66.6498 -66.6498 -66.6496 -66.6495 -66.6402 -66.6401 -66.6399 -66.6398
   -32.9608 -32.9608 -32.9605 -32.9605 -32.9567 -32.9566 -32.9565 -32.9564
   -32.9193 -32.9192 -32.9192 -32.9191 -32.9023 -32.9022 -32.9022 -32.9020
   -32.8975 -32.8975 -32.8972 -32.8972 -32.8624 -32.8623 -32.8622 -32.8622
   -32.6472 -32.6471 -32.6470 -32.6470 -32.6134 -32.6134 -32.6131 -32.6131
   -32.6067 -32.6065 -32.6065 -32.6064 -32.5885 -32.5883 -32.5883 -32.5881
   -32.5749 -32.5747 -32.5747 -32.5745 -32.5548 -32.5547 -32.5544 -32.5544
    14.5466  14.5469  14.5471  14.5474  15.3645  15.3648  15.3650  15.3653
    16.9122  16.9123  16.9124  16.9127  17.1172  17.1175  17.1175  17.1180
    17.1997  17.1999  17.2000  17.2002  17.2199  17.2201  17.2202  17.2206
    17.6085  17.6088  17.6088  17.6089  17.6238  17.6238  17.6238  17.6240
    17.6287  17.6287  17.6289  17.6289  17.7830  17.7833  17.7833  17.7833
    17.8501  17.8501  17.8502  17.8502  17.9960  17.9960  17.9960  17.9961
    20.3354  20.3355  20.3356  20.3358  20.3889  20.3889  20.3891  20.3894
    20.4731  20.4732  20.4733  20.4736  20.5419  20.5420  20.5421  20.5423
    20.5595  20.5597  20.5597  20.5598  20.6052  20.6052  20.6053  20.6053
    20.8732  20.8732  20.8733  20.8733  20.9883  20.9884  20.9884  20.9885
    21.0353  21.0354  21.0354  21.0354  21.7668  21.7668  21.7668  21.7670
    27.2985  27.2988

          k =-0.5000-0.4997-0.5000 ( 11296 PWs)   bands (ev):

   -66.7167 -66.7165 -66.7165 -66.7165 -66.7164 -66.7163 -66.7161 -66.7161
   -66.6444 -66.6443 -66.6442 -66.6442 -66.6442 -66.6440 -66.6438 -66.6438
   -32.9316 -32.9314 -32.9314 -32.9314 -32.9313 -32.9313 -32.9313 -32.9312
   -32.9312 -32.9312 -32.9312 -32.9311 -32.9311 -32.9310 -32.9307 -32.9307
   -32.8911 -32.8910 -32.8909 -32.8908 -32.8908 -32.8906 -32.8906 -32.8906
   -32.6247 -32.6246 -32.6245 -32.6244 -32.6244 -32.6243 -32.6242 -32.6242
   -32.5816 -32.5816 -32.5815 -32.5815 -32.5815 -32.5814 -32.5814 -32.5812
   -32.5812 -32.5812 -32.5811 -32.5810 -32.5810 -32.5810 -32.5809 -32.5808
    14.9429  14.9431  14.9433  14.9434  14.9435  14.9435  14.9438  14.9439
    17.1668  17.1669  17.1670  17.1671  17.1671  17.1672  17.1674  17.1675
    17.1685  17.1686  17.1687  17.1688  17.1688  17.1689  17.1691  17.1695
    17.6794  17.6794  17.6794  17.6795  17.6795  17.6795  17.6795  17.6796
    17.6957  17.6959  17.6960  17.6961  17.6961  17.6961  17.6961  17.6962
    17.6983  17.6984  17.6984  17.6985  17.6985  17.6986  17.6986  17.6989
    20.4351  20.4351  20.4352  20.4353  20.4353  20.4355  20.4355  20.4358
    20.4362  20.4364  20.4364  20.4364  20.4365  20.4366  20.4366  20.4367
    20.7736  20.7737  20.7737  20.7738  20.7738  20.7738  20.7739  20.7741
    20.7765  20.7768  20.7768  20.7768  20.7769  20.7769  20.7769  20.7769
    21.3682  21.3683  21.3683  21.3683  21.3683  21.3683  21.3683  21.3686
    28.4699  28.4717

     the Fermi energy is    20.5025 ev

!    total energy              =   -5267.70745242 Ry
     Harris-Foulkes estimate   =   -5267.70745664 Ry
     estimated scf accuracy    <       0.00000594 Ry

     total all-electron energy =    -40728.451981 Ry

     The total energy is the sum of the following terms:

     one-electron contribution =   -1620.92168509 Ry
     hartree contribution      =     989.42090712 Ry
     xc contribution           =    -442.96371112 Ry
     ewald contribution        =   -2868.35278654 Ry
     one-center paw contrib.   =   -1324.75920837 Ry
     smearing contrib. (-TS)   =      -0.13096842 Ry

     convergence has been achieved in  13 iterations

     Forces acting on atoms (cartesian axes, Ry/au):

     atom    1 type  1   force =     0.00000000    0.00000000    0.00000000
     atom    2 type  1   force =     0.00008032   -0.00026186    0.00008032
     atom    3 type  1   force =     0.00000000    0.00000000    0.00000000
     atom    4 type  1   force =     0.00008032   -0.00026186   -0.00008032
     atom    5 type  1   force =     0.00000000    0.00000000    0.00000000
     atom    6 type  1   force =     0.00008032    0.00026186    0.00008032
     atom    7 type  1   force =     0.00000000    0.00000000    0.00000000
     atom    8 type  1   force =     0.00008032    0.00026186   -0.00008032
     atom    9 type  1   force =     0.00000000    0.00000000    0.00000000
     atom   10 type  1   force =    -0.00008032   -0.00026186    0.00008032
     atom   11 type  1   force =     0.00000000    0.00000000    0.00000000
     atom   12 type  1   force =    -0.00008032   -0.00026186   -0.00008032
     atom   13 type  1   force =     0.00000000   -0.00000000    0.00000000
     atom   14 type  1   force =    -0.00008032    0.00026186    0.00008032
     atom   15 type  1   force =     0.00000000    0.00000000    0.00000000
     atom   16 type  1   force =    -0.00008032    0.00026186   -0.00008032

     Total force =     0.000807     Total SCF correction =     0.003915
     SCF correction compared to forces is large: reduce conv_thr to get better values


     Computing stress (Cartesian axis) and pressure

          total   stress  (Ry/bohr**3)                   (kbar)     P=  -12.11
  -0.00008718   0.00000000   0.00000000        -12.83      0.00      0.00
   0.00000000  -0.00007261   0.00000000          0.00    -10.68      0.00
   0.00000000   0.00000000  -0.00008718          0.00      0.00    -12.83


     Writing output data file UIkAwSziWOJImRFc.save/
 
     init_run     :      6.39s CPU      6.76s WALL (       1 calls)
     electrons    :    286.11s CPU    295.33s WALL (       1 calls)
     forces       :      2.33s CPU      2.58s WALL (       1 calls)
     stress       :      5.98s CPU      6.06s WALL (       1 calls)

     Called by init_run:
     wfcinit      :      6.12s CPU      6.40s WALL (       1 calls)
     potinit      :      0.10s CPU      0.13s WALL (       1 calls)
     hinit0       :      0.10s CPU      0.14s WALL (       1 calls)

     Called by electrons:
     c_bands      :    256.23s CPU    263.66s WALL (      14 calls)
     sum_band     :     28.53s CPU     30.04s WALL (      14 calls)
     v_of_rho     :      0.13s CPU      0.26s WALL (      14 calls)
     newd         :      0.21s CPU      0.26s WALL (      14 calls)
     PAW_pot      :      1.02s CPU      1.07s WALL (      14 calls)
     mix_rho      :      0.03s CPU      0.07s WALL (      14 calls)

     Called by c_bands:
     init_us_2    :      1.39s CPU      1.41s WALL (    2325 calls)
     cegterg      :    248.99s CPU    256.34s WALL (    1050 calls)

     Called by sum_band:
     sum_band:bec :      0.44s CPU      0.45s WALL (    1050 calls)
     addusdens    :      0.21s CPU      0.26s WALL (      14 calls)

     Called by *egterg:
     h_psi        :    115.64s CPU    120.24s WALL (    3172 calls)
     s_psi        :      5.98s CPU      6.01s WALL (    3172 calls)
     g_psi        :      0.24s CPU      0.24s WALL (    2047 calls)
     cdiaghg      :    104.18s CPU    104.49s WALL (    3022 calls)

     Called by h_psi:
     h_psi:pot    :    115.00s CPU    119.60s WALL (    3172 calls)
     h_psi:calbec :      9.15s CPU     10.61s WALL (    3172 calls)
     vloc_psi     :     99.79s CPU    102.89s WALL (    3172 calls)
     add_vuspsi   :      6.04s CPU      6.08s WALL (    3172 calls)

     General routines
     calbec       :     14.63s CPU     17.00s WALL (    4597 calls)
     fft          :      0.15s CPU      0.40s WALL (     207 calls)
     ffts         :      0.01s CPU      0.07s WALL (      28 calls)
     fftw         :    115.78s CPU    119.41s WALL (  871794 calls)
     interpolate  :      0.02s CPU      0.04s WALL (      14 calls)
 
     Parallel routines
     fft_scatt_xy :      7.53s CPU      7.75s WALL (  872029 calls)
     fft_scatt_yz :     78.49s CPU     81.24s WALL (  872029 calls)
 
     PWSCF        :  5m 6.03s CPU     5m24.25s WALL

 
   This run was terminated on:   7:14:31   5Sep2020            

=------------------------------------------------------------------------------=
   JOB DONE.
=------------------------------------------------------------------------------=
