--------------------------------------------------------------------------
WARNING: There was an error initializing an OpenFabrics device.

  Local host:   bear-pg0211u07b
  Local device: mlx5_0
--------------------------------------------------------------------------

     Program PWSCF v.6.3 starts on  5Sep2020 at  7:30:39 

     This program is part of the open-source Quantum ESPRESSO suite
     for quantum simulation of materials; please cite
         "P. Giannozzi et al., J. Phys.:Condens. Matter 21 395502 (2009);
         "P. Giannozzi et al., J. Phys.:Condens. Matter 29 465901 (2017);
          URL http://www.quantum-espresso.org", 
     in publications or presentations arising from this work. More details at
     http://www.quantum-espresso.org/quote

     Parallel version (MPI & OpenMP), running on      40 processor cores
     Number of MPI processes:                40
     Threads/MPI process:                     1

     MPI processes distributed on     1 nodes
     R & G space division:  proc/nbgrp/npool/nimage =      40
     Reading input from wd/ec/ec_2_006.in
Warning: card &IONS ignored
Warning: card ION_DYNAMICS = 'BFGS', ignored
Warning: card / ignored
Warning: card &CELL ignored
Warning: card CELL_DYNAMICS = 'BFGS', ignored
Warning: card CELL_FACTOR = 2.0, ignored
Warning: card PRESS = 0.0, ignored
Warning: card / ignored

     Current dimensions of program PWSCF are:
     Max number of different atomic species (ntypx) = 10
     Max number of k-points (npk) =  40000
     Max angular momentum in pseudopotentials (lmaxx) =  3
               file Fe.pbe-spn-kjpaw_psl.1.0.0.UPF: wavefunction(s)  3P 3D renormalized

     Subspace diagonalization in iterative solution of the eigenvalue problem:
     a serial algorithm will be used

 
     Parallelization info
     --------------------
     sticks:   dense  smooth     PW     G-vecs:    dense   smooth      PW
     Min          92      61     17                 4236     2275     339
     Max          93      62     18                 4243     2278     343
     Sum        3709    2445    681               169581    91015   13613
 


     bravais-lattice index     =            0
     lattice parameter (alat)  =      10.3915  a.u.
     unit-cell volume          =    1125.6039 (a.u.)^3
     number of atoms/cell      =           16
     number of atomic types    =            1
     number of electrons       =       256.00
     number of Kohn-Sham states=          154
     kinetic-energy cutoff     =      71.0000  Ry
     charge density cutoff     =     430.0000  Ry
     convergence threshold     =      5.0E-05
     mixing beta               =       0.1000
     number of iterations used =           10  plain     mixing
     Exchange-correlation      = SLA PW PBX PBC ( 1  4  3  4 0 0)

     celldm(1)=  10.391466  celldm(2)=   0.000000  celldm(3)=   0.000000
     celldm(4)=   0.000000  celldm(5)=   0.000000  celldm(6)=   0.000000

     crystal axes: (cart. coord. in units of alat)
               a(1) = (   1.000000   0.000000   0.000000 )  
               a(2) = (   0.000000   1.003125   0.000000 )  
               a(3) = (   0.000000   0.000000   1.000000 )  

     reciprocal axes: (cart. coord. in units 2 pi/alat)
               b(1) = (  1.000000  0.000000  0.000000 )  
               b(2) = (  0.000000  0.996885  0.000000 )  
               b(3) = (  0.000000  0.000000  1.000000 )  


     PseudoPot. # 1 for Fe read from file:
     /rds/homes/b/bxp912/pp/Fe.pbe-spn-kjpaw_psl.1.0.0.UPF
     MD5 check sum: 42f43b795421b414b0dc916aa790dbcb
     Pseudo is Projector augmented-wave + core cor, Zval = 16.0
     Generated using "atomic" code by A. Dal Corso v.6.3
     Shape of augmentation charge: PSQ
     Using radial grid of 1191 points,  6 beta functions with: 
                l(1) =   0
                l(2) =   0
                l(3) =   1
                l(4) =   1
                l(5) =   2
                l(6) =   2
     Q(r) pseudized with 0 coefficients 


     atomic species   valence    mass     pseudopotential
        Fe            16.00    55.84500     Fe( 1.00)

     16 Sym. Ops., with inversion, found



   Cartesian axes

     site n.     atom                  positions (alat units)
         1           Fe  tau(   1) = (   0.0000000   0.0000000   0.0000000  )
         2           Fe  tau(   2) = (   0.2500089   0.2507902   0.2500089  )
         3           Fe  tau(   3) = (   0.0000000   0.0000000   0.4999995  )
         4           Fe  tau(   4) = (   0.2500089   0.2507902   0.7499911  )
         5           Fe  tau(   5) = (   0.0000000   0.5015626   0.0000000  )
         6           Fe  tau(   6) = (   0.2500089   0.7523349   0.2500089  )
         7           Fe  tau(   7) = (   0.0000000   0.5015626   0.4999995  )
         8           Fe  tau(   8) = (   0.2500089   0.7523349   0.7499911  )
         9           Fe  tau(   9) = (   0.5000001   0.0000000   0.0000000  )
        10           Fe  tau(  10) = (   0.7499912   0.2507902   0.2500089  )
        11           Fe  tau(  11) = (   0.5000001   0.0000000   0.4999995  )
        12           Fe  tau(  12) = (   0.7499912   0.2507902   0.7499911  )
        13           Fe  tau(  13) = (   0.5000001   0.5015626   0.0000000  )
        14           Fe  tau(  14) = (   0.7499912   0.7523349   0.2500089  )
        15           Fe  tau(  15) = (   0.5000001   0.5015626   0.4999995  )
        16           Fe  tau(  16) = (   0.7499912   0.7523349   0.7499911  )

     number of k points=    75  Marzari-Vanderbilt smearing, width (Ry)=  0.0400
                       cart. coord. in units 2pi/alat
        k(    1) = (   0.0555556   0.0553825   0.0555556), wk =   0.0219479
        k(    2) = (   0.0555556   0.0553825   0.1666667), wk =   0.0438957
        k(    3) = (   0.0555556   0.0553825   0.2777778), wk =   0.0438957
        k(    4) = (   0.0555556   0.0553825   0.3888889), wk =   0.0438957
        k(    5) = (   0.0555556   0.0553825  -0.5000000), wk =   0.0219479
        k(    6) = (   0.0555556   0.1661475   0.0555556), wk =   0.0219479
        k(    7) = (   0.0555556   0.1661475   0.1666667), wk =   0.0438957
        k(    8) = (   0.0555556   0.1661475   0.2777778), wk =   0.0438957
        k(    9) = (   0.0555556   0.1661475   0.3888889), wk =   0.0438957
        k(   10) = (   0.0555556   0.1661475  -0.5000000), wk =   0.0219479
        k(   11) = (   0.0555556   0.2769124   0.0555556), wk =   0.0219479
        k(   12) = (   0.0555556   0.2769124   0.1666667), wk =   0.0438957
        k(   13) = (   0.0555556   0.2769124   0.2777778), wk =   0.0438957
        k(   14) = (   0.0555556   0.2769124   0.3888889), wk =   0.0438957
        k(   15) = (   0.0555556   0.2769124  -0.5000000), wk =   0.0219479
        k(   16) = (   0.0555556   0.3876774   0.0555556), wk =   0.0219479
        k(   17) = (   0.0555556   0.3876774   0.1666667), wk =   0.0438957
        k(   18) = (   0.0555556   0.3876774   0.2777778), wk =   0.0438957
        k(   19) = (   0.0555556   0.3876774   0.3888889), wk =   0.0438957
        k(   20) = (   0.0555556   0.3876774  -0.5000000), wk =   0.0219479
        k(   21) = (   0.0555556  -0.4984424   0.0555556), wk =   0.0109739
        k(   22) = (   0.0555556  -0.4984424   0.1666667), wk =   0.0219479
        k(   23) = (   0.0555556  -0.4984424   0.2777778), wk =   0.0219479
        k(   24) = (   0.0555556  -0.4984424   0.3888889), wk =   0.0219479
        k(   25) = (   0.0555556  -0.4984424  -0.5000000), wk =   0.0109739
        k(   26) = (   0.1666667   0.0553825   0.1666667), wk =   0.0219479
        k(   27) = (   0.1666667   0.0553825   0.2777778), wk =   0.0438957
        k(   28) = (   0.1666667   0.0553825   0.3888889), wk =   0.0438957
        k(   29) = (   0.1666667   0.0553825  -0.5000000), wk =   0.0219479
        k(   30) = (   0.1666667   0.1661475   0.1666667), wk =   0.0219479
        k(   31) = (   0.1666667   0.1661475   0.2777778), wk =   0.0438957
        k(   32) = (   0.1666667   0.1661475   0.3888889), wk =   0.0438957
        k(   33) = (   0.1666667   0.1661475  -0.5000000), wk =   0.0219479
        k(   34) = (   0.1666667   0.2769124   0.1666667), wk =   0.0219479
        k(   35) = (   0.1666667   0.2769124   0.2777778), wk =   0.0438957
        k(   36) = (   0.1666667   0.2769124   0.3888889), wk =   0.0438957
        k(   37) = (   0.1666667   0.2769124  -0.5000000), wk =   0.0219479
        k(   38) = (   0.1666667   0.3876774   0.1666667), wk =   0.0219479
        k(   39) = (   0.1666667   0.3876774   0.2777778), wk =   0.0438957
        k(   40) = (   0.1666667   0.3876774   0.3888889), wk =   0.0438957
        k(   41) = (   0.1666667   0.3876774  -0.5000000), wk =   0.0219479
        k(   42) = (   0.1666667  -0.4984424   0.1666667), wk =   0.0109739
        k(   43) = (   0.1666667  -0.4984424   0.2777778), wk =   0.0219479
        k(   44) = (   0.1666667  -0.4984424   0.3888889), wk =   0.0219479
        k(   45) = (   0.1666667  -0.4984424  -0.5000000), wk =   0.0109739
        k(   46) = (   0.2777778   0.0553825   0.2777778), wk =   0.0219479
        k(   47) = (   0.2777778   0.0553825   0.3888889), wk =   0.0438957
        k(   48) = (   0.2777778   0.0553825  -0.5000000), wk =   0.0219479
        k(   49) = (   0.2777778   0.1661475   0.2777778), wk =   0.0219479
        k(   50) = (   0.2777778   0.1661475   0.3888889), wk =   0.0438957
        k(   51) = (   0.2777778   0.1661475  -0.5000000), wk =   0.0219479
        k(   52) = (   0.2777778   0.2769124   0.2777778), wk =   0.0219479
        k(   53) = (   0.2777778   0.2769124   0.3888889), wk =   0.0438957
        k(   54) = (   0.2777778   0.2769124  -0.5000000), wk =   0.0219479
        k(   55) = (   0.2777778   0.3876774   0.2777778), wk =   0.0219479
        k(   56) = (   0.2777778   0.3876774   0.3888889), wk =   0.0438957
        k(   57) = (   0.2777778   0.3876774  -0.5000000), wk =   0.0219479
        k(   58) = (   0.2777778  -0.4984424   0.2777778), wk =   0.0109739
        k(   59) = (   0.2777778  -0.4984424   0.3888889), wk =   0.0219479
        k(   60) = (   0.2777778  -0.4984424  -0.5000000), wk =   0.0109739
        k(   61) = (   0.3888889   0.0553825   0.3888889), wk =   0.0219479
        k(   62) = (   0.3888889   0.0553825  -0.5000000), wk =   0.0219479
        k(   63) = (   0.3888889   0.1661475   0.3888889), wk =   0.0219479
        k(   64) = (   0.3888889   0.1661475  -0.5000000), wk =   0.0219479
        k(   65) = (   0.3888889   0.2769124   0.3888889), wk =   0.0219479
        k(   66) = (   0.3888889   0.2769124  -0.5000000), wk =   0.0219479
        k(   67) = (   0.3888889   0.3876774   0.3888889), wk =   0.0219479
        k(   68) = (   0.3888889   0.3876774  -0.5000000), wk =   0.0219479
        k(   69) = (   0.3888889  -0.4984424   0.3888889), wk =   0.0109739
        k(   70) = (   0.3888889  -0.4984424  -0.5000000), wk =   0.0109739
        k(   71) = (  -0.5000000   0.0553825  -0.5000000), wk =   0.0054870
        k(   72) = (  -0.5000000   0.1661475  -0.5000000), wk =   0.0054870
        k(   73) = (  -0.5000000   0.2769124  -0.5000000), wk =   0.0054870
        k(   74) = (  -0.5000000   0.3876774  -0.5000000), wk =   0.0054870
        k(   75) = (  -0.5000000  -0.4984424  -0.5000000), wk =   0.0027435

     Dense  grid:   169581 G-vectors     FFT dimensions: (  72,  72,  72)

     Smooth grid:    91015 G-vectors     FFT dimensions: (  60,  60,  60)

     Estimated max dynamical RAM per process >      83.49 MB

     Estimated total dynamical RAM >       3.26 GB

     Check: negative/imaginary core charge=   -0.000006    0.000000

     Initial potential from superposition of free atoms

     starting charge  255.99300, renormalised to  256.00000
     Starting wfcs are  160 randomized atomic wfcs
     Checking if some PAW data can be deallocated... 

     total cpu time spent up to now is        7.6 secs

     Self-consistent Calculation

     iteration #  1     ecut=    71.00 Ry     beta= 0.10
     Davidson diagonalization with overlap
     ethr =  1.00E-02,  avg # of iterations =  3.4

     Threshold (ethr) on eigenvalues was too large:
     Diagonalizing with lowered threshold

     Davidson diagonalization with overlap
     ethr =  2.53E-04,  avg # of iterations =  3.0

     total cpu time spent up to now is       61.7 secs

     total energy              =   -5267.75290502 Ry
     Harris-Foulkes estimate   =   -5267.86790837 Ry
     estimated scf accuracy    <       0.72892272 Ry

     iteration #  2     ecut=    71.00 Ry     beta= 0.10
     Davidson diagonalization with overlap
     ethr =  2.85E-04,  avg # of iterations =  1.0

     total cpu time spent up to now is       78.0 secs

     total energy              =   -5267.61901237 Ry
     Harris-Foulkes estimate   =   -5267.76804704 Ry
     estimated scf accuracy    <       0.36119551 Ry

     iteration #  3     ecut=    71.00 Ry     beta= 0.10
     Davidson diagonalization with overlap
     ethr =  1.41E-04,  avg # of iterations =  3.2

     total cpu time spent up to now is      108.5 secs

     total energy              =   -5267.70059413 Ry
     Harris-Foulkes estimate   =   -5267.72234567 Ry
     estimated scf accuracy    <       0.51113797 Ry

     iteration #  4     ecut=    71.00 Ry     beta= 0.10
     Davidson diagonalization with overlap
     ethr =  1.41E-04,  avg # of iterations =  1.0

     total cpu time spent up to now is      124.7 secs

     total energy              =   -5267.70596301 Ry
     Harris-Foulkes estimate   =   -5267.71212284 Ry
     estimated scf accuracy    <       0.02952644 Ry

     iteration #  5     ecut=    71.00 Ry     beta= 0.10
     Davidson diagonalization with overlap
     ethr =  1.15E-05,  avg # of iterations =  2.1

     total cpu time spent up to now is      145.7 secs

     total energy              =   -5267.70608145 Ry
     Harris-Foulkes estimate   =   -5267.70827495 Ry
     estimated scf accuracy    <       0.02273491 Ry

     iteration #  6     ecut=    71.00 Ry     beta= 0.10
     Davidson diagonalization with overlap
     ethr =  8.88E-06,  avg # of iterations =  2.9

     total cpu time spent up to now is      171.2 secs

     total energy              =   -5267.70846005 Ry
     Harris-Foulkes estimate   =   -5267.70847230 Ry
     estimated scf accuracy    <       0.01177658 Ry

     iteration #  7     ecut=    71.00 Ry     beta= 0.10
     Davidson diagonalization with overlap
     ethr =  4.60E-06,  avg # of iterations =  1.0

     total cpu time spent up to now is      187.8 secs

     total energy              =   -5267.70775851 Ry
     Harris-Foulkes estimate   =   -5267.70886328 Ry
     estimated scf accuracy    <       0.01324188 Ry

     iteration #  8     ecut=    71.00 Ry     beta= 0.10
     Davidson diagonalization with overlap
     ethr =  4.60E-06,  avg # of iterations =  1.1

     total cpu time spent up to now is      204.2 secs

     total energy              =   -5267.70824793 Ry
     Harris-Foulkes estimate   =   -5267.70843647 Ry
     estimated scf accuracy    <       0.00396441 Ry

     iteration #  9     ecut=    71.00 Ry     beta= 0.10
     Davidson diagonalization with overlap
     ethr =  1.55E-06,  avg # of iterations =  2.3

     total cpu time spent up to now is      225.2 secs

     total energy              =   -5267.70841370 Ry
     Harris-Foulkes estimate   =   -5267.70843034 Ry
     estimated scf accuracy    <       0.00046338 Ry

     iteration # 10     ecut=    71.00 Ry     beta= 0.10
     Davidson diagonalization with overlap
     ethr =  1.81E-07,  avg # of iterations =  2.4

     total cpu time spent up to now is      246.9 secs

     total energy              =   -5267.70841567 Ry
     Harris-Foulkes estimate   =   -5267.70843435 Ry
     estimated scf accuracy    <       0.00024623 Ry

     iteration # 11     ecut=    71.00 Ry     beta= 0.10
     Davidson diagonalization with overlap
     ethr =  9.62E-08,  avg # of iterations =  1.0

     total cpu time spent up to now is      263.2 secs

     total energy              =   -5267.70840661 Ry
     Harris-Foulkes estimate   =   -5267.70842673 Ry
     estimated scf accuracy    <       0.00016782 Ry

     iteration # 12     ecut=    71.00 Ry     beta= 0.10
     Davidson diagonalization with overlap
     ethr =  6.56E-08,  avg # of iterations =  1.0

     total cpu time spent up to now is      279.7 secs

     total energy              =   -5267.70840631 Ry
     Harris-Foulkes estimate   =   -5267.70841398 Ry
     estimated scf accuracy    <       0.00013330 Ry

     iteration # 13     ecut=    71.00 Ry     beta= 0.10
     Davidson diagonalization with overlap
     ethr =  5.21E-08,  avg # of iterations =  1.4

     total cpu time spent up to now is      297.4 secs

     End of self-consistent calculation

          k = 0.0556 0.0554 0.0556 ( 11317 PWs)   bands (ev):

   -66.8507 -66.7524 -66.7522 -66.7520 -66.7361 -66.7359 -66.7356 -66.7351
   -66.7348 -66.7346 -66.7345 -66.7342 -66.7341 -66.7270 -66.7269 -66.6514
   -33.1458 -33.1457 -33.1451 -33.1427 -33.1426 -33.1420 -32.9806 -32.9774
   -32.9723 -32.9033 -32.9006 -32.9005 -32.8998 -32.8791 -32.8785 -32.8656
   -32.8656 -32.8645 -32.8285 -32.8277 -32.8038 -32.7882 -32.7881 -32.7872
   -32.7767 -32.7766 -32.7759 -32.7642 -32.7624 -32.7624 -32.7610 -32.7593
   -32.7592 -32.7524 -32.7523 -32.7516 -32.7416 -32.7414 -32.7407 -32.5784
   -32.5775 -32.5764 -32.5763 -32.5744 -32.5733 -32.5733 -32.5719 -32.5717
    11.4067  15.2767  15.2955  15.2955  15.4175  15.4186  15.4186  15.4435
    15.4447  15.4447  15.6855  15.6938  15.7896  15.8090  15.8091  17.1775
    17.2597  17.2644  17.2697  17.2735  17.2862  17.2863  17.3001  17.3002
    17.4028  17.4131  17.4546  17.7060  17.7133  17.7133  18.0984  18.1073
    18.1073  18.5799  18.5920  18.6369  18.9083  18.9085  18.9208  19.0141
    19.0142  19.0241  19.0992  19.0993  19.1130  19.1956  19.1957  19.2082
    19.9424  19.9425  19.9511  20.1594  20.1594  20.1769  20.1928  20.1929
    20.1993  20.3260  20.3261  20.3291  20.3292  20.3503  20.3520  20.3577
    20.3805  20.6079  20.6080  20.6281  20.6281  20.6343  20.6380  20.6706
    20.6708  20.6828  20.6831  21.1562  21.1562  21.1755  21.3887  21.4159
    21.4481  21.4483  21.4656  21.4693  21.8896  21.8926  21.8927  21.8978
    21.9314  21.9620

          k = 0.0556 0.0554 0.1667 ( 11353 PWs)   bands (ev):

   -66.8472 -66.7698 -66.7517 -66.7514 -66.7380 -66.7377 -66.7355 -66.7348
   -66.7345 -66.7340 -66.7335 -66.7331 -66.7276 -66.7273 -66.7180 -66.6540
   -33.1378 -33.1371 -33.1366 -33.1338 -33.1288 -33.1283 -32.9819 -32.9733
   -32.9627 -32.9399 -32.9314 -32.9309 -32.9292 -32.9284 -32.8977 -32.8970
   -32.8629 -32.8353 -32.8253 -32.8239 -32.8115 -32.7888 -32.7871 -32.7789
   -32.7686 -32.7679 -32.7662 -32.7659 -32.7647 -32.7585 -32.7565 -32.7535
   -32.7521 -32.7482 -32.7479 -32.7177 -32.7145 -32.7140 -32.7077 -32.5934
   -32.5869 -32.5860 -32.5843 -32.5816 -32.5777 -32.5775 -32.5765 -32.5744
    11.5446  14.6633  15.3344  15.3523  15.4283  15.4285  15.5083  15.5090
    15.5195  15.5442  15.7500  15.7569  15.8344  15.8526  16.1449  17.0703
    17.1793  17.1917  17.2677  17.2801  17.3043  17.3101  17.3217  17.3366
    17.3516  17.3779  17.5926  17.6042  17.6615  17.6676  18.0009  18.0078
    18.4587  18.5581  18.5879  18.6875  18.6948  18.7069  18.7605  18.8674
    18.8872  18.9216  19.1978  19.1986  19.3131  19.3158  19.3340  19.4351
    19.6272  19.6426  19.6978  19.9181  19.9204  19.9372  20.0766  20.1717
    20.1794  20.2648  20.2892  20.3005  20.3459  20.3488  20.3727  20.3745
    20.3948  20.4154  20.4212  20.4416  20.6305  20.6551  20.6553  20.6734
    20.6736  20.8449  20.9537  20.9691  21.1332  21.2141  21.3268  21.4251
    21.4564  21.4610  21.4915  21.5056  21.7965  21.8006  21.9360  21.9763
    22.0542  22.0677

          k = 0.0556 0.0554 0.2778 ( 11355 PWs)   bands (ev):

   -66.8405 -66.7870 -66.7502 -66.7499 -66.7404 -66.7400 -66.7345 -66.7343
   -66.7340 -66.7332 -66.7329 -66.7327 -66.7287 -66.7281 -66.7025 -66.6591
   -33.1194 -33.1189 -33.1187 -33.1166 -33.1048 -33.1044 -32.9827 -32.9818
   -32.9761 -32.9726 -32.9725 -32.9607 -32.9510 -32.9481 -32.9416 -32.9411
   -32.8581 -32.8476 -32.8454 -32.8301 -32.7868 -32.7850 -32.7810 -32.7796
   -32.7750 -32.7720 -32.7701 -32.7563 -32.7546 -32.7538 -32.7521 -32.7327
   -32.7250 -32.7133 -32.7128 -32.6848 -32.6815 -32.6809 -32.6756 -32.6192
   -32.6023 -32.6011 -32.5998 -32.5980 -32.5892 -32.5869 -32.5859 -32.5840
    11.8165  13.9856  15.4241  15.4396  15.4646  15.4660  15.6063  15.6067
    15.7134  15.7352  15.8698  15.8819  15.8879  15.9033  16.2899  16.9098
    16.9504  16.9566  17.1390  17.1883  17.2344  17.2448  17.4229  17.4487
    17.4912  17.5172  17.6528  17.6588  17.8436  17.8654  17.9330  17.9389
    18.3972  18.4179  18.5426  18.5584  18.5798  18.5805  18.6087  18.6562
    18.7856  19.0591  19.0647  19.0790  19.2797  19.2958  19.4535  19.4595
    19.4661  19.4864  19.4925  19.4962  19.5323  19.6129  19.7237  20.1571
    20.1664  20.1887  20.2636  20.2873  20.3870  20.4009  20.4518  20.4751
    20.4809  20.6148  20.6157  20.6361  20.6670  20.6689  20.6812  20.7085
    20.7126  20.7174  20.9217  20.9503  21.0759  21.1463  21.1618  21.3887
    21.4419  21.4710  21.5475  21.5548  21.6693  21.6742  22.0203  22.0579
    22.1835  22.2046

          k = 0.0556 0.0554 0.3889 ( 11368 PWs)   bands (ev):

   -66.8307 -66.8034 -66.7481 -66.7478 -66.7430 -66.7426 -66.7338 -66.7335
   -66.7332 -66.7329 -66.7326 -66.7319 -66.7301 -66.7293 -66.6886 -66.6667
   -33.0930 -33.0917 -33.0916 -33.0911 -33.0717 -33.0714 -33.0227 -33.0203
   -33.0158 -33.0156 -32.9876 -32.9874 -32.9813 -32.9663 -32.9422 -32.9288
   -32.8900 -32.8768 -32.8310 -32.8190 -32.7952 -32.7889 -32.7839 -32.7819
   -32.7760 -32.7742 -32.7551 -32.7539 -32.7533 -32.7522 -32.7361 -32.6904
   -32.6862 -32.6792 -32.6785 -32.6550 -32.6527 -32.6505 -32.6497 -32.6463
   -32.6229 -32.6223 -32.6221 -32.6219 -32.6065 -32.6022 -32.6013 -32.6000
    12.2139  13.3239  15.5012  15.5078  15.5118  15.5131  15.7223  15.7250
    15.8949  15.9055  15.9838  16.0005  16.0195  16.0705  16.2794  16.6119
    16.6364  16.6441  17.1351  17.1523  17.1943  17.2030  17.5929  17.6180
    17.6868  17.7119  17.7716  17.7787  17.9714  17.9718  18.1404  18.1544
    18.1688  18.1899  18.2498  18.2717  18.5348  18.5371  18.5479  18.5764
    18.5815  18.6043  18.7094  18.7235  18.9101  19.0151  19.0188  19.2541
    19.3704  19.6875  19.6971  19.7149  19.7257  19.9317  19.9472  20.0343
    20.0509  20.0536  20.1328  20.1527  20.4390  20.4479  20.5346  20.5597
    20.5622  20.6266  20.6434  20.6598  20.6656  20.6774  20.7545  20.7652
    20.7771  20.7798  20.9037  20.9966  20.9982  21.1796  21.1902  21.2654
    21.4400  21.4438  21.4633  21.4891  21.5487  21.5595  22.1230  22.1569
    22.2445  22.2706

          k = 0.0556 0.0554-0.5000 ( 11364 PWs)   bands (ev):

   -66.8182 -66.8180 -66.7458 -66.7456 -66.7453 -66.7451 -66.7334 -66.7332
   -66.7330 -66.7328 -66.7318 -66.7316 -66.7307 -66.7305 -66.6767 -66.6765
   -33.0601 -33.0599 -33.0598 -33.0597 -33.0562 -33.0561 -33.0559 -33.0558
   -33.0320 -33.0319 -33.0316 -33.0315 -32.9761 -32.9760 -32.9184 -32.9182
   -32.9051 -32.9049 -32.8132 -32.8130 -32.8046 -32.8044 -32.7803 -32.7800
   -32.7784 -32.7782 -32.7543 -32.7540 -32.7527 -32.7525 -32.6921 -32.6920
   -32.6532 -32.6530 -32.6517 -32.6514 -32.6488 -32.6488 -32.6480 -32.6478
   -32.6288 -32.6286 -32.6235 -32.6235 -32.6229 -32.6227 -32.6209 -32.6208
    12.7230  12.7235  15.5289  15.5292  15.5367  15.5370  15.8311  15.8314
    15.8371  15.8374  16.1704  16.1708  16.3054  16.3057  16.3136  16.3139
    16.3158  16.3163  17.1573  17.1575  17.1666  17.1668  17.8095  17.8097
    17.8329  17.8330  17.9088  17.9090  17.9277  17.9278  18.1242  18.1244
    18.1298  18.1301  18.2814  18.2817  18.2923  18.2926  18.5480  18.5482
    18.5617  18.5619  18.5755  18.5757  18.5829  18.5831  19.0670  19.0673
    19.6799  19.6802  19.8725  19.8727  19.8876  19.8876  19.9473  19.9475
    19.9632  19.9633  20.2769  20.2770  20.4020  20.4022  20.4983  20.4986
    20.5036  20.5039  20.6393  20.6396  20.6515  20.6518  20.6661  20.6663
    21.0340  21.0341  21.0363  21.0364  21.1009  21.1012  21.2474  21.2474
    21.2484  21.2485  21.4898  21.4900  21.5101  21.5103  22.2117  22.2119
    22.2417  22.2420

          k = 0.0556 0.1661 0.0556 ( 11339 PWs)   bands (ev):

   -66.8472 -66.7701 -66.7515 -66.7513 -66.7381 -66.7379 -66.7352 -66.7346
   -66.7344 -66.7336 -66.7336 -66.7333 -66.7276 -66.7272 -66.7183 -66.6540
   -33.1379 -33.1378 -33.1360 -33.1334 -33.1289 -33.1289 -32.9838 -32.9712
   -32.9625 -32.9402 -32.9320 -32.9319 -32.9288 -32.9287 -32.8981 -32.8981
   -32.8620 -32.8344 -32.8241 -32.8226 -32.8106 -32.7871 -32.7870 -32.7797
   -32.7701 -32.7665 -32.7663 -32.7661 -32.7660 -32.7566 -32.7565 -32.7520
   -32.7520 -32.7491 -32.7491 -32.7171 -32.7153 -32.7151 -32.7071 -32.5936
   -32.5859 -32.5858 -32.5853 -32.5829 -32.5774 -32.5766 -32.5766 -32.5744
    11.5438  14.6463  15.3514  15.3515  15.4288  15.4288  15.5092  15.5093
    15.5176  15.5422  15.7475  15.7583  15.8518  15.8518  16.1260  17.0662
    17.1789  17.1809  17.2423  17.2549  17.2965  17.3166  17.3362  17.3363
    17.3776  17.3778  17.6029  17.6154  17.6676  17.6676  18.0072  18.0072
    18.4514  18.5627  18.5761  18.7027  18.7029  18.7038  18.7704  18.8817
    18.8819  18.9254  19.1832  19.1833  19.2988  19.2988  19.3484  19.4493
    19.6255  19.6255  19.7085  19.9151  19.9152  19.9372  20.0993  20.1724
    20.1725  20.2689  20.2691  20.2845  20.3553  20.3554  20.3708  20.3968
    20.4088  20.4156  20.4157  20.4460  20.6406  20.6512  20.6515  20.6806
    20.6810  20.8582  20.9531  20.9532  21.1102  21.2164  21.3316  21.4558
    21.4559  21.4576  21.4927  21.4927  21.7959  21.7960  21.9753  21.9754
    22.0549  22.0550

          k = 0.0556 0.1661 0.1667 ( 11358 PWs)   bands (ev):

   -66.8439 -66.7688 -66.7685 -66.7506 -66.7429 -66.7374 -66.7371 -66.7342
   -66.7331 -66.7327 -66.7295 -66.7285 -66.7274 -66.7186 -66.7183 -66.6566
   -33.1357 -33.1292 -33.1284 -33.1210 -33.1205 -33.1094 -32.9901 -32.9679
   -32.9635 -32.9586 -32.9579 -32.9509 -32.9474 -32.9433 -32.9192 -32.8730
   -32.8585 -32.8575 -32.8237 -32.8219 -32.8217 -32.7937 -32.7833 -32.7818
   -32.7758 -32.7746 -32.7731 -32.7637 -32.7621 -32.7601 -32.7571 -32.7478
   -32.7384 -32.7263 -32.7183 -32.7182 -32.6952 -32.6826 -32.6816 -32.6148
   -32.6010 -32.5931 -32.5921 -32.5854 -32.5844 -32.5824 -32.5733 -32.5720
    11.6801  14.7227  14.7383  15.3712  15.4143  15.5300  15.5313  15.6061
    15.6079  15.6192  15.8124  15.8196  15.9042  16.1690  16.1860  16.9692
    17.0805  17.2580  17.2901  17.3068  17.3111  17.3147  17.3273  17.3518
    17.3583  17.3736  17.4824  17.5825  17.6071  17.6236  17.9011  18.2778
    18.2814  18.5039  18.5613  18.5669  18.5700  18.6085  18.7525  18.8025
    19.1019  19.1084  19.1606  19.1684  19.2062  19.2729  19.3726  19.4675
    19.4765  19.4847  19.4939  19.6650  19.6854  19.8156  19.9297  19.9378
    20.1608  20.2768  20.2899  20.3100  20.3478  20.3493  20.3681  20.3732
    20.3834  20.5576  20.6041  20.6368  20.6371  20.6540  20.6581  20.6697
    20.6711  20.7668  20.7768  20.9873  21.0920  21.0965  21.1037  21.1191
    21.2272  21.4851  21.4862  21.6168  21.6874  22.0498  22.3628  22.3700
    22.5472  22.6767

          k = 0.0556 0.1661 0.2778 ( 11372 PWs)   bands (ev):

   -66.8373 -66.7852 -66.7663 -66.7492 -66.7481 -66.7395 -66.7364 -66.7338
   -66.7323 -66.7322 -66.7298 -66.7280 -66.7262 -66.7192 -66.7032 -66.6614
   -33.1233 -33.1121 -33.1112 -33.1059 -33.0982 -33.0802 -32.9967 -32.9959
   -32.9933 -32.9820 -32.9800 -32.9784 -32.9557 -32.9531 -32.9280 -32.9031
   -32.8619 -32.8553 -32.8200 -32.8177 -32.8168 -32.8145 -32.7959 -32.7859
   -32.7857 -32.7799 -32.7723 -32.7622 -32.7599 -32.7461 -32.7400 -32.7228
   -32.7204 -32.7064 -32.6979 -32.6862 -32.6698 -32.6526 -32.6515 -32.6450
   -32.6216 -32.6056 -32.6044 -32.5995 -32.5937 -32.5929 -32.5764 -32.5759
    11.9487  14.0789  14.8575  15.3220  15.5137  15.5693  15.7041  15.7283
    15.7569  15.7965  15.9320  15.9413  15.9714  16.2077  16.3378  16.8532
    16.9343  16.9643  17.2005  17.2766  17.2875  17.3067  17.3460  17.3946
    17.4422  17.4540  17.5672  17.6473  17.7405  17.8049  17.8054  18.1474
    18.3107  18.3997  18.4260  18.4488  18.4814  18.5202  18.5441  18.7353
    18.7877  18.9328  18.9726  19.1271  19.1710  19.2489  19.2689  19.2793
    19.3629  19.4608  19.4856  19.5348  19.5671  19.6938  19.7129  20.0373
    20.1742  20.2120  20.2422  20.2871  20.2991  20.3332  20.3698  20.4188
    20.5833  20.5959  20.5974  20.6630  20.6681  20.6878  20.6895  20.6995
    20.7549  20.8611  20.8804  20.8977  20.9102  20.9337  20.9843  21.0691
    21.2096  21.4152  21.4692  21.5543  21.6833  22.1888  22.2082  22.7722
    22.8327  22.9748

          k = 0.0556 0.1661 0.3889 ( 11355 PWs)   bands (ev):

   -66.8277 -66.8011 -66.7627 -66.7533 -66.7471 -66.7421 -66.7349 -66.7332
   -66.7323 -66.7315 -66.7311 -66.7289 -66.7236 -66.7201 -66.6898 -66.6687
   -33.1015 -33.0873 -33.0856 -33.0839 -33.0679 -33.0427 -33.0355 -33.0255
   -33.0195 -33.0177 -32.9990 -32.9921 -32.9909 -32.9517 -32.9377 -32.9052
   -32.8865 -32.8487 -32.8438 -32.8118 -32.8115 -32.8034 -32.7951 -32.7942
   -32.7854 -32.7852 -32.7691 -32.7613 -32.7607 -32.7334 -32.7235 -32.7100
   -32.6848 -32.6818 -32.6750 -32.6699 -32.6570 -32.6467 -32.6448 -32.6258
   -32.6239 -32.6230 -32.6227 -32.6219 -32.6102 -32.6054 -32.5866 -32.5857
    12.3409  13.4321  15.0162  15.2585  15.6015  15.6149  15.8219  15.9123
    15.9908  16.0028  16.0563  16.0811  16.1243  16.1763  16.3349  16.6435
    16.6455  16.6606  17.1709  17.2136  17.2311  17.2547  17.5149  17.5455
    17.5833  17.6176  17.6338  17.7798  17.8640  17.9991  18.0274  18.0891
    18.2008  18.2093  18.2688  18.2772  18.4116  18.4126  18.4586  18.4927
    18.4938  18.5259  18.6149  18.7395  18.8028  18.8028  19.0884  19.4711
    19.5082  19.6644  19.6655  19.7288  19.7327  19.7431  19.9082  19.9929
    20.0039  20.0794  20.1516  20.1772  20.3485  20.3944  20.4170  20.5014
    20.5351  20.5404  20.5515  20.6597  20.6651  20.6707  20.6751  20.7372
    20.7483  20.7855  20.8108  20.9454  20.9542  21.0297  21.0857  21.1860
    21.1962  21.1983  21.3910  21.5875  21.6719  22.0263  22.3694  22.7022
    23.0122  23.1688

          k = 0.0556 0.1661-0.5000 ( 11366 PWs)   bands (ev):

   -66.8155 -66.8153 -66.7584 -66.7582 -66.7447 -66.7445 -66.7334 -66.7332
   -66.7327 -66.7325 -66.7302 -66.7299 -66.7217 -66.7214 -66.6783 -66.6781
   -33.0715 -33.0714 -33.0567 -33.0566 -33.0562 -33.0560 -33.0533 -33.0533
   -33.0314 -33.0314 -32.9992 -32.9990 -32.9976 -32.9975 -32.9144 -32.9142
   -32.8787 -32.8786 -32.8239 -32.8237 -32.8040 -32.8038 -32.7997 -32.7995
   -32.7905 -32.7902 -32.7611 -32.7608 -32.7280 -32.7278 -32.7240 -32.7239
   -32.6766 -32.6765 -32.6508 -32.6506 -32.6467 -32.6465 -32.6444 -32.6444
   -32.6315 -32.6313 -32.6230 -32.6230 -32.6035 -32.6034 -32.6018 -32.6017
    12.8421  12.8427  15.1579  15.1583  15.6357  15.6360  15.9314  15.9317
    16.0642  16.0646  16.2304  16.2308  16.3271  16.3274  16.3560  16.3563
    16.3604  16.3608  17.1901  17.1902  17.2141  17.2143  17.7088  17.7089
    17.7322  17.7324  17.7747  17.7748  17.8249  17.8253  18.1569  18.1570
    18.1895  18.1897  18.2597  18.2599  18.3697  18.3700  18.3874  18.3876
    18.3978  18.3979  18.4292  18.4294  18.5102  18.5103  19.2685  19.2687
    19.7622  19.7624  19.7816  19.7817  19.9159  19.9160  19.9628  19.9629
    19.9882  19.9884  19.9988  19.9989  20.3320  20.3322  20.4645  20.4647
    20.4768  20.4771  20.6084  20.6087  20.6589  20.6591  20.6967  20.6969
    20.8041  20.8042  20.9123  20.9124  21.0116  21.0117  21.0994  21.0995
    21.2594  21.2596  21.4215  21.4216  21.8376  21.8378  22.5547  22.5549
    23.1518  23.1520

          k = 0.0556 0.2769 0.0556 ( 11357 PWs)   bands (ev):

   -66.8405 -66.7873 -66.7501 -66.7498 -66.7404 -66.7402 -66.7343 -66.7341
   -66.7339 -66.7331 -66.7328 -66.7327 -66.7287 -66.7281 -66.7028 -66.6591
   -33.1196 -33.1195 -33.1182 -33.1162 -33.1051 -33.1050 -32.9847 -32.9820
   -32.9763 -32.9736 -32.9735 -32.9586 -32.9513 -32.9475 -32.9423 -32.9423
   -32.8568 -32.8472 -32.8445 -32.8295 -32.7849 -32.7848 -32.7810 -32.7800
   -32.7764 -32.7701 -32.7700 -32.7547 -32.7546 -32.7521 -32.7520 -32.7336
   -32.7260 -32.7140 -32.7139 -32.6844 -32.6821 -32.6820 -32.6751 -32.6191
   -32.6014 -32.6013 -32.6007 -32.5991 -32.5891 -32.5860 -32.5860 -32.5838
    11.8139  13.9713  15.4376  15.4376  15.4655  15.4655  15.6071  15.6071
    15.7098  15.7315  15.8621  15.8859  15.9013  15.9014  16.2724  16.9006
    16.9457  16.9477  17.1337  17.1812  17.2118  17.2223  17.4479  17.4480
    17.5163  17.5165  17.6582  17.6582  17.8576  17.8793  17.9382  17.9382
    18.4144  18.4146  18.5450  18.5703  18.5756  18.5758  18.6116  18.6616
    18.7984  19.0497  19.0650  19.0650  19.2801  19.2801  19.4419  19.4419
    19.4785  19.4800  19.4800  19.5058  19.5530  19.6271  19.7382  20.1405
    20.1697  20.1698  20.2674  20.2675  20.4067  20.4209  20.4636  20.4757
    20.4757  20.6144  20.6157  20.6460  20.6755  20.6776  20.6835  20.7081
    20.7083  20.7286  20.9074  20.9559  21.0835  21.1509  21.1510  21.3857
    21.4692  21.4694  21.5486  21.5487  21.6687  21.6688  22.0548  22.0549
    22.1889  22.1889

          k = 0.0556 0.2769 0.1667 ( 11369 PWs)   bands (ev):

   -66.8373 -66.7855 -66.7660 -66.7492 -66.7481 -66.7398 -66.7361 -66.7338
   -66.7326 -66.7319 -66.7298 -66.7279 -66.7262 -66.7189 -66.7035 -66.6614
   -33.1235 -33.1120 -33.1115 -33.1054 -33.0989 -33.0804 -32.9974 -32.9963
   -32.9934 -32.9825 -32.9800 -32.9781 -32.9553 -32.9535 -32.9275 -32.9041
   -32.8617 -32.8552 -32.8198 -32.8175 -32.8155 -32.8138 -32.7949 -32.7872
   -32.7857 -32.7782 -32.7735 -32.7606 -32.7590 -32.7473 -32.7399 -32.7234
   -32.7202 -32.7068 -32.6981 -32.6864 -32.6700 -32.6523 -32.6516 -32.6448
   -32.6218 -32.6054 -32.6048 -32.6006 -32.5937 -32.5921 -32.5765 -32.5756
    11.9471  14.0657  14.8702  15.3228  15.5124  15.5696  15.7053  15.7254
    15.7575  15.7931  15.9253  15.9456  15.9703  16.2205  16.3218  16.8484
    16.9284  16.9620  17.1936  17.2547  17.2800  17.2851  17.3502  17.4179
    17.4417  17.4770  17.5671  17.6467  17.7518  17.8056  17.8165  18.1506
    18.3083  18.4085  18.4251  18.4470  18.4862  18.5297  18.5451  18.7358
    18.7832  18.9369  18.9587  19.1114  19.1884  19.2683  19.2699  19.2770
    19.3701  19.4532  19.4756  19.5257  19.5547  19.7026  19.7293  20.0388
    20.1624  20.1935  20.2363  20.2670  20.2995  20.3519  20.3897  20.4278
    20.5834  20.5971  20.5990  20.6666  20.6724  20.6903  20.6967  20.7033
    20.7547  20.8708  20.8830  20.8834  20.9034  20.9303  20.9889  21.0898
    21.2016  21.4142  21.4685  21.5531  21.6831  22.1869  22.2013  22.7602
    22.8749  22.9813

          k = 0.0556 0.2769 0.2778 ( 11359 PWs)   bands (ev):

   -66.8311 -66.7820 -66.7818 -66.7560 -66.7478 -66.7386 -66.7383 -66.7334
   -66.7318 -66.7316 -66.7313 -66.7282 -66.7202 -66.7051 -66.7049 -66.6660
   -33.1172 -33.0971 -33.0965 -33.0869 -33.0863 -33.0465 -33.0132 -33.0126
   -33.0096 -33.0090 -32.9998 -32.9967 -32.9743 -32.9441 -32.9032 -32.8628
   -32.8605 -32.8596 -32.8492 -32.8491 -32.8152 -32.8041 -32.8010 -32.7942
   -32.7928 -32.7808 -32.7795 -32.7719 -32.7708 -32.7659 -32.7266 -32.6992
   -32.6904 -32.6902 -32.6838 -32.6804 -32.6772 -32.6533 -32.6465 -32.6258
   -32.6250 -32.6130 -32.6122 -32.6049 -32.6042 -32.6039 -32.5734 -32.5726
    12.2088  14.2422  14.2531  15.1616  15.6364  15.7669  15.7688  15.8892
    15.8919  15.9178  16.0307  16.0726  16.0736  16.3667  16.3788  16.7887
    16.8481  17.0389  17.0412  17.2561  17.3284  17.3454  17.3657  17.3900
    17.4095  17.4703  17.4958  17.6690  17.6929  17.7921  17.8360  18.2047
    18.2049  18.3066  18.3253  18.3271  18.3448  18.3478  18.4037  18.5108
    18.7540  18.7679  18.8160  18.8317  18.9763  19.0340  19.0387  19.1126
    19.5434  19.5447  19.6044  19.6439  19.6868  19.6987  19.9054  19.9933
    19.9994  20.1592  20.2437  20.2604  20.2709  20.2896  20.3084  20.3607
    20.3993  20.5529  20.5546  20.5627  20.6644  20.6742  20.7075  20.7590
    20.7713  20.7756  20.8238  20.8367  20.8500  20.9549  20.9616  21.1329
    21.1357  21.1742  21.5210  21.7120  21.7286  22.4204  22.8311  22.8370
    23.4338  23.4430

          k = 0.0556 0.2769 0.3889 ( 11367 PWs)   bands (ev):

   -66.8219 -66.7968 -66.7770 -66.7637 -66.7458 -66.7408 -66.7370 -66.7332
   -66.7327 -66.7317 -66.7309 -66.7290 -66.7150 -66.7075 -66.6923 -66.6728
   -33.1012 -33.0763 -33.0752 -33.0703 -33.0610 -33.0469 -33.0293 -33.0231
   -33.0224 -33.0212 -33.0183 -33.0058 -33.0018 -32.9268 -32.9095 -32.8785
   -32.8757 -32.8513 -32.8404 -32.8155 -32.8143 -32.8136 -32.8123 -32.8082
   -32.8077 -32.8011 -32.7839 -32.7716 -32.7699 -32.7430 -32.7216 -32.7147
   -32.6966 -32.6755 -32.6711 -32.6630 -32.6611 -32.6568 -32.6369 -32.6246
   -32.6244 -32.6217 -32.6194 -32.6123 -32.6037 -32.6025 -32.5764 -32.5761
    12.5897  13.6396  14.4752  14.9642  15.7572  15.8107  16.0039  16.0437
    16.0806  16.1356  16.1448  16.1647  16.2581  16.3364  16.3907  16.6568
    16.6595  16.7493  17.2395  17.2398  17.2824  17.3045  17.3340  17.4635
    17.4649  17.5050  17.5998  17.6069  17.8469  17.9374  17.9436  17.9730
    18.0837  18.1720  18.1910  18.2419  18.2633  18.2832  18.3736  18.3894
    18.4154  18.4684  18.4719  18.4842  18.6191  18.6958  19.3095  19.3261
    19.6876  19.7019  19.7556  19.7926  19.7977  19.8018  19.8094  19.8934
    20.0063  20.0590  20.1352  20.1762  20.1856  20.3091  20.3162  20.3420
    20.4493  20.4667  20.4839  20.4884  20.5907  20.6696  20.6835  20.6912
    20.7105  20.7696  20.7907  20.8088  20.8215  20.8952  20.9129  20.9833
    21.3049  21.3666  21.5093  21.6650  21.9815  22.5648  22.7087  23.2631
    23.5060  24.0943

          k = 0.0556 0.2769-0.5000 ( 11366 PWs)   bands (ev):

   -66.8104 -66.8102 -66.7709 -66.7707 -66.7435 -66.7433 -66.7352 -66.7350
   -66.7322 -66.7320 -66.7300 -66.7298 -66.7110 -66.7107 -66.6817 -66.6814
   -33.0775 -33.0774 -33.0506 -33.0504 -33.0503 -33.0502 -33.0494 -33.0493
   -33.0318 -33.0317 -33.0228 -33.0227 -32.9591 -32.9590 -32.9049 -32.9047
   -32.8457 -32.8456 -32.8332 -32.8331 -32.8290 -32.8288 -32.8063 -32.8061
   -32.7974 -32.7972 -32.7714 -32.7712 -32.7672 -32.7671 -32.7081 -32.7080
   -32.7048 -32.7046 -32.6445 -32.6443 -32.6409 -32.6407 -32.6392 -32.6391
   -32.6389 -32.6389 -32.6231 -32.6231 -32.5869 -32.5867 -32.5859 -32.5858
    13.0740  13.0745  14.7282  14.7286  15.8188  15.8191  16.1038  16.1040
    16.2290  16.2294  16.3003  16.3008  16.3598  16.3601  16.4236  16.4239
    16.4856  16.4859  17.2538  17.2539  17.2789  17.2790  17.5355  17.5358
    17.5556  17.5560  17.5636  17.5638  17.7688  17.7689  18.1302  18.1305
    18.1649  18.1651  18.1717  18.1719  18.1978  18.1980  18.2103  18.2104
    18.3711  18.3712  18.3749  18.3751  18.4326  18.4327  19.5237  19.5238
    19.6543  19.6543  19.7173  19.7175  19.8912  19.8915  19.9814  19.9814
    19.9998  19.9999  20.0232  20.0234  20.1639  20.1641  20.4006  20.4008
    20.4128  20.4130  20.5524  20.5527  20.5955  20.5956  20.6827  20.6829
    20.7035  20.7037  20.7305  20.7307  20.8266  20.8268  20.9539  20.9541
    21.4339  21.4341  21.5475  21.5476  22.2724  22.2726  23.0042  23.0044
    24.2004  24.2007

          k = 0.0556 0.3877 0.0556 ( 11373 PWs)   bands (ev):

   -66.8308 -66.8036 -66.7480 -66.7478 -66.7429 -66.7427 -66.7337 -66.7335
   -66.7330 -66.7330 -66.7327 -66.7317 -66.7300 -66.7292 -66.6889 -66.6668
   -33.0926 -33.0920 -33.0920 -33.0914 -33.0721 -33.0721 -33.0227 -33.0204
   -33.0168 -33.0167 -32.9886 -32.9885 -32.9830 -32.9673 -32.9402 -32.9280
   -32.8885 -32.8759 -32.8308 -32.8188 -32.7962 -32.7899 -32.7819 -32.7818
   -32.7740 -32.7740 -32.7532 -32.7531 -32.7521 -32.7520 -32.7352 -32.6915
   -32.6871 -32.6796 -32.6796 -32.6547 -32.6525 -32.6507 -32.6506 -32.6459
   -32.6233 -32.6233 -32.6223 -32.6223 -32.6063 -32.6016 -32.6015 -32.5998
    12.2089  13.3128  15.5102  15.5102  15.5103  15.5103  15.7244  15.7244
    15.9033  15.9033  15.9782  15.9948  16.0089  16.0737  16.2637  16.6114
    16.6268  16.6344  17.1249  17.1421  17.1752  17.1840  17.6165  17.6166
    17.7102  17.7104  17.7766  17.7767  17.9752  17.9752  18.1536  18.1538
    18.1852  18.2061  18.2689  18.2690  18.5381  18.5381  18.5398  18.5690
    18.5910  18.6002  18.7132  18.7132  18.9243  19.0341  19.0383  19.2677
    19.3563  19.6800  19.6801  19.7066  19.7066  19.9309  19.9448  20.0354
    20.0355  20.0651  20.1322  20.1323  20.4548  20.4640  20.5417  20.5653
    20.5682  20.6352  20.6530  20.6688  20.6749  20.6878  20.7591  20.7648
    20.7769  20.7770  20.9042  20.9952  20.9953  21.1855  21.1856  21.2632
    21.4402  21.4403  21.4854  21.4855  21.5526  21.5526  22.1507  22.1508
    22.2571  22.2571

          k = 0.0556 0.3877 0.1667 ( 11363 PWs)   bands (ev):

   -66.8278 -66.8013 -66.7625 -66.7532 -66.7472 -66.7423 -66.7347 -66.7333
   -66.7325 -66.7314 -66.7310 -66.7288 -66.7235 -66.7199 -66.6900 -66.6688
   -33.1017 -33.0870 -33.0864 -33.0836 -33.0686 -33.0430 -33.0363 -33.0254
   -33.0194 -33.0186 -32.9994 -32.9928 -32.9911 -32.9526 -32.9373 -32.9043
   -32.8863 -32.8477 -32.8439 -32.8117 -32.8114 -32.8046 -32.7950 -32.7926
   -32.7862 -32.7835 -32.7682 -32.7597 -32.7594 -32.7332 -32.7234 -32.7109
   -32.6856 -32.6815 -32.6756 -32.6699 -32.6571 -32.6472 -32.6448 -32.6250
   -32.6246 -32.6237 -32.6229 -32.6225 -32.6103 -32.6050 -32.5862 -32.5860
    12.3368  13.4220  15.0252  15.2610  15.5995  15.6141  15.8222  15.9140
    15.9893  15.9978  16.0509  16.0711  16.1282  16.1840  16.3204  16.6379
    16.6435  16.6527  17.1609  17.2035  17.2127  17.2369  17.5192  17.5666
    17.5823  17.6338  17.6375  17.7846  17.8623  17.9978  18.0427  18.1038
    18.2040  18.2175  18.2712  18.2899  18.4090  18.4107  18.4555  18.4840
    18.5010  18.5291  18.6047  18.7430  18.8200  18.8212  19.0950  19.4789
    19.5002  19.6589  19.6716  19.7154  19.7179  19.7358  19.9090  19.9796
    20.0185  20.0622  20.1321  20.1734  20.3532  20.4096  20.4338  20.5077
    20.5412  20.5473  20.5482  20.6645  20.6712  20.6795  20.6808  20.7311
    20.7562  20.7853  20.8209  20.9442  20.9507  21.0469  21.0870  21.1842
    21.1913  21.1955  21.3904  21.5866  21.6690  22.0203  22.3647  22.6921
    23.0466  23.1849

          k = 0.0556 0.3877 0.2778 ( 11364 PWs)   bands (ev):

   -66.8220 -66.7969 -66.7769 -66.7636 -66.7458 -66.7410 -66.7368 -66.7332
   -66.7328 -66.7319 -66.7308 -66.7289 -66.7150 -66.7073 -66.6925 -66.6728
   -33.1015 -33.0758 -33.0757 -33.0698 -33.0616 -33.0474 -33.0293 -33.0235
   -33.0223 -33.0211 -33.0184 -33.0059 -33.0020 -32.9268 -32.9102 -32.8786
   -32.8753 -32.8514 -32.8402 -32.8156 -32.8136 -32.8133 -32.8127 -32.8082
   -32.8070 -32.7998 -32.7846 -32.7706 -32.7692 -32.7438 -32.7214 -32.7146
   -32.6964 -32.6758 -32.6715 -32.6631 -32.6615 -32.6567 -32.6368 -32.6251
   -32.6240 -32.6225 -32.6194 -32.6118 -32.6032 -32.6029 -32.5763 -32.5760
    12.5873  13.6315  14.4830  14.9660  15.7563  15.8112  16.0056  16.0401
    16.0817  16.1352  16.1404  16.1605  16.2588  16.3433  16.3803  16.6525
    16.6553  16.7485  17.2315  17.2429  17.2754  17.2881  17.3187  17.4639
    17.4821  17.5199  17.6027  17.6065  17.8576  17.9377  17.9532  17.9720
    18.0836  18.1751  18.1907  18.2474  18.2626  18.2842  18.3656  18.3928
    18.4050  18.4738  18.4840  18.4980  18.6209  18.6928  19.3121  19.3304
    19.6814  19.6974  19.7613  19.7903  19.7926  19.7984  19.8026  19.9039
    20.0083  20.0513  20.1206  20.1597  20.1816  20.3053  20.3298  20.3572
    20.4532  20.4711  20.4881  20.4932  20.5983  20.6711  20.6775  20.6932
    20.7136  20.7814  20.7907  20.8140  20.8194  20.8945  20.9114  20.9793
    21.3065  21.3645  21.5095  21.6641  21.9799  22.5600  22.7063  23.2558
    23.5105  24.1353

          k = 0.0556 0.3877 0.3889 ( 11368 PWs)   bands (ev):

   -66.8136 -66.7906 -66.7905 -66.7736 -66.7440 -66.7393 -66.7392 -66.7352
   -66.7321 -66.7311 -66.7310 -66.7294 -66.7075 -66.6963 -66.6961 -66.6788
   -33.0919 -33.0614 -33.0610 -33.0526 -33.0522 -33.0502 -33.0498 -33.0352
   -33.0345 -33.0323 -33.0314 -33.0160 -32.9617 -32.9112 -32.8670 -32.8668
   -32.8634 -32.8630 -32.8491 -32.8439 -32.8348 -32.8201 -32.8191 -32.8179
   -32.8036 -32.7840 -32.7833 -32.7776 -32.7772 -32.7768 -32.7668 -32.7073
   -32.6980 -32.6721 -32.6719 -32.6539 -32.6476 -32.6444 -32.6331 -32.6300
   -32.6287 -32.6282 -32.6229 -32.6226 -32.5866 -32.5863 -32.5729 -32.5726
    12.9494  13.9229  13.9284  14.6272  15.9308  16.0741  16.0761  16.2220
    16.2429  16.2459  16.2575  16.2737  16.3822  16.3876  16.4575  16.5710
    16.6291  16.9638  16.9656  17.2804  17.2966  17.3611  17.3753  17.3862
    17.3878  17.3961  17.4797  17.5990  17.6855  17.7934  17.9036  17.9856
    17.9860  18.0731  18.1365  18.1493  18.1595  18.1697  18.1948  18.2025
    18.3295  18.3303  18.3378  18.4157  18.4534  18.9755  18.9779  19.5479
    19.6472  19.7225  19.7835  19.7890  19.9026  19.9035  19.9254  19.9345
    20.0520  20.0553  20.0857  20.1695  20.2078  20.2155  20.2180  20.2256
    20.2371  20.4075  20.4114  20.4275  20.5141  20.6057  20.6117  20.6364
    20.6870  20.7176  20.7499  20.7513  20.7879  20.8420  20.8446  20.8677
    21.4902  21.4916  21.5692  21.6751  22.3552  23.1022  23.1380  23.1410
    23.8683  23.8729

          k = 0.0556 0.3877-0.5000 ( 11382 PWs)   bands (ev):

   -66.8030 -66.8028 -66.7828 -66.7826 -66.7418 -66.7416 -66.7375 -66.7373
   -66.7316 -66.7314 -66.7303 -66.7301 -66.7014 -66.7012 -66.6867 -66.6864
   -33.0744 -33.0742 -33.0458 -33.0457 -33.0456 -33.0455 -33.0453 -33.0453
   -33.0435 -33.0434 -33.0334 -33.0334 -32.9134 -32.9133 -32.8909 -32.8907
   -32.8522 -32.8520 -32.8372 -32.8371 -32.8223 -32.8221 -32.8151 -32.8150
   -32.8108 -32.8107 -32.7955 -32.7954 -32.7825 -32.7823 -32.7412 -32.7411
   -32.6838 -32.6836 -32.6508 -32.6506 -32.6371 -32.6369 -32.6364 -32.6362
   -32.6351 -32.6350 -32.6253 -32.6252 -32.5764 -32.5763 -32.5761 -32.5759
    13.4049  13.4054  14.2670  14.2675  16.0493  16.0496  16.3110  16.3113
    16.3252  16.3256  16.3449  16.3454  16.3581  16.3584  16.4844  16.4847
    16.6991  16.6994  17.2607  17.2610  17.3110  17.3110  17.3139  17.3140
    17.3735  17.3737  17.4293  17.4295  17.8144  17.8144  17.9281  17.9283
    18.0152  18.0155  18.0255  18.0257  18.0419  18.0420  18.0866  18.0868
    18.3461  18.3462  18.3675  18.3676  18.6416  18.6417  19.2970  19.2970
    19.7208  19.7210  19.7949  19.7950  19.9708  19.9710  20.0220  20.0222
    20.0741  20.0742  20.0813  20.0814  20.0857  20.0858  20.3090  20.3092
    20.3160  20.3162  20.3491  20.3491  20.4893  20.4895  20.5354  20.5356
    20.7111  20.7113  20.7617  20.7619  20.7756  20.7758  20.8566  20.8567
    21.5614  21.5615  21.6173  21.6174  22.7510  22.7512  23.5040  23.5042
    23.7295  23.7297

          k = 0.0556-0.4984 0.0556 ( 11364 PWs)   bands (ev):

   -66.8183 -66.8181 -66.7456 -66.7455 -66.7455 -66.7452 -66.7333 -66.7332
   -66.7332 -66.7328 -66.7316 -66.7314 -66.7305 -66.7304 -66.6768 -66.6767
   -33.0600 -33.0597 -33.0597 -33.0594 -33.0571 -33.0570 -33.0570 -33.0569
   -33.0327 -33.0326 -33.0326 -33.0326 -32.9775 -32.9774 -32.9167 -32.9165
   -32.9042 -32.9040 -32.8135 -32.8134 -32.8047 -32.8046 -32.7783 -32.7782
   -32.7781 -32.7780 -32.7526 -32.7525 -32.7524 -32.7524 -32.6914 -32.6913
   -32.6543 -32.6542 -32.6526 -32.6525 -32.6487 -32.6486 -32.6486 -32.6486
   -32.6283 -32.6282 -32.6233 -32.6233 -32.6232 -32.6232 -32.6206 -32.6205
    12.7153  12.7154  15.5341  15.5342  15.5342  15.5342  15.8356  15.8357
    15.8357  15.8357  16.1574  16.1575  16.2976  16.2978  16.3058  16.3059
    16.3175  16.3177  17.1426  17.1427  17.1518  17.1520  17.8308  17.8308
    17.8309  17.8310  17.9258  17.9258  17.9259  17.9260  18.1287  18.1287
    18.1288  18.1288  18.2870  18.2871  18.2871  18.2872  18.5529  18.5530
    18.5784  18.5784  18.5799  18.5800  18.5934  18.5935  19.0816  19.0819
    19.6644  19.6646  19.8699  19.8700  19.8700  19.8701  19.9429  19.9429
    19.9430  19.9430  20.2883  20.2883  20.4148  20.4148  20.5097  20.5099
    20.5152  20.5154  20.6405  20.6406  20.6609  20.6610  20.6760  20.6761
    21.0350  21.0350  21.0350  21.0351  21.0999  21.1000  21.2460  21.2460
    21.2461  21.2462  21.5040  21.5041  21.5041  21.5042  22.2320  22.2321
    22.2321  22.2321

          k = 0.0556-0.4984 0.1667 ( 11362 PWs)   bands (ev):

   -66.8157 -66.8155 -66.7582 -66.7580 -66.7449 -66.7447 -66.7332 -66.7330
   -66.7329 -66.7327 -66.7300 -66.7298 -66.7215 -66.7213 -66.6785 -66.6783
   -33.0721 -33.0721 -33.0564 -33.0562 -33.0559 -33.0557 -33.0544 -33.0543
   -33.0322 -33.0322 -32.9998 -32.9998 -32.9980 -32.9979 -32.9141 -32.9139
   -32.8776 -32.8774 -32.8242 -32.8241 -32.8039 -32.8037 -32.7998 -32.7997
   -32.7887 -32.7886 -32.7594 -32.7593 -32.7276 -32.7275 -32.7234 -32.7233
   -32.6772 -32.6772 -32.6516 -32.6515 -32.6474 -32.6473 -32.6443 -32.6443
   -32.6316 -32.6315 -32.6228 -32.6227 -32.6030 -32.6030 -32.6023 -32.6023
    12.8354  12.8355  15.1633  15.1634  15.6339  15.6340  15.9307  15.9308
    16.0683  16.0683  16.2183  16.2183  16.3204  16.3205  16.3490  16.3491
    16.3627  16.3629  17.1760  17.1761  17.2006  17.2007  17.7249  17.7249
    17.7416  17.7417  17.7732  17.7733  17.8280  17.8281  18.1555  18.1556
    18.1929  18.1930  18.2567  18.2568  18.3743  18.3744  18.3953  18.3954
    18.4048  18.4048  18.4457  18.4458  18.5159  18.5159  19.2767  19.2769
    19.7499  19.7501  19.7797  19.7798  19.9003  19.9005  19.9452  19.9453
    19.9822  19.9822  20.0053  20.0053  20.3443  20.3443  20.4757  20.4760
    20.4893  20.4895  20.6091  20.6093  20.6645  20.6646  20.7036  20.7037
    20.8085  20.8086  20.9111  20.9111  21.0191  21.0192  21.0967  21.0967
    21.2597  21.2597  21.4198  21.4198  21.8330  21.8330  22.5473  22.5473
    23.1775  23.1776

          k = 0.0556-0.4984 0.2778 ( 11370 PWs)   bands (ev):

   -66.8105 -66.8103 -66.7708 -66.7706 -66.7436 -66.7434 -66.7352 -66.7350
   -66.7323 -66.7322 -66.7299 -66.7297 -66.7108 -66.7106 -66.6817 -66.6816
   -33.0778 -33.0778 -33.0504 -33.0503 -33.0503 -33.0501 -33.0501 -33.0499
   -33.0323 -33.0323 -33.0226 -33.0226 -32.9596 -32.9596 -32.9048 -32.9046
   -32.8448 -32.8447 -32.8336 -32.8336 -32.8288 -32.8286 -32.8050 -32.8049
   -32.7978 -32.7977 -32.7703 -32.7702 -32.7667 -32.7667 -32.7085 -32.7085
   -32.7047 -32.7046 -32.6451 -32.6450 -32.6414 -32.6414 -32.6393 -32.6391
   -32.6387 -32.6387 -32.6229 -32.6229 -32.5865 -32.5865 -32.5863 -32.5862
    13.0690  13.0691  14.7328  14.7329  15.8183  15.8184  16.1042  16.1043
    16.2323  16.2324  16.2929  16.2930  16.3550  16.3550  16.4182  16.4183
    16.4861  16.4863  17.2415  17.2416  17.2680  17.2681  17.5412  17.5413
    17.5582  17.5583  17.5741  17.5741  17.7678  17.7679  18.1445  18.1446
    18.1623  18.1624  18.1738  18.1739  18.2094  18.2095  18.2107  18.2108
    18.3696  18.3696  18.3771  18.3772  18.4360  18.4360  19.5280  19.5282
    19.6578  19.6579  19.7153  19.7155  19.8837  19.8839  19.9699  19.9700
    19.9870  19.9872  20.0184  20.0185  20.1720  20.1720  20.4098  20.4100
    20.4231  20.4233  20.5526  20.5528  20.5972  20.5973  20.6849  20.6850
    20.7098  20.7098  20.7341  20.7342  20.8259  20.8260  20.9519  20.9520
    21.4349  21.4349  21.5461  21.5461  22.2693  22.2693  22.9993  22.9994
    24.2033  24.2033

          k = 0.0556-0.4984 0.3889 ( 11380 PWs)   bands (ev):

   -66.8031 -66.8029 -66.7827 -66.7825 -66.7418 -66.7416 -66.7374 -66.7372
   -66.7316 -66.7314 -66.7303 -66.7301 -66.7013 -66.7011 -66.6867 -66.6865
   -33.0744 -33.0744 -33.0459 -33.0458 -33.0455 -33.0454 -33.0454 -33.0452
   -33.0433 -33.0431 -33.0338 -33.0337 -32.9135 -32.9135 -32.8909 -32.8907
   -32.8523 -32.8521 -32.8377 -32.8377 -32.8217 -32.8216 -32.8147 -32.8147
   -32.8105 -32.8104 -32.7957 -32.7957 -32.7819 -32.7818 -32.7415 -32.7415
   -32.6837 -32.6836 -32.6507 -32.6506 -32.6373 -32.6372 -32.6367 -32.6366
   -32.6348 -32.6348 -32.6251 -32.6250 -32.5763 -32.5762 -32.5760 -32.5759
    13.4024  13.4025  14.2698  14.2699  16.0498  16.0499  16.3123  16.3123
    16.3274  16.3275  16.3420  16.3422  16.3560  16.3560  16.4815  16.4815
    16.6985  16.6986  17.2621  17.2622  17.3056  17.3057  17.3067  17.3068
    17.3760  17.3761  17.4348  17.4349  17.8140  17.8141  17.9359  17.9359
    18.0213  18.0213  18.0229  18.0230  18.0419  18.0420  18.0863  18.0863
    18.3465  18.3465  18.3687  18.3687  18.6405  18.6405  19.2984  19.2985
    19.7191  19.7192  19.7967  19.7969  19.9743  19.9744  20.0193  20.0194
    20.0724  20.0725  20.0756  20.0757  20.0793  20.0794  20.3142  20.3143
    20.3218  20.3220  20.3478  20.3479  20.4887  20.4889  20.5401  20.5401
    20.7119  20.7120  20.7632  20.7633  20.7752  20.7753  20.8555  20.8556
    21.5621  21.5621  21.6166  21.6166  22.7494  22.7494  23.5017  23.5018
    23.7312  23.7312

          k = 0.0556-0.4984-0.5000 ( 11388 PWs)   bands (ev):

   -66.7938 -66.7936 -66.7935 -66.7934 -66.7398 -66.7396 -66.7395 -66.7394
   -66.7310 -66.7308 -66.7308 -66.7306 -66.6934 -66.6932 -66.6932 -66.6930
   -33.0635 -33.0634 -33.0633 -33.0631 -33.0439 -33.0438 -33.0437 -33.0436
   -33.0374 -33.0373 -33.0372 -33.0371 -32.8734 -32.8733 -32.8732 -32.8730
   -32.8647 -32.8646 -32.8646 -32.8644 -32.8337 -32.8336 -32.8335 -32.8333
   -32.7908 -32.7907 -32.7906 -32.7905 -32.7760 -32.7758 -32.7758 -32.7757
   -32.6658 -32.6657 -32.6656 -32.6654 -32.6342 -32.6341 -32.6340 -32.6340
   -32.6301 -32.6300 -32.6298 -32.6298 -32.5729 -32.5728 -32.5727 -32.5725
    13.8129  13.8131  13.8135  13.8135  16.2560  16.2560  16.2563  16.2563
    16.3586  16.3587  16.3590  16.3593  16.4641  16.4641  16.4643  16.4644
    16.9668  16.9669  16.9672  16.9673  17.3025  17.3027  17.3028  17.3028
    17.3504  17.3506  17.3507  17.3507  17.9071  17.9073  17.9074  17.9074
    17.9094  17.9094  17.9095  17.9096  17.9980  17.9981  17.9982  17.9984
    18.3366  18.3367  18.3367  18.3368  18.9538  18.9539  18.9539  18.9539
    19.8096  19.8098  19.8099  19.8099  20.0663  20.0664  20.0664  20.0665
    20.1011  20.1012  20.1014  20.1014  20.1976  20.1978  20.1978  20.1979
    20.2001  20.2003  20.2003  20.2005  20.4665  20.4666  20.4667  20.4668
    20.7408  20.7409  20.7410  20.7411  20.7985  20.7986  20.7986  20.7987
    21.6231  21.6233  21.6234  21.6235  23.2429  23.2430  23.2431  23.2432
    24.0121  24.0122

          k = 0.1667 0.0554 0.1667 ( 11363 PWs)   bands (ev):

   -66.8439 -66.7686 -66.7683 -66.7509 -66.7426 -66.7376 -66.7373 -66.7345
   -66.7332 -66.7330 -66.7292 -66.7286 -66.7274 -66.7184 -66.7181 -66.6565
   -33.1351 -33.1291 -33.1290 -33.1210 -33.1210 -33.1089 -32.9881 -32.9707
   -32.9634 -32.9582 -32.9579 -32.9502 -32.9468 -32.9434 -32.9183 -32.8736
   -32.8581 -32.8579 -32.8244 -32.8238 -32.8238 -32.7930 -32.7822 -32.7820
   -32.7777 -32.7731 -32.7730 -32.7622 -32.7621 -32.7596 -32.7565 -32.7496
   -32.7382 -32.7251 -32.7195 -32.7194 -32.6942 -32.6820 -32.6817 -32.6145
   -32.6021 -32.5921 -32.5921 -32.5843 -32.5843 -32.5826 -32.5744 -32.5719
    11.6810  14.7391  14.7391  15.3720  15.3982  15.5311  15.5311  15.6077
    15.6077  15.6182  15.8107  15.8225  15.8879  16.1866  16.1867  16.9728
    17.0865  17.2618  17.3113  17.3113  17.3149  17.3151  17.3325  17.3521
    17.3522  17.3809  17.4564  17.5737  17.6027  17.6132  17.8967  18.2836
    18.2837  18.4923  18.5526  18.5528  18.5787  18.6185  18.7624  18.7949
    19.0892  19.0893  19.1740  19.1742  19.2209  19.2791  19.3831  19.4682
    19.4682  19.4881  19.4883  19.6666  19.6666  19.8387  19.9284  19.9284
    20.1817  20.2881  20.2882  20.2950  20.3453  20.3454  20.3536  20.3672
    20.3960  20.5597  20.6124  20.6454  20.6456  20.6541  20.6542  20.6577
    20.6587  20.7640  20.7641  20.9852  21.0898  21.0899  21.1192  21.1194
    21.2230  21.4577  21.4883  21.6192  21.6939  22.0133  22.3627  22.3628
    22.5704  22.7336

          k = 0.1667 0.0554 0.2778 ( 11373 PWs)   bands (ev):

   -66.8373 -66.7852 -66.7660 -66.7495 -66.7478 -66.7398 -66.7364 -66.7341
   -66.7327 -66.7322 -66.7298 -66.7280 -66.7259 -66.7189 -66.7033 -66.6614
   -33.1227 -33.1120 -33.1116 -33.1057 -33.0986 -33.0798 -32.9966 -32.9944
   -32.9932 -32.9817 -32.9799 -32.9777 -32.9584 -32.9526 -32.9271 -32.9035
   -32.8621 -32.8575 -32.8204 -32.8199 -32.8157 -32.8141 -32.7947 -32.7877
   -32.7859 -32.7783 -32.7723 -32.7606 -32.7589 -32.7466 -32.7416 -32.7223
   -32.7218 -32.7061 -32.6971 -32.6873 -32.6690 -32.6522 -32.6518 -32.6448
   -32.6225 -32.6046 -32.6044 -32.5994 -32.5941 -32.5919 -32.5775 -32.5757
    11.9496  14.0797  14.8723  15.3248  15.4997  15.5688  15.7047  15.7283
    15.7567  15.7964  15.9267  15.9479  15.9577  16.2219  16.3382  16.8564
    16.9393  16.9647  17.1996  17.2770  17.2888  17.3072  17.3512  17.4169
    17.4189  17.4781  17.5639  17.6219  17.7374  17.8020  17.8025  18.1495
    18.2950  18.4130  18.4199  18.4355  18.4811  18.5335  18.5615  18.7487
    18.7669  18.9267  18.9577  19.1105  19.1710  19.2492  19.2873  19.2880
    19.3527  19.4698  19.4845  19.5376  19.5681  19.6920  19.7213  20.0571
    20.1811  20.1925  20.2349  20.2674  20.3215  20.3339  20.3718  20.4141
    20.5820  20.6014  20.6030  20.6541  20.6592  20.6837  20.6847  20.7102
    20.7520  20.8569  20.8809  20.8952  20.8977  20.9311  20.9824  21.0904
    21.1964  21.4160  21.4715  21.5305  21.6878  22.1570  22.2014  22.7566
    22.8791  23.0041

          k = 0.1667 0.0554 0.3889 ( 11355 PWs)   bands (ev):

   -66.8276 -66.8011 -66.7624 -66.7530 -66.7474 -66.7424 -66.7349 -66.7335
   -66.7326 -66.7315 -66.7312 -66.7289 -66.7232 -66.7198 -66.6898 -66.6687
   -33.1008 -33.0873 -33.0859 -33.0837 -33.0681 -33.0422 -33.0351 -33.0254
   -33.0194 -33.0179 -32.9977 -32.9921 -32.9901 -32.9519 -32.9401 -32.9041
   -32.8888 -32.8476 -32.8438 -32.8138 -32.8120 -32.8035 -32.7971 -32.7928
   -32.7853 -32.7836 -32.7687 -32.7598 -32.7594 -32.7349 -32.7251 -32.7105
   -32.6845 -32.6816 -32.6747 -32.6691 -32.6579 -32.6475 -32.6440 -32.6253
   -32.6246 -32.6227 -32.6220 -32.6216 -32.6108 -32.6046 -32.5869 -32.5863
    12.3417  13.4329  15.0285  15.2642  15.5909  15.6121  15.8205  15.9139
    15.9815  16.0030  16.0565  16.0780  16.1286  16.1853  16.3347  16.6447
    16.6473  16.6628  17.1706  17.2139  17.2315  17.2552  17.5226  17.5589
    17.5683  17.6318  17.6399  17.7830  17.8397  17.9793  18.0263  18.0879
    18.2070  18.2179  18.2809  18.2900  18.3952  18.3969  18.4366  18.4801
    18.5093  18.5431  18.6012  18.7544  18.8026  18.8028  19.0836  19.4677
    19.5141  19.6567  19.6730  19.7242  19.7261  19.7550  19.9253  19.9968
    20.0093  20.0637  20.1355  20.1959  20.3440  20.3969  20.4208  20.5000
    20.5395  20.5451  20.5473  20.6517  20.6580  20.6674  20.6713  20.7371
    20.7424  20.7774  20.8245  20.9380  20.9385  21.0484  21.0865  21.1842
    21.1857  21.1977  21.3929  21.5904  21.6547  22.0186  22.3425  22.6835
    23.0548  23.2032

          k = 0.1667 0.0554-0.5000 ( 11346 PWs)   bands (ev):

   -66.8155 -66.8153 -66.7581 -66.7579 -66.7450 -66.7448 -66.7334 -66.7332
   -66.7330 -66.7328 -66.7302 -66.7299 -66.7214 -66.7211 -66.6783 -66.6781
   -33.0710 -33.0709 -33.0565 -33.0563 -33.0561 -33.0559 -33.0535 -33.0534
   -33.0315 -33.0313 -32.9990 -32.9990 -32.9966 -32.9965 -32.9168 -32.9166
   -32.8774 -32.8773 -32.8239 -32.8238 -32.8063 -32.8061 -32.7997 -32.7996
   -32.7887 -32.7885 -32.7594 -32.7592 -32.7295 -32.7292 -32.7236 -32.7236
   -32.6773 -32.6773 -32.6505 -32.6502 -32.6465 -32.6463 -32.6435 -32.6434
   -32.6323 -32.6320 -32.6221 -32.6220 -32.6033 -32.6032 -32.6026 -32.6026
    12.8429  12.8435  15.1670  15.1673  15.6293  15.6296  15.9267  15.9270
    16.0688  16.0690  16.2294  16.2297  16.3280  16.3284  16.3568  16.3571
    16.3626  16.3632  17.1904  17.1905  17.2146  17.2148  17.7266  17.7268
    17.7439  17.7441  17.7514  17.7515  17.8334  17.8338  18.1354  18.1355
    18.1882  18.1884  18.2527  18.2529  18.3810  18.3812  18.3818  18.3819
    18.3871  18.3873  18.4287  18.4289  18.5269  18.5271  19.2648  19.2650
    19.7658  19.7661  19.7945  19.7946  19.9053  19.9055  19.9514  19.9515
    19.9929  19.9929  20.0036  20.0037  20.3349  20.3350  20.4680  20.4683
    20.4812  20.4815  20.6080  20.6082  20.6514  20.6516  20.6900  20.6902
    20.8085  20.8086  20.8988  20.8989  21.0216  21.0218  21.0892  21.0893
    21.2608  21.2610  21.4227  21.4228  21.8268  21.8269  22.5325  22.5327
    23.1903  23.1906

          k = 0.1667 0.1661 0.1667 ( 11351 PWs)   bands (ev):

   -66.8406 -66.7676 -66.7674 -66.7671 -66.7423 -66.7421 -66.7419 -66.7302
   -66.7294 -66.7291 -66.7289 -66.7267 -66.7188 -66.7186 -66.7184 -66.6589
   -33.1270 -33.1269 -33.1263 -33.1031 -33.1031 -33.1026 -32.9840 -32.9838
   -32.9814 -32.9753 -32.9752 -32.9749 -32.9278 -32.9221 -32.9220 -32.8811
   -32.8810 -32.8801 -32.8300 -32.8299 -32.8290 -32.7863 -32.7847 -32.7846
   -32.7762 -32.7751 -32.7583 -32.7581 -32.7571 -32.7540 -32.7523 -32.7522
   -32.7215 -32.7214 -32.7210 -32.7129 -32.6662 -32.6660 -32.6652 -32.6357
   -32.6058 -32.6048 -32.6048 -32.5825 -32.5813 -32.5813 -32.5779 -32.5777
    11.8151  14.8031  14.8180  14.8180  15.4781  15.4783  15.4783  15.7132
    15.7151  15.7151  15.8747  15.8825  16.2232  16.2392  16.2393  16.8890
    17.1902  17.1905  17.2824  17.2858  17.2858  17.3128  17.3373  17.3374
    17.4226  17.4466  17.4468  17.4640  17.5369  17.5509  18.1280  18.1309
    18.1309  18.4805  18.4813  18.4815  18.4913  18.4949  18.9124  18.9124
    18.9149  18.9219  19.0992  19.0992  19.1142  19.2826  19.2828  19.2829
    19.4946  19.4946  19.5154  19.5584  19.5585  19.5715  20.1289  20.1289
    20.1351  20.1974  20.1975  20.2168  20.3074  20.3278  20.3480  20.3480
    20.3692  20.6071  20.6071  20.6154  20.6352  20.6372  20.6455  20.6487
    20.7111  20.7612  20.7613  20.7618  21.0949  21.1158  21.1159  21.3188
    21.3189  21.3297  21.3454  21.3519  22.0657  22.0658  22.0699  22.7940
    22.8394  22.8394

          k = 0.1667 0.1661 0.2778 ( 11379 PWs)   bands (ev):

   -66.8342 -66.7835 -66.7651 -66.7648 -66.7473 -66.7471 -66.7410 -66.7322
   -66.7287 -66.7267 -66.7260 -66.7257 -66.7194 -66.7190 -66.7040 -66.6636
   -33.1149 -33.1143 -33.1094 -33.0909 -33.0759 -33.0756 -33.0060 -33.0030
   -33.0028 -32.9937 -32.9923 -32.9700 -32.9692 -32.9171 -32.9166 -32.9048
   -32.8990 -32.8652 -32.8381 -32.8318 -32.8303 -32.8010 -32.7982 -32.7963
   -32.7902 -32.7839 -32.7603 -32.7456 -32.7440 -32.7300 -32.7276 -32.7269
   -32.7248 -32.7239 -32.6878 -32.6875 -32.6672 -32.6440 -32.6432 -32.6397
   -32.6229 -32.6219 -32.6124 -32.5977 -32.5899 -32.5851 -32.5839 -32.5786
    12.0808  14.1753  14.9456  14.9591  15.4330  15.4347  15.6847  15.8503
    15.8515  15.8974  15.9943  16.0014  16.2826  16.2957  16.3997  16.8098
    16.9648  17.0312  17.1653  17.2939  17.2971  17.2991  17.3858  17.3928
    17.4015  17.4167  17.5655  17.5694  17.5927  17.7578  17.9855  17.9855
    18.2740  18.2985  18.3095  18.3862  18.4049  18.4681  18.6508  18.6629
    18.6652  18.6790  18.8934  19.0333  19.0495  19.0510  19.0674  19.1097
    19.4076  19.5069  19.5120  19.6530  19.6592  19.8101  19.8963  20.0874
    20.1045  20.2053  20.2639  20.2919  20.3106  20.3678  20.3783  20.3788
    20.4009  20.4027  20.5953  20.5964  20.6124  20.6367  20.6497  20.6508
    20.6616  20.8784  20.9269  20.9305  20.9576  21.0244  21.0996  21.1008
    21.1184  21.3962  21.4001  21.4100  21.8039  21.8059  22.6917  22.9971
    23.0383  23.4492

          k = 0.1667 0.1661 0.3889 ( 11380 PWs)   bands (ev):

   -66.8247 -66.7989 -66.7616 -66.7613 -66.7524 -66.7521 -66.7391 -66.7346
   -66.7280 -66.7268 -66.7236 -66.7233 -66.7203 -66.7200 -66.6910 -66.6707
   -33.0945 -33.0938 -33.0839 -33.0733 -33.0413 -33.0410 -33.0352 -33.0349
   -33.0292 -33.0126 -33.0015 -33.0015 -32.9589 -32.9587 -32.9511 -32.8976
   -32.8795 -32.8736 -32.8279 -32.8261 -32.8228 -32.8213 -32.8100 -32.8080
   -32.7931 -32.7844 -32.7698 -32.7383 -32.7370 -32.7282 -32.7272 -32.7051
   -32.6974 -32.6965 -32.6883 -32.6632 -32.6571 -32.6442 -32.6433 -32.6248
   -32.6228 -32.6219 -32.6214 -32.6166 -32.6073 -32.5925 -32.5915 -32.5855
    12.4682  13.5421  15.1146  15.1256  15.3704  15.3749  15.9746  16.0070
    16.0074  16.1452  16.1514  16.1709  16.2674  16.2753  16.4043  16.6638
    16.6642  16.6926  17.1739  17.2522  17.2875  17.3178  17.4311  17.4356
    17.5244  17.5470  17.7369  17.7573  17.8433  17.8593  17.8697  18.0201
    18.1779  18.1793  18.2524  18.2635  18.3295  18.3477  18.3546  18.3748
    18.3887  18.4368  18.5761  18.5902  18.6024  18.6178  19.2452  19.3655
    19.6088  19.6643  19.7539  19.7551  19.7569  19.7654  19.9716  19.9850
    20.0240  20.0379  20.1120  20.1707  20.1858  20.3488  20.4141  20.4694
    20.5248  20.5374  20.6195  20.6327  20.6346  20.6411  20.6767  20.7123
    20.7164  20.7317  20.7851  20.8377  21.1065  21.1125  21.1343  21.1508
    21.1610  21.3676  21.3708  21.3797  21.5488  21.5495  23.2344  23.2714
    23.3827  23.5405

          k = 0.1667 0.1661-0.5000 ( 11378 PWs)   bands (ev):

   -66.8130 -66.8128 -66.7574 -66.7572 -66.7570 -66.7568 -66.7370 -66.7368
   -66.7275 -66.7273 -66.7218 -66.7216 -66.7214 -66.7212 -66.6799 -66.6797
   -33.0670 -33.0669 -33.0665 -33.0665 -33.0524 -33.0522 -33.0513 -33.0511
   -33.0045 -33.0044 -33.0014 -33.0014 -33.0012 -33.0011 -32.9268 -32.9266
   -32.8516 -32.8515 -32.8481 -32.8479 -32.8202 -32.8199 -32.8182 -32.8180
   -32.7788 -32.7787 -32.7481 -32.7480 -32.7328 -32.7325 -32.7314 -32.7312
   -32.6690 -32.6690 -32.6683 -32.6681 -32.6519 -32.6516 -32.6421 -32.6419
   -32.6302 -32.6300 -32.6052 -32.6052 -32.6043 -32.6042 -32.5984 -32.5983
    12.9622  12.9628  15.2655  15.2659  15.2734  15.2737  16.1593  16.1597
    16.1627  16.1629  16.3025  16.3028  16.3224  16.3228  16.3954  16.3959
    16.4214  16.4217  17.2067  17.2069  17.2706  17.2708  17.6907  17.6910
    17.6913  17.6916  17.6927  17.6929  17.7124  17.7125  18.1478  18.1480
    18.1575  18.1576  18.1944  18.1946  18.2666  18.2667  18.2757  18.2758
    18.3145  18.3147  18.3206  18.3207  18.3998  18.4000  19.4448  19.4450
    19.6769  19.6769  19.8317  19.8320  19.8584  19.8586  19.8666  19.8666
    19.9868  19.9870  19.9986  19.9987  20.4391  20.4393  20.4450  20.4452
    20.4736  20.4739  20.5805  20.5807  20.6265  20.6267  20.7319  20.7320
    20.7343  20.7344  20.7490  20.7491  21.2641  21.2641  21.2717  21.2718
    21.2756  21.2758  21.3099  21.3100  21.3120  21.3121  23.4417  23.4419
    23.4747  23.4750

          k = 0.1667 0.2769 0.1667 ( 11379 PWs)   bands (ev):

   -66.8342 -66.7838 -66.7649 -66.7647 -66.7474 -66.7472 -66.7407 -66.7322
   -66.7284 -66.7266 -66.7261 -66.7259 -66.7192 -66.7190 -66.7043 -66.6637
   -33.1151 -33.1150 -33.1089 -33.0904 -33.0761 -33.0761 -33.0061 -33.0038
   -33.0036 -32.9953 -32.9923 -32.9693 -32.9683 -32.9174 -32.9173 -32.9049
   -32.8988 -32.8641 -32.8375 -32.8308 -32.8306 -32.8023 -32.7964 -32.7962
   -32.7894 -32.7834 -32.7613 -32.7441 -32.7440 -32.7309 -32.7278 -32.7277
   -32.7239 -32.7239 -32.6877 -32.6875 -32.6671 -32.6442 -32.6440 -32.6389
   -32.6221 -32.6221 -32.6135 -32.5986 -32.5897 -32.5842 -32.5841 -32.5784
    12.0792  14.1625  14.9578  14.9578  15.4336  15.4336  15.6830  15.8519
    15.8520  15.8939  15.9922  16.0008  16.2949  16.2949  16.3844  16.8055
    16.9632  17.0215  17.1604  17.2773  17.2961  17.2961  17.3648  17.3917
    17.4161  17.4163  17.5789  17.5917  17.5918  17.7705  17.9883  17.9883
    18.2729  18.3034  18.3036  18.3953  18.4140  18.4583  18.6591  18.6592
    18.6663  18.6663  18.9089  19.0341  19.0342  19.0687  19.0714  19.1189
    19.4014  19.5032  19.5033  19.6464  19.6464  19.8242  19.9038  20.0878
    20.0879  20.1907  20.2803  20.2889  20.2890  20.3814  20.3871  20.3900
    20.4013  20.4013  20.5922  20.5947  20.6207  20.6437  20.6573  20.6574
    20.6594  20.8650  20.9294  20.9295  20.9568  21.0359  21.1071  21.1179
    21.1180  21.3915  21.4021  21.4022  21.8025  21.8026  22.6964  23.0356
    23.0356  23.4542

          k = 0.1667 0.2769 0.2778 ( 11376 PWs)   bands (ev):

   -66.8280 -66.7804 -66.7801 -66.7625 -66.7550 -66.7457 -66.7455 -66.7350
   -66.7259 -66.7257 -66.7255 -66.7202 -66.7196 -66.7058 -66.7055 -66.6681
   -33.1085 -33.0986 -33.0979 -33.0679 -33.0675 -33.0450 -33.0185 -33.0167
   -33.0165 -33.0162 -33.0021 -32.9787 -32.9656 -32.9415 -32.9102 -32.8786
   -32.8758 -32.8752 -32.8652 -32.8648 -32.8420 -32.8173 -32.8158 -32.8144
   -32.7687 -32.7588 -32.7578 -32.7513 -32.7503 -32.7290 -32.7286 -32.7136
   -32.7033 -32.7009 -32.6910 -32.6909 -32.6689 -32.6432 -32.6321 -32.6250
   -32.6243 -32.6215 -32.6206 -32.5997 -32.5988 -32.5971 -32.5810 -32.5786
    12.3386  14.3436  14.3540  15.1150  15.2776  15.6469  15.6474  16.0110
    16.0272  16.0303  16.1002  16.1250  16.3995  16.4524  16.4646  16.7784
    16.9601  17.0163  17.0174  17.2222  17.2439  17.3502  17.3709  17.4385
    17.4521  17.4707  17.4809  17.4992  17.7438  17.7564  17.8309  18.0988
    18.1022  18.1946  18.2402  18.2485  18.3020  18.3217  18.4028  18.4709
    18.5286  18.5412  18.6754  18.6919  18.7465  18.8164  18.8209  19.2569
    19.6065  19.6085  19.6443  19.7661  19.8376  19.8503  19.9807  20.0259
    20.1750  20.1842  20.1883  20.1890  20.1988  20.2726  20.3094  20.3289
    20.3594  20.5613  20.5631  20.5652  20.5962  20.6284  20.6361  20.6390
    20.6549  20.8313  20.8432  20.9543  20.9822  21.0959  21.0984  21.1150
    21.1237  21.2109  21.3839  21.4841  21.4869  22.3502  22.3536  23.3070
    24.0404  24.0884

          k = 0.1667 0.2769 0.3889 ( 11373 PWs)   bands (ev):

   -66.8192 -66.7947 -66.7755 -66.7625 -66.7591 -66.7503 -66.7435 -66.7379
   -66.7255 -66.7253 -66.7232 -66.7203 -66.7153 -66.7080 -66.6934 -66.6746
   -33.0933 -33.0802 -33.0747 -33.0569 -33.0441 -33.0385 -33.0358 -33.0311
   -33.0218 -33.0127 -33.0105 -33.0067 -32.9724 -32.9492 -32.9188 -32.8973
   -32.8932 -32.8582 -32.8503 -32.8453 -32.8409 -32.8316 -32.8310 -32.8306
   -32.7898 -32.7669 -32.7577 -32.7435 -32.7411 -32.7331 -32.7260 -32.7161
   -32.6967 -32.6804 -32.6794 -32.6678 -32.6609 -32.6523 -32.6397 -32.6295
   -32.6204 -32.6203 -32.6134 -32.6038 -32.6036 -32.6030 -32.5833 -32.5814
    12.7157  13.7518  14.5830  15.0820  15.3042  15.5875  15.9476  16.1748
    16.1830  16.2405  16.2686  16.2996  16.4305  16.4339  16.4820  16.6776
    16.7054  16.7503  17.2029  17.2290  17.3053  17.3152  17.3518  17.3986
    17.4640  17.5767  17.5822  17.6295  17.7110  17.8602  17.8943  17.9100
    18.0179  18.0778  18.1438  18.1752  18.2019  18.2317  18.2512  18.2674
    18.2917  18.3227  18.3352  18.3537  18.4345  18.5219  19.0346  19.4676
    19.6627  19.7660  19.8299  19.8383  19.8420  19.8803  19.8965  19.9417
    20.0893  20.0922  20.0994  20.1909  20.2076  20.2830  20.3598  20.4216
    20.4755  20.4922  20.4988  20.5773  20.6269  20.6293  20.6656  20.6859
    20.6882  20.7026  20.7039  20.8030  20.9023  21.0134  21.1319  21.1890
    21.2425  21.2573  21.3915  21.4183  21.4781  22.0282  22.9589  23.6241
    24.1207  24.2313

          k = 0.1667 0.2769-0.5000 ( 11378 PWs)   bands (ev):

   -66.8080 -66.8078 -66.7695 -66.7693 -66.7551 -66.7549 -66.7409 -66.7407
   -66.7254 -66.7252 -66.7216 -66.7214 -66.7113 -66.7111 -66.6831 -66.6829
   -33.0710 -33.0709 -33.0584 -33.0584 -33.0448 -33.0446 -33.0442 -33.0440
   -33.0201 -33.0200 -33.0060 -33.0059 -32.9638 -32.9637 -32.9258 -32.9256
   -32.8681 -32.8680 -32.8467 -32.8465 -32.8409 -32.8407 -32.8202 -32.8201
   -32.7855 -32.7854 -32.7637 -32.7636 -32.7380 -32.7378 -32.7055 -32.7053
   -32.6956 -32.6955 -32.6580 -32.6580 -32.6482 -32.6480 -32.6389 -32.6387
   -32.6349 -32.6347 -32.6106 -32.6105 -32.5910 -32.5908 -32.5897 -32.5896
    13.1943  13.1948  14.8424  14.8428  15.4741  15.4744  16.3065  16.3069
    16.3258  16.3261  16.3360  16.3362  16.3866  16.3870  16.5089  16.5093
    16.5201  16.5204  17.2621  17.2622  17.3306  17.3308  17.4990  17.4993
    17.5125  17.5128  17.5955  17.5957  17.7275  17.7276  17.9331  17.9333
    18.0964  18.0965  18.1119  18.1122  18.1142  18.1144  18.1719  18.1720
    18.2324  18.2325  18.2413  18.2413  18.3013  18.3014  19.3229  19.3229
    19.6969  19.6970  19.8499  19.8500  19.9419  19.9421  19.9865  19.9865
    20.0341  20.0342  20.0367  20.0368  20.3912  20.3914  20.3937  20.3939
    20.4270  20.4273  20.5308  20.5310  20.6092  20.6094  20.6273  20.6275
    20.7174  20.7176  20.7656  20.7657  20.9157  20.9157  21.0840  21.0841
    21.3444  21.3446  21.3948  21.3949  21.7098  21.7100  23.5909  23.5912
    23.9208  23.9211

          k = 0.1667 0.3877 0.1667 ( 11372 PWs)   bands (ev):

   -66.8249 -66.7991 -66.7615 -66.7613 -66.7524 -66.7522 -66.7389 -66.7345
   -66.7278 -66.7267 -66.7236 -66.7234 -66.7202 -66.7199 -66.6912 -66.6708
   -33.0948 -33.0947 -33.0835 -33.0731 -33.0416 -33.0416 -33.0359 -33.0358
   -33.0292 -33.0124 -33.0028 -33.0019 -32.9595 -32.9595 -32.9495 -32.8964
   -32.8793 -32.8737 -32.8262 -32.8261 -32.8239 -32.8207 -32.8080 -32.8079
   -32.7924 -32.7840 -32.7704 -32.7370 -32.7370 -32.7271 -32.7270 -32.7050
   -32.6974 -32.6974 -32.6892 -32.6635 -32.6568 -32.6437 -32.6436 -32.6257
   -32.6228 -32.6226 -32.6224 -32.6159 -32.6072 -32.5919 -32.5918 -32.5851
    12.4641  13.5322  15.1230  15.1231  15.3725  15.3725  15.9705  16.0085
    16.0085  16.1396  16.1421  16.1742  16.2746  16.2747  16.3904  16.6568
    16.6640  16.6838  17.1644  17.2340  17.2775  17.3008  17.4328  17.4329
    17.5460  17.5461  17.7541  17.7542  17.8591  17.8710  17.8711  18.0346
    18.1773  18.1774  18.2567  18.2567  18.3410  18.3501  18.3560  18.3880
    18.3881  18.4295  18.5783  18.5784  18.6207  18.6336  19.2515  19.3741
    19.5985  19.6721  19.7452  19.7452  19.7515  19.7516  19.9707  19.9707
    20.0236  20.0293  20.1259  20.1653  20.1654  20.3610  20.4295  20.4764
    20.5271  20.5420  20.6274  20.6401  20.6414  20.6414  20.6865  20.7066
    20.7301  20.7302  20.7954  20.8488  21.1105  21.1106  21.1324  21.1595
    21.1596  21.3636  21.3739  21.3740  21.5465  21.5465  23.2652  23.2653
    23.3869  23.5546

          k = 0.1667 0.3877 0.2778 ( 11379 PWs)   bands (ev):

   -66.8192 -66.7948 -66.7753 -66.7624 -66.7592 -66.7505 -66.7433 -66.7379
   -66.7254 -66.7252 -66.7234 -66.7203 -66.7153 -66.7079 -66.6936 -66.6746
   -33.0935 -33.0811 -33.0743 -33.0566 -33.0445 -33.0393 -33.0362 -33.0312
   -33.0218 -33.0131 -33.0105 -33.0070 -32.9727 -32.9487 -32.9195 -32.8967
   -32.8936 -32.8582 -32.8501 -32.8443 -32.8420 -32.8316 -32.8304 -32.8293
   -32.7890 -32.7669 -32.7582 -32.7426 -32.7409 -32.7325 -32.7266 -32.7161
   -32.6967 -32.6810 -32.6793 -32.6681 -32.6609 -32.6526 -32.6392 -32.6301
   -32.6211 -32.6203 -32.6132 -32.6045 -32.6031 -32.6025 -32.5837 -32.5812
    12.7134  13.7438  14.5904  15.0835  15.3029  15.5865  15.9451  16.1758
    16.1855  16.2368  16.2636  16.3000  16.4309  16.4406  16.4712  16.6729
    16.7011  16.7507  17.2044  17.2198  17.2981  17.3036  17.3447  17.3848
    17.4825  17.5763  17.5936  17.6420  17.7171  17.8559  17.9038  17.9111
    18.0228  18.0767  18.1419  18.1717  18.1964  18.2328  18.2578  18.2733
    18.3078  18.3104  18.3476  18.3541  18.4352  18.5205  19.0393  19.4702
    19.6650  19.7594  19.8286  19.8316  19.8340  19.8757  19.8957  19.9469
    20.0780  20.0909  20.1040  20.1868  20.1910  20.2934  20.3754  20.4263
    20.4774  20.4942  20.5034  20.5864  20.6285  20.6317  20.6601  20.6849
    20.6924  20.7027  20.7096  20.8096  20.9101  21.0119  21.1260  21.1868
    21.2400  21.2599  21.3892  21.4174  21.4791  22.0254  22.9616  23.6209
    24.1100  24.2320

          k = 0.1667 0.3877 0.3889 ( 11378 PWs)   bands (ev):

   -66.8110 -66.7887 -66.7885 -66.7721 -66.7560 -66.7480 -66.7478 -66.7414
   -66.7243 -66.7235 -66.7234 -66.7210 -66.7081 -66.6972 -66.6971 -66.6803
   -33.0837 -33.0621 -33.0616 -33.0453 -33.0450 -33.0403 -33.0363 -33.0361
   -33.0326 -33.0272 -33.0205 -32.9913 -32.9659 -32.9355 -32.8943 -32.8883
   -32.8880 -32.8750 -32.8745 -32.8579 -32.8558 -32.8547 -32.8537 -32.8193
   -32.7834 -32.7595 -32.7570 -32.7565 -32.7496 -32.7490 -32.7381 -32.6974
   -32.6955 -32.6695 -32.6693 -32.6621 -32.6619 -32.6437 -32.6374 -32.6369
   -32.6269 -32.6198 -32.6192 -32.6186 -32.5908 -32.5902 -32.5804 -32.5791
    13.0733  14.0381  14.0435  14.7469  15.5284  15.8815  15.8823  16.3171
    16.3371  16.4114  16.4153  16.4786  16.4840  16.4948  16.5196  16.5677
    16.7263  16.9631  16.9642  17.2290  17.2897  17.3347  17.3924  17.4070
    17.4256  17.4323  17.5768  17.5878  17.5906  17.6559  17.8619  17.9463
    17.9471  17.9507  18.0125  18.0246  18.0868  18.0922  18.1065  18.1388
    18.1666  18.1931  18.1965  18.2820  18.2907  18.7120  18.7140  19.3039
    19.7150  19.8712  19.9374  19.9401  19.9670  19.9988  20.0056  20.0074
    20.1234  20.1845  20.2058  20.2133  20.2445  20.2466  20.2548  20.2664
    20.4060  20.4293  20.4294  20.4852  20.5134  20.5997  20.6039  20.6345
    20.6621  20.6627  20.7122  20.7213  20.8708  20.9269  20.9317  20.9513
    21.3693  21.3709  21.4312  21.5086  21.7706  22.5554  22.5571  23.6636
    24.0321  24.7467

          k = 0.1667 0.3877-0.5000 ( 11372 PWs)   bands (ev):

   -66.8008 -66.8006 -66.7811 -66.7809 -66.7522 -66.7520 -66.7449 -66.7447
   -66.7238 -66.7236 -66.7220 -66.7218 -66.7022 -66.7020 -66.6879 -66.6877
   -33.0670 -33.0669 -33.0491 -33.0490 -33.0404 -33.0402 -33.0389 -33.0388
   -33.0339 -33.0338 -33.0133 -33.0132 -32.9210 -32.9208 -32.9144 -32.9142
   -32.8784 -32.8783 -32.8732 -32.8730 -32.8619 -32.8617 -32.8291 -32.8290
   -32.7878 -32.7877 -32.7547 -32.7546 -32.7434 -32.7432 -32.7252 -32.7251
   -32.6821 -32.6819 -32.6479 -32.6478 -32.6461 -32.6459 -32.6397 -32.6395
   -32.6384 -32.6383 -32.6186 -32.6185 -32.5829 -32.5827 -32.5824 -32.5822
    13.5253  13.5258  14.3852  14.3856  15.7402  15.7406  16.2194  16.2198
    16.4213  16.4217  16.4328  16.4333  16.5459  16.5461  16.6320  16.6323
    16.7231  16.7235  17.2601  17.2604  17.3232  17.3234  17.3273  17.3274
    17.3391  17.3392  17.4910  17.4912  17.7432  17.7434  17.7808  17.7809
    17.8981  17.8982  17.9551  17.9553  18.0090  18.0090  18.0366  18.0368
    18.1973  18.1974  18.2345  18.2346  18.4187  18.4187  18.9774  18.9774
    19.9120  19.9122  19.9716  19.9717  20.0618  20.0619  20.0950  20.0952
    20.1199  20.1200  20.1223  20.1224  20.2282  20.2283  20.3294  20.3296
    20.3403  20.3405  20.4750  20.4752  20.5027  20.5029  20.5887  20.5888
    20.6466  20.6468  20.6942  20.6944  20.7943  20.7944  20.9339  20.9341
    21.4299  21.4300  21.4680  21.4680  22.1593  22.1594  23.1057  23.1059
    24.4337  24.4339

          k = 0.1667-0.4984 0.1667 ( 11376 PWs)   bands (ev):

   -66.8131 -66.8129 -66.7572 -66.7572 -66.7572 -66.7568 -66.7368 -66.7366
   -66.7273 -66.7271 -66.7216 -66.7216 -66.7215 -66.7212 -66.6801 -66.6799
   -33.0676 -33.0676 -33.0675 -33.0675 -33.0523 -33.0521 -33.0511 -33.0509
   -33.0053 -33.0053 -33.0020 -33.0019 -33.0019 -33.0019 -32.9252 -32.9250
   -32.8511 -32.8510 -32.8486 -32.8485 -32.8182 -32.8181 -32.8180 -32.8179
   -32.7788 -32.7788 -32.7476 -32.7476 -32.7314 -32.7313 -32.7312 -32.7312
   -32.6690 -32.6690 -32.6689 -32.6689 -32.6527 -32.6526 -32.6427 -32.6426
   -32.6300 -32.6298 -32.6049 -32.6049 -32.6047 -32.6047 -32.5979 -32.5979
    12.9556  12.9557  15.2705  15.2705  15.2706  15.2706  16.1630  16.1630
    16.1630  16.1631  16.2907  16.2908  16.3159  16.3160  16.3976  16.3978
    16.4142  16.4142  17.1927  17.1928  17.2578  17.2579  17.6896  17.6897
    17.6897  17.6898  17.7115  17.7116  17.7116  17.7117  18.1605  18.1605
    18.1605  18.1606  18.2117  18.2118  18.2685  18.2686  18.2686  18.2687
    18.3293  18.3295  18.3300  18.3300  18.3952  18.3952  19.4524  19.4526
    19.6843  19.6843  19.8187  19.8189  19.8544  19.8544  19.8545  19.8546
    19.9809  19.9809  19.9810  19.9810  20.4468  20.4470  20.4576  20.4577
[...]
   -32.9169 -32.9169 -32.9044 -32.9042 -32.8986 -32.8985 -32.8538 -32.8537
   -32.7598 -32.7597 -32.7175 -32.7174 -32.7069 -32.7068 -32.7045 -32.7044
   -32.6791 -32.6789 -32.6636 -32.6635 -32.6435 -32.6434 -32.6433 -32.6431
   -32.6401 -32.6398 -32.6146 -32.6144 -32.5965 -32.5965 -32.5941 -32.5940
    13.7612  13.7617  14.6192  14.6196  15.3615  15.3620  16.0108  16.0113
    16.5950  16.5954  16.6045  16.6048  16.7483  16.7486  16.7745  16.7749
    16.8117  16.8119  17.2620  17.2624  17.2858  17.2861  17.3669  17.3672
    17.3823  17.3824  17.5659  17.5661  17.5778  17.5779  17.7038  17.7040
    17.7553  17.7555  17.7861  17.7862  17.8995  17.8996  17.9342  17.9344
    17.9839  17.9840  18.0594  18.0595  18.1074  18.1075  18.5978  18.5978
    20.1343  20.1346  20.1495  20.1495  20.1640  20.1641  20.1736  20.1739
    20.2193  20.2195  20.2558  20.2559  20.3728  20.3731  20.3926  20.3929
    20.4450  20.4452  20.4719  20.4720  20.5138  20.5140  20.5588  20.5590
    20.5894  20.5897  20.7871  20.7872  20.8999  20.9000  20.9727  20.9727
    21.2222  21.2223  21.2434  21.2435  21.6895  21.6896  22.5873  22.5875
    25.4860  25.4862

          k = 0.3889 0.3877 0.3889 ( 11404 PWs)   bands (ev):

   -66.7990 -66.7796 -66.7796 -66.7794 -66.7652 -66.7651 -66.7649 -66.7541
   -66.7161 -66.7109 -66.7107 -66.7106 -66.7019 -66.7019 -66.7017 -66.6880
   -33.0442 -33.0441 -33.0435 -33.0304 -33.0301 -33.0298 -33.0122 -32.9919
   -32.9901 -32.9854 -32.9852 -32.9851 -32.9782 -32.9774 -32.9322 -32.9321
   -32.9312 -32.9241 -32.9239 -32.9238 -32.9170 -32.9158 -32.9156 -32.8470
   -32.7599 -32.7063 -32.7062 -32.7057 -32.6923 -32.6922 -32.6919 -32.6795
   -32.6788 -32.6669 -32.6666 -32.6666 -32.6648 -32.6644 -32.6643 -32.6458
   -32.6180 -32.6172 -32.6172 -32.6121 -32.6118 -32.6079 -32.6076 -32.6070
    13.6614  14.5690  14.5735  14.5736  15.3047  15.3048  15.3070  16.0896
    16.6682  16.6758  16.7403  16.7449  16.7449  16.9083  16.9149  16.9149
    16.9392  16.9392  16.9426  17.0308  17.3748  17.3847  17.4424  17.4543
    17.5153  17.5303  17.5304  17.5421  17.5421  17.5519  17.6307  17.6377
    17.6378  17.7526  17.7527  17.7634  17.7834  17.7866  17.7867  17.8171
    17.8172  17.8252  17.9625  17.9768  18.0722  18.0722  18.0732  18.5445
    20.1252  20.1308  20.1309  20.2643  20.2921  20.2930  20.2958  20.2959
    20.2983  20.2984  20.3039  20.3102  20.3575  20.3576  20.3695  20.4746
    20.4759  20.5045  20.5045  20.5048  20.5174  20.5252  20.5253  20.5977
    20.6114  20.9039  20.9172  20.9212  20.9212  20.9258  20.9948  20.9949
    21.0049  21.0372  21.0497  21.0499  21.6705  21.6713  21.6713  22.6038
    26.3338  26.3773

          k = 0.3889 0.3877-0.5000 ( 11406 PWs)   bands (ev):

   -66.7900 -66.7898 -66.7730 -66.7729 -66.7727 -66.7726 -66.7601 -66.7599
   -66.7132 -66.7130 -66.7060 -66.7058 -66.7057 -66.7056 -66.6943 -66.6941
   -33.0330 -33.0328 -33.0322 -33.0321 -33.0140 -33.0138 -33.0134 -33.0133
   -32.9986 -32.9984 -32.9644 -32.9642 -32.9547 -32.9546 -32.9546 -32.9544
   -32.9481 -32.9480 -32.9339 -32.9338 -32.9325 -32.9324 -32.8853 -32.8852
   -32.7322 -32.7321 -32.6868 -32.6867 -32.6839 -32.6838 -32.6835 -32.6833
   -32.6746 -32.6745 -32.6744 -32.6742 -32.6531 -32.6530 -32.6455 -32.6453
   -32.6368 -32.6366 -32.6148 -32.6148 -32.6142 -32.6140 -32.6080 -32.6080
    14.0912  14.0917  14.9330  14.9335  14.9366  14.9370  15.6944  15.6948
    16.7965  16.7969  16.8492  16.8496  16.8578  16.8580  16.8612  16.8616
    17.0040  17.0043  17.2310  17.2313  17.2361  17.2365  17.4084  17.4085
    17.4534  17.4536  17.4992  17.4995  17.5214  17.5216  17.6310  17.6311
    17.6417  17.6418  17.7522  17.7523  17.7581  17.7582  17.8109  17.8111
    17.8125  17.8125  17.8561  17.8562  17.8855  17.8857  18.2389  18.2389
    20.2205  20.2207  20.2340  20.2342  20.2422  20.2424  20.3603  20.3603
    20.3695  20.3697  20.3839  20.3842  20.4098  20.4101  20.4754  20.4756
    20.4925  20.4927  20.4945  20.4947  20.4989  20.4991  20.5808  20.5809
    20.6172  20.6173  20.7703  20.7704  20.9881  20.9881  21.0015  21.0016
    21.0184  21.0185  21.2869  21.2871  21.2893  21.2894  22.1292  22.1293
    26.6517  26.6548

          k = 0.3889-0.4984 0.3889 ( 11398 PWs)   bands (ev):

   -66.7901 -66.7899 -66.7730 -66.7729 -66.7729 -66.7725 -66.7600 -66.7598
   -66.7131 -66.7129 -66.7059 -66.7059 -66.7058 -66.7055 -66.6943 -66.6942
   -33.0330 -33.0329 -33.0328 -33.0327 -33.0141 -33.0141 -33.0134 -33.0132
   -32.9986 -32.9984 -32.9633 -32.9631 -32.9547 -32.9547 -32.9547 -32.9545
   -32.9489 -32.9488 -32.9329 -32.9328 -32.9327 -32.9326 -32.8853 -32.8852
   -32.7318 -32.7318 -32.6865 -32.6864 -32.6838 -32.6837 -32.6837 -32.6836
   -32.6744 -32.6744 -32.6743 -32.6742 -32.6533 -32.6532 -32.6460 -32.6458
   -32.6370 -32.6368 -32.6145 -32.6145 -32.6144 -32.6143 -32.6075 -32.6075
    14.0890  14.0891  14.9351  14.9351  14.9352  14.9353  15.6949  15.6950
    16.8015  16.8016  16.8418  16.8419  16.8630  16.8631  16.8631  16.8632
    16.9983  16.9983  17.2281  17.2281  17.2281  17.2283  17.4043  17.4044
    17.4424  17.4425  17.5084  17.5084  17.5313  17.5314  17.6456  17.6456
    17.6456  17.6458  17.7462  17.7463  17.7463  17.7464  17.8149  17.8149
    17.8150  17.8150  17.8680  17.8682  17.8763  17.8763  18.2406  18.2407
    20.2135  20.2136  20.2351  20.2351  20.2352  20.2352  20.3630  20.3631
    20.3631  20.3632  20.3901  20.3903  20.4099  20.4101  20.4690  20.4692
    20.4932  20.4932  20.5003  20.5004  20.5004  20.5005  20.5836  20.5838
    20.6289  20.6289  20.7810  20.7811  20.9957  20.9958  20.9958  20.9959
    21.0072  21.0072  21.2873  21.2873  21.2873  21.2874  22.1289  22.1289
    26.6803  26.6803

          k = 0.3889-0.4984-0.5000 ( 11404 PWs)   bands (ev):

   -66.7822 -66.7820 -66.7820 -66.7818 -66.7670 -66.7668 -66.7667 -66.7666
   -66.7092 -66.7090 -66.7089 -66.7088 -66.6997 -66.6994 -66.6994 -66.6992
   -33.0181 -33.0180 -33.0179 -33.0177 -33.0135 -33.0134 -33.0133 -33.0131
   -32.9766 -32.9764 -32.9764 -32.9763 -32.9592 -32.9591 -32.9590 -32.9588
   -32.9553 -32.9552 -32.9550 -32.9549 -32.9200 -32.9199 -32.9198 -32.9198
   -32.7067 -32.7065 -32.7064 -32.7064 -32.6729 -32.6728 -32.6727 -32.6725
   -32.6666 -32.6665 -32.6664 -32.6664 -32.6486 -32.6485 -32.6484 -32.6483
   -32.6353 -32.6352 -32.6351 -32.6351 -32.6146 -32.6145 -32.6144 -32.6142
    14.4940  14.4941  14.4945  14.4946  15.3127  15.3129  15.3132  15.3133
    16.8651  16.8652  16.8654  16.8657  17.0640  17.0641  17.0643  17.0644
    17.1488  17.1489  17.1491  17.1492  17.1675  17.1676  17.1678  17.1679
    17.5576  17.5578  17.5579  17.5579  17.5744  17.5744  17.5745  17.5747
    17.5757  17.5758  17.5758  17.5759  17.7367  17.7368  17.7370  17.7370
    17.7935  17.7936  17.7936  17.7937  17.9440  17.9441  17.9441  17.9441
    20.2696  20.2697  20.2699  20.2699  20.3289  20.3290  20.3291  20.3292
    20.4135  20.4136  20.4137  20.4138  20.4818  20.4818  20.4821  20.4821
    20.4923  20.4924  20.4925  20.4926  20.5469  20.5470  20.5471  20.5471
    20.8163  20.8164  20.8165  20.8165  20.9252  20.9253  20.9253  20.9254
    20.9668  20.9669  20.9670  20.9671  21.6999  21.6999  21.7000  21.7001
    27.2354  27.2356

          k =-0.5000 0.0554-0.5000 ( 11412 PWs)   bands (ev):

   -66.7936 -66.7935 -66.7933 -66.7932 -66.7400 -66.7399 -66.7397 -66.7396
   -66.7312 -66.7311 -66.7309 -66.7308 -66.6932 -66.6931 -66.6930 -66.6928
   -33.0622 -33.0622 -33.0619 -33.0619 -33.0437 -33.0436 -33.0435 -33.0434
   -33.0373 -33.0371 -33.0371 -33.0370 -32.8762 -32.8761 -32.8760 -32.8757
   -32.8644 -32.8643 -32.8641 -32.8641 -32.8336 -32.8336 -32.8333 -32.8333
   -32.7910 -32.7910 -32.7906 -32.7906 -32.7756 -32.7756 -32.7754 -32.7754
   -32.6669 -32.6666 -32.6666 -32.6663 -32.6337 -32.6335 -32.6334 -32.6334
   -32.6294 -32.6292 -32.6292 -32.6291 -32.5734 -32.5733 -32.5730 -32.5730
    13.8194  13.8197  13.8199  13.8203  16.2588  16.2590  16.2591  16.2593
    16.3591  16.3592  16.3593  16.3596  16.4680  16.4682  16.4683  16.4684
    16.9754  16.9756  16.9757  16.9763  17.3061  17.3063  17.3063  17.3065
    17.3524  17.3526  17.3527  17.3528  17.8878  17.8880  17.8881  17.8881
    17.9062  17.9062  17.9063  17.9064  17.9916  17.9916  17.9917  17.9919
    18.3477  18.3477  18.3478  18.3479  18.9363  18.9364  18.9364  18.9365
    19.8142  19.8142  19.8143  19.8145  20.0627  20.0629  20.0629  20.0629
    20.1205  20.1205  20.1206  20.1209  20.2027  20.2028  20.2028  20.2031
    20.2031  20.2032  20.2032  20.2034  20.4623  20.4623  20.4625  20.4628
    20.7182  20.7183  20.7184  20.7185  20.7759  20.7759  20.7760  20.7760
    21.6267  21.6267  21.6269  21.6269  23.2385  23.2386  23.2386  23.2388
    24.0005  24.0007

          k =-0.5000 0.1661-0.5000 ( 11376 PWs)   bands (ev):

   -66.7916 -66.7915 -66.7913 -66.7912 -66.7490 -66.7490 -66.7488 -66.7486
   -66.7230 -66.7229 -66.7227 -66.7225 -66.6942 -66.6942 -66.6940 -66.6938
   -33.0545 -33.0545 -33.0541 -33.0541 -33.0419 -33.0418 -33.0417 -33.0416
   -33.0228 -33.0226 -33.0226 -33.0225 -32.8985 -32.8984 -32.8983 -32.8981
   -32.8759 -32.8759 -32.8756 -32.8756 -32.8751 -32.8751 -32.8748 -32.8748
   -32.7560 -32.7560 -32.7558 -32.7558 -32.7490 -32.7490 -32.7487 -32.7487
   -32.6629 -32.6627 -32.6627 -32.6624 -32.6408 -32.6406 -32.6406 -32.6405
   -32.6283 -32.6281 -32.6281 -32.6280 -32.5805 -32.5805 -32.5801 -32.5801
    13.9385  13.9389  13.9390  13.9394  16.0168  16.0171  16.0172  16.0174
    16.4503  16.4504  16.4505  16.4508  16.6817  16.6819  16.6819  16.6821
    16.9933  16.9935  16.9936  16.9942  17.2639  17.2641  17.2642  17.2644
    17.4081  17.4084  17.4084  17.4085  17.7474  17.7474  17.7476  17.7476
    17.8570  17.8572  17.8573  17.8573  17.9464  17.9464  17.9464  17.9466
    18.2069  18.2069  18.2070  18.2071  18.6581  18.6582  18.6582  18.6582
    20.0463  20.0463  20.0464  20.0465  20.1351  20.1352  20.1353  20.1355
    20.2321  20.2322  20.2323  20.2326  20.2463  20.2464  20.2465  20.2467
    20.2682  20.2683  20.2683  20.2684  20.4540  20.4540  20.4542  20.4545
    20.6522  20.6523  20.6524  20.6526  20.8213  20.8213  20.8214  20.8214
    21.4838  21.4838  21.4840  21.4840  22.6291  22.6292  22.6292  22.6294
    24.9313  24.9316

          k =-0.5000 0.2769-0.5000 ( 11388 PWs)   bands (ev):

   -66.7877 -66.7876 -66.7874 -66.7873 -66.7582 -66.7582 -66.7580 -66.7578
   -66.7156 -66.7155 -66.7153 -66.7151 -66.6964 -66.6963 -66.6961 -66.6959
   -33.0393 -33.0393 -33.0390 -33.0389 -33.0316 -33.0315 -33.0314 -33.0313
   -33.0021 -33.0019 -33.0019 -33.0018 -32.9291 -32.9289 -32.9289 -32.9287
   -32.9167 -32.9167 -32.9163 -32.9163 -32.8944 -32.8943 -32.8942 -32.8942
   -32.7312 -32.7311 -32.7310 -32.7310 -32.7097 -32.7097 -32.7093 -32.7093
   -32.6563 -32.6561 -32.6561 -32.6558 -32.6517 -32.6515 -32.6515 -32.6514
   -32.6304 -32.6302 -32.6302 -32.6301 -32.5944 -32.5944 -32.5941 -32.5941
    14.1694  14.1697  14.1699  14.1703  15.7017  15.7020  15.7021  15.7025
    16.6240  16.6241  16.6242  16.6245  16.9171  16.9173  16.9174  16.9175
    17.0266  17.0268  17.0269  17.0274  17.2204  17.2206  17.2207  17.2210
    17.4753  17.4756  17.4756  17.4757  17.6158  17.6158  17.6160  17.6160
    17.7799  17.7799  17.7799  17.7801  17.7999  17.8002  17.8002  17.8002
    18.0028  18.0028  18.0029  18.0029  18.3011  18.3012  18.3012  18.3012
    20.1968  20.1969  20.1970  20.1972  20.2769  20.2769  20.2770  20.2773
    20.3114  20.3114  20.3115  20.3116  20.3446  20.3448  20.3448  20.3449
    20.4370  20.4370  20.4372  20.4375  20.5690  20.5691  20.5691  20.5692
    20.5717  20.5718  20.5719  20.5721  20.8371  20.8371  20.8371  20.8372
    21.2472  21.2472  21.2473  21.2473  22.1316  22.1317  22.1317  22.1319
    26.0156  26.0158

          k =-0.5000 0.3877-0.5000 ( 11400 PWs)   bands (ev):

   -66.7822 -66.7821 -66.7819 -66.7818 -66.7670 -66.7670 -66.7668 -66.7666
   -66.7092 -66.7091 -66.7089 -66.7087 -66.6996 -66.6995 -66.6993 -66.6991
   -33.0171 -33.0171 -33.0167 -33.0167 -33.0139 -33.0137 -33.0137 -33.0136
   -32.9765 -32.9763 -32.9763 -32.9762 -32.9604 -32.9603 -32.9602 -32.9601
   -32.9545 -32.9545 -32.9542 -32.9542 -32.9200 -32.9199 -32.9198 -32.9198
   -32.7067 -32.7066 -32.7065 -32.7065 -32.6733 -32.6732 -32.6729 -32.6729
   -32.6664 -32.6662 -32.6661 -32.6661 -32.6487 -32.6485 -32.6484 -32.6482
   -32.6348 -32.6346 -32.6346 -32.6344 -32.6151 -32.6151 -32.6148 -32.6148
    14.4960  14.4963  14.4964  14.4968  15.3113  15.3116  15.3117  15.3121
    16.8605  16.8607  16.8607  16.8610  17.0713  17.0715  17.0716  17.0720
    17.1482  17.1484  17.1485  17.1487  17.1729  17.1731  17.1732  17.1736
    17.5539  17.5542  17.5542  17.5542  17.5693  17.5693  17.5694  17.5696
    17.5813  17.5813  17.5815  17.5815  17.7241  17.7244  17.7245  17.7245
    17.8031  17.8032  17.8033  17.8033  17.9415  17.9416  17.9416  17.9417
    20.2794  20.2795  20.2796  20.2799  20.3262  20.3262  20.3264  20.3267
    20.4094  20.4094  20.4096  20.4099  20.4777  20.4778  20.4779  20.4781
    20.5034  20.5035  20.5036  20.5036  20.5384  20.5384  20.5385  20.5386
    20.8027  20.8027  20.8028  20.8028  20.9240  20.9241  20.9241  20.9242
    20.9768  20.9770  20.9770  20.9770  21.7010  21.7011  21.7011  21.7012
    27.2031  27.2033

          k =-0.5000-0.4984-0.5000 ( 11376 PWs)   bands (ev):

   -66.7753 -66.7751 -66.7751 -66.7751 -66.7751 -66.7748 -66.7747 -66.7747
   -66.7039 -66.7037 -66.7037 -66.7037 -66.7037 -66.7034 -66.7033 -66.7032
   -32.9898 -32.9895 -32.9895 -32.9894 -32.9894 -32.9893 -32.9893 -32.9892
   -32.9881 -32.9881 -32.9880 -32.9880 -32.9879 -32.9879 -32.9875 -32.9875
   -32.9484 -32.9483 -32.9482 -32.9482 -32.9482 -32.9480 -32.9480 -32.9480
   -32.6848 -32.6846 -32.6845 -32.6845 -32.6845 -32.6843 -32.6843 -32.6843
   -32.6417 -32.6417 -32.6416 -32.6416 -32.6415 -32.6415 -32.6413 -32.6412
   -32.6412 -32.6410 -32.6409 -32.6408 -32.6408 -32.6408 -32.6407 -32.6406
    14.8906  14.8909  14.8911  14.8911  14.8912  14.8913  14.8916  14.8916
    17.1128  17.1129  17.1130  17.1130  17.1131  17.1131  17.1133  17.1135
    17.1220  17.1221  17.1222  17.1223  17.1223  17.1224  17.1226  17.1230
    17.6271  17.6272  17.6272  17.6272  17.6272  17.6272  17.6272  17.6273
    17.6389  17.6392  17.6393  17.6393  17.6393  17.6394  17.6394  17.6394
    17.6518  17.6519  17.6519  17.6519  17.6519  17.6520  17.6521  17.6523
    20.3718  20.3718  20.3719  20.3720  20.3720  20.3722  20.3722  20.3725
    20.3765  20.3767  20.3767  20.3768  20.3768  20.3770  20.3770  20.3771
    20.7045  20.7046  20.7046  20.7046  20.7046  20.7047  20.7048  20.7050
    20.7192  20.7194  20.7194  20.7195  20.7195  20.7195  20.7195  20.7195
    21.3032  21.3033  21.3033  21.3033  21.3033  21.3033  21.3034  21.3036
    28.3766  28.3817

     the Fermi energy is    20.4408 ev

!    total energy              =   -5267.70840736 Ry
     Harris-Foulkes estimate   =   -5267.70841156 Ry
     estimated scf accuracy    <       0.00000598 Ry

     total all-electron energy =    -40728.452936 Ry

     The total energy is the sum of the following terms:

     one-electron contribution =   -1624.66935978 Ry
     hartree contribution      =     990.74876725 Ry
     xc contribution           =    -442.92952358 Ry
     ewald contribution        =   -2865.96747694 Ry
     one-center paw contrib.   =   -1324.75915371 Ry
     smearing contrib. (-TS)   =      -0.13166059 Ry

     convergence has been achieved in  13 iterations

     Forces acting on atoms (cartesian axes, Ry/au):

     atom    1 type  1   force =     0.00000000    0.00000000   -0.00000000
     atom    2 type  1   force =     0.00005154   -0.00019001    0.00005154
     atom    3 type  1   force =     0.00000000    0.00000000    0.00000000
     atom    4 type  1   force =     0.00005154   -0.00019001   -0.00005154
     atom    5 type  1   force =     0.00000000    0.00000000    0.00000000
     atom    6 type  1   force =     0.00005154    0.00019001    0.00005154
     atom    7 type  1   force =     0.00000000    0.00000000    0.00000000
     atom    8 type  1   force =     0.00005154    0.00019001   -0.00005154
     atom    9 type  1   force =     0.00000000    0.00000000   -0.00000000
     atom   10 type  1   force =    -0.00005154   -0.00019001    0.00005154
     atom   11 type  1   force =     0.00000000   -0.00000000    0.00000000
     atom   12 type  1   force =    -0.00005154   -0.00019001   -0.00005154
     atom   13 type  1   force =     0.00000000    0.00000000    0.00000000
     atom   14 type  1   force =    -0.00005154    0.00019001    0.00005154
     atom   15 type  1   force =     0.00000000    0.00000000    0.00000000
     atom   16 type  1   force =    -0.00005154    0.00019001   -0.00005154

     Total force =     0.000576     Total SCF correction =     0.003678
     SCF correction compared to forces is large: reduce conv_thr to get better values


     Computing stress (Cartesian axis) and pressure

          total   stress  (Ry/bohr**3)                   (kbar)     P=  -17.62
  -0.00013807   0.00000000   0.00000000        -20.31      0.00      0.00
   0.00000000  -0.00008319   0.00000000          0.00    -12.24      0.00
   0.00000000   0.00000000  -0.00013807          0.00      0.00    -20.31


     Writing output data file yzwKvJqmLAxSjJGG.save/
 
     init_run     :      6.48s CPU      6.84s WALL (       1 calls)
     electrons    :    280.46s CPU    289.75s WALL (       1 calls)
     forces       :      2.23s CPU      2.47s WALL (       1 calls)
     stress       :      5.93s CPU      6.01s WALL (       1 calls)

     Called by init_run:
     wfcinit      :      6.19s CPU      6.47s WALL (       1 calls)
     potinit      :      0.10s CPU      0.13s WALL (       1 calls)
     hinit0       :      0.12s CPU      0.15s WALL (       1 calls)

     Called by electrons:
     c_bands      :    250.67s CPU    258.11s WALL (      14 calls)
     sum_band     :     28.43s CPU     29.99s WALL (      14 calls)
     v_of_rho     :      0.16s CPU      0.29s WALL (      14 calls)
     newd         :      0.19s CPU      0.25s WALL (      14 calls)
     PAW_pot      :      1.03s CPU      1.07s WALL (      14 calls)
     mix_rho      :      0.04s CPU      0.08s WALL (      14 calls)

     Called by c_bands:
     init_us_2    :      1.41s CPU      1.43s WALL (    2325 calls)
     cegterg      :    243.45s CPU    250.83s WALL (    1050 calls)

     Called by sum_band:
     sum_band:bec :      0.43s CPU      0.44s WALL (    1050 calls)
     addusdens    :      0.20s CPU      0.26s WALL (      14 calls)

     Called by *egterg:
     h_psi        :    111.42s CPU    116.03s WALL (    3139 calls)
     s_psi        :      5.99s CPU      6.03s WALL (    3139 calls)
     g_psi        :      0.24s CPU      0.24s WALL (    2014 calls)
     cdiaghg      :    103.02s CPU    103.35s WALL (    2989 calls)

     Called by h_psi:
     h_psi:pot    :    110.76s CPU    115.36s WALL (    3139 calls)
     h_psi:calbec :      9.06s CPU     10.56s WALL (    3139 calls)
     vloc_psi     :     95.67s CPU     98.74s WALL (    3139 calls)
     add_vuspsi   :      6.00s CPU      6.05s WALL (    3139 calls)

     General routines
     calbec       :     14.47s CPU     16.96s WALL (    4564 calls)
     fft          :      0.16s CPU      0.39s WALL (     207 calls)
     ffts         :      0.02s CPU      0.07s WALL (      28 calls)
     fftw         :    111.70s CPU    115.27s WALL (  871704 calls)
     interpolate  :      0.02s CPU      0.04s WALL (      14 calls)
 
     Parallel routines
     fft_scatt_xy :      7.51s CPU      7.72s WALL (  871939 calls)
     fft_scatt_yz :     74.77s CPU     77.48s WALL (  871939 calls)
 
     PWSCF        :  5m 0.40s CPU     5m18.69s WALL

 
   This run was terminated on:   7:35:57   5Sep2020            

=------------------------------------------------------------------------------=
   JOB DONE.
=------------------------------------------------------------------------------=
