--------------------------------------------------------------------------
WARNING: There was an error initializing an OpenFabrics device.

  Local host:   bear-pg0211u07b
  Local device: mlx5_0
--------------------------------------------------------------------------

     Program PWSCF v.6.3 starts on  5Sep2020 at  7:25:18 

     This program is part of the open-source Quantum ESPRESSO suite
     for quantum simulation of materials; please cite
         "P. Giannozzi et al., J. Phys.:Condens. Matter 21 395502 (2009);
         "P. Giannozzi et al., J. Phys.:Condens. Matter 29 465901 (2017);
          URL http://www.quantum-espresso.org", 
     in publications or presentations arising from this work. More details at
     http://www.quantum-espresso.org/quote

     Parallel version (MPI & OpenMP), running on      40 processor cores
     Number of MPI processes:                40
     Threads/MPI process:                     1

     MPI processes distributed on     1 nodes
     R & G space division:  proc/nbgrp/npool/nimage =      40
     Reading input from wd/ec/ec_2_005.in
Warning: card &IONS ignored
Warning: card ION_DYNAMICS = 'BFGS', ignored
Warning: card / ignored
Warning: card &CELL ignored
Warning: card CELL_DYNAMICS = 'BFGS', ignored
Warning: card CELL_FACTOR = 2.0, ignored
Warning: card PRESS = 0.0, ignored
Warning: card / ignored

     Current dimensions of program PWSCF are:
     Max number of different atomic species (ntypx) = 10
     Max number of k-points (npk) =  40000
     Max angular momentum in pseudopotentials (lmaxx) =  3
               file Fe.pbe-spn-kjpaw_psl.1.0.0.UPF: wavefunction(s)  3P 3D renormalized

     Subspace diagonalization in iterative solution of the eigenvalue problem:
     a serial algorithm will be used

 
     Parallelization info
     --------------------
     sticks:   dense  smooth     PW     G-vecs:    dense   smooth      PW
     Min          92      61     17                 4232     2273     339
     Max          93      62     18                 4237     2276     343
     Sum        3709    2445    681               169405    90999   13613
 


     bravais-lattice index     =            0
     lattice parameter (alat)  =      10.3915  a.u.
     unit-cell volume          =    1124.9026 (a.u.)^3
     number of atoms/cell      =           16
     number of atomic types    =            1
     number of electrons       =       256.00
     number of Kohn-Sham states=          154
     kinetic-energy cutoff     =      71.0000  Ry
     charge density cutoff     =     430.0000  Ry
     convergence threshold     =      5.0E-05
     mixing beta               =       0.1000
     number of iterations used =           10  plain     mixing
     Exchange-correlation      = SLA PW PBX PBC ( 1  4  3  4 0 0)

     celldm(1)=  10.391466  celldm(2)=   0.000000  celldm(3)=   0.000000
     celldm(4)=   0.000000  celldm(5)=   0.000000  celldm(6)=   0.000000

     crystal axes: (cart. coord. in units of alat)
               a(1) = (   1.000000   0.000000   0.000000 )  
               a(2) = (   0.000000   1.002500   0.000000 )  
               a(3) = (   0.000000   0.000000   1.000000 )  

     reciprocal axes: (cart. coord. in units 2 pi/alat)
               b(1) = (  1.000000  0.000000  0.000000 )  
               b(2) = (  0.000000  0.997506  0.000000 )  
               b(3) = (  0.000000  0.000000  1.000000 )  


     PseudoPot. # 1 for Fe read from file:
     /rds/homes/b/bxp912/pp/Fe.pbe-spn-kjpaw_psl.1.0.0.UPF
     MD5 check sum: 42f43b795421b414b0dc916aa790dbcb
     Pseudo is Projector augmented-wave + core cor, Zval = 16.0
     Generated using "atomic" code by A. Dal Corso v.6.3
     Shape of augmentation charge: PSQ
     Using radial grid of 1191 points,  6 beta functions with: 
                l(1) =   0
                l(2) =   0
                l(3) =   1
                l(4) =   1
                l(5) =   2
                l(6) =   2
     Q(r) pseudized with 0 coefficients 


     atomic species   valence    mass     pseudopotential
        Fe            16.00    55.84500     Fe( 1.00)

     16 Sym. Ops., with inversion, found



   Cartesian axes

     site n.     atom                  positions (alat units)
         1           Fe  tau(   1) = (   0.0000000   0.0000000   0.0000000  )
         2           Fe  tau(   2) = (   0.2500089   0.2506339   0.2500089  )
         3           Fe  tau(   3) = (   0.0000000   0.0000000   0.4999995  )
         4           Fe  tau(   4) = (   0.2500089   0.2506339   0.7499911  )
         5           Fe  tau(   5) = (   0.0000000   0.5012501   0.0000000  )
         6           Fe  tau(   6) = (   0.2500089   0.7518662   0.2500089  )
         7           Fe  tau(   7) = (   0.0000000   0.5012501   0.4999995  )
         8           Fe  tau(   8) = (   0.2500089   0.7518662   0.7499911  )
         9           Fe  tau(   9) = (   0.5000001   0.0000000   0.0000000  )
        10           Fe  tau(  10) = (   0.7499912   0.2506339   0.2500089  )
        11           Fe  tau(  11) = (   0.5000001   0.0000000   0.4999995  )
        12           Fe  tau(  12) = (   0.7499912   0.2506339   0.7499911  )
        13           Fe  tau(  13) = (   0.5000001   0.5012501   0.0000000  )
        14           Fe  tau(  14) = (   0.7499912   0.7518662   0.2500089  )
        15           Fe  tau(  15) = (   0.5000001   0.5012501   0.4999995  )
        16           Fe  tau(  16) = (   0.7499912   0.7518662   0.7499911  )

     number of k points=    75  Marzari-Vanderbilt smearing, width (Ry)=  0.0400
                       cart. coord. in units 2pi/alat
        k(    1) = (   0.0555556   0.0554170   0.0555556), wk =   0.0219479
        k(    2) = (   0.0555556   0.0554170   0.1666667), wk =   0.0438957
        k(    3) = (   0.0555556   0.0554170   0.2777778), wk =   0.0438957
        k(    4) = (   0.0555556   0.0554170   0.3888889), wk =   0.0438957
        k(    5) = (   0.0555556   0.0554170  -0.5000000), wk =   0.0219479
        k(    6) = (   0.0555556   0.1662510   0.0555556), wk =   0.0219479
        k(    7) = (   0.0555556   0.1662510   0.1666667), wk =   0.0438957
        k(    8) = (   0.0555556   0.1662510   0.2777778), wk =   0.0438957
        k(    9) = (   0.0555556   0.1662510   0.3888889), wk =   0.0438957
        k(   10) = (   0.0555556   0.1662510  -0.5000000), wk =   0.0219479
        k(   11) = (   0.0555556   0.2770851   0.0555556), wk =   0.0219479
        k(   12) = (   0.0555556   0.2770851   0.1666667), wk =   0.0438957
        k(   13) = (   0.0555556   0.2770851   0.2777778), wk =   0.0438957
        k(   14) = (   0.0555556   0.2770851   0.3888889), wk =   0.0438957
        k(   15) = (   0.0555556   0.2770851  -0.5000000), wk =   0.0219479
        k(   16) = (   0.0555556   0.3879191   0.0555556), wk =   0.0219479
        k(   17) = (   0.0555556   0.3879191   0.1666667), wk =   0.0438957
        k(   18) = (   0.0555556   0.3879191   0.2777778), wk =   0.0438957
        k(   19) = (   0.0555556   0.3879191   0.3888889), wk =   0.0438957
        k(   20) = (   0.0555556   0.3879191  -0.5000000), wk =   0.0219479
        k(   21) = (   0.0555556  -0.4987531   0.0555556), wk =   0.0109739
        k(   22) = (   0.0555556  -0.4987531   0.1666667), wk =   0.0219479
        k(   23) = (   0.0555556  -0.4987531   0.2777778), wk =   0.0219479
        k(   24) = (   0.0555556  -0.4987531   0.3888889), wk =   0.0219479
        k(   25) = (   0.0555556  -0.4987531  -0.5000000), wk =   0.0109739
        k(   26) = (   0.1666667   0.0554170   0.1666667), wk =   0.0219479
        k(   27) = (   0.1666667   0.0554170   0.2777778), wk =   0.0438957
        k(   28) = (   0.1666667   0.0554170   0.3888889), wk =   0.0438957
        k(   29) = (   0.1666667   0.0554170  -0.5000000), wk =   0.0219479
        k(   30) = (   0.1666667   0.1662510   0.1666667), wk =   0.0219479
        k(   31) = (   0.1666667   0.1662510   0.2777778), wk =   0.0438957
        k(   32) = (   0.1666667   0.1662510   0.3888889), wk =   0.0438957
        k(   33) = (   0.1666667   0.1662510  -0.5000000), wk =   0.0219479
        k(   34) = (   0.1666667   0.2770851   0.1666667), wk =   0.0219479
        k(   35) = (   0.1666667   0.2770851   0.2777778), wk =   0.0438957
        k(   36) = (   0.1666667   0.2770851   0.3888889), wk =   0.0438957
        k(   37) = (   0.1666667   0.2770851  -0.5000000), wk =   0.0219479
        k(   38) = (   0.1666667   0.3879191   0.1666667), wk =   0.0219479
        k(   39) = (   0.1666667   0.3879191   0.2777778), wk =   0.0438957
        k(   40) = (   0.1666667   0.3879191   0.3888889), wk =   0.0438957
        k(   41) = (   0.1666667   0.3879191  -0.5000000), wk =   0.0219479
        k(   42) = (   0.1666667  -0.4987531   0.1666667), wk =   0.0109739
        k(   43) = (   0.1666667  -0.4987531   0.2777778), wk =   0.0219479
        k(   44) = (   0.1666667  -0.4987531   0.3888889), wk =   0.0219479
        k(   45) = (   0.1666667  -0.4987531  -0.5000000), wk =   0.0109739
        k(   46) = (   0.2777778   0.0554170   0.2777778), wk =   0.0219479
        k(   47) = (   0.2777778   0.0554170   0.3888889), wk =   0.0438957
        k(   48) = (   0.2777778   0.0554170  -0.5000000), wk =   0.0219479
        k(   49) = (   0.2777778   0.1662510   0.2777778), wk =   0.0219479
        k(   50) = (   0.2777778   0.1662510   0.3888889), wk =   0.0438957
        k(   51) = (   0.2777778   0.1662510  -0.5000000), wk =   0.0219479
        k(   52) = (   0.2777778   0.2770851   0.2777778), wk =   0.0219479
        k(   53) = (   0.2777778   0.2770851   0.3888889), wk =   0.0438957
        k(   54) = (   0.2777778   0.2770851  -0.5000000), wk =   0.0219479
        k(   55) = (   0.2777778   0.3879191   0.2777778), wk =   0.0219479
        k(   56) = (   0.2777778   0.3879191   0.3888889), wk =   0.0438957
        k(   57) = (   0.2777778   0.3879191  -0.5000000), wk =   0.0219479
        k(   58) = (   0.2777778  -0.4987531   0.2777778), wk =   0.0109739
        k(   59) = (   0.2777778  -0.4987531   0.3888889), wk =   0.0219479
        k(   60) = (   0.2777778  -0.4987531  -0.5000000), wk =   0.0109739
        k(   61) = (   0.3888889   0.0554170   0.3888889), wk =   0.0219479
        k(   62) = (   0.3888889   0.0554170  -0.5000000), wk =   0.0219479
        k(   63) = (   0.3888889   0.1662510   0.3888889), wk =   0.0219479
        k(   64) = (   0.3888889   0.1662510  -0.5000000), wk =   0.0219479
        k(   65) = (   0.3888889   0.2770851   0.3888889), wk =   0.0219479
        k(   66) = (   0.3888889   0.2770851  -0.5000000), wk =   0.0219479
        k(   67) = (   0.3888889   0.3879191   0.3888889), wk =   0.0219479
        k(   68) = (   0.3888889   0.3879191  -0.5000000), wk =   0.0219479
        k(   69) = (   0.3888889  -0.4987531   0.3888889), wk =   0.0109739
        k(   70) = (   0.3888889  -0.4987531  -0.5000000), wk =   0.0109739
        k(   71) = (  -0.5000000   0.0554170  -0.5000000), wk =   0.0054870
        k(   72) = (  -0.5000000   0.1662510  -0.5000000), wk =   0.0054870
        k(   73) = (  -0.5000000   0.2770851  -0.5000000), wk =   0.0054870
        k(   74) = (  -0.5000000   0.3879191  -0.5000000), wk =   0.0054870
        k(   75) = (  -0.5000000  -0.4987531  -0.5000000), wk =   0.0027435

     Dense  grid:   169405 G-vectors     FFT dimensions: (  72,  72,  72)

     Smooth grid:    90999 G-vectors     FFT dimensions: (  60,  60,  60)

     Estimated max dynamical RAM per process >      83.49 MB

     Estimated total dynamical RAM >       3.26 GB

     Check: negative/imaginary core charge=   -0.000006    0.000000

     Initial potential from superposition of free atoms

     starting charge  255.99300, renormalised to  256.00000
     Starting wfcs are  160 randomized atomic wfcs
     Checking if some PAW data can be deallocated... 

     total cpu time spent up to now is        8.1 secs

     Self-consistent Calculation

     iteration #  1     ecut=    71.00 Ry     beta= 0.10
     Davidson diagonalization with overlap
     ethr =  1.00E-02,  avg # of iterations =  3.4

     Threshold (ethr) on eigenvalues was too large:
     Diagonalizing with lowered threshold

     Davidson diagonalization with overlap
     ethr =  2.53E-04,  avg # of iterations =  3.1

     total cpu time spent up to now is       62.3 secs

     total energy              =   -5267.75271440 Ry
     Harris-Foulkes estimate   =   -5267.86791114 Ry
     estimated scf accuracy    <       0.73012756 Ry

     iteration #  2     ecut=    71.00 Ry     beta= 0.10
     Davidson diagonalization with overlap
     ethr =  2.85E-04,  avg # of iterations =  1.0

     total cpu time spent up to now is       78.7 secs

     total energy              =   -5267.61864388 Ry
     Harris-Foulkes estimate   =   -5267.76790672 Ry
     estimated scf accuracy    <       0.36163865 Ry

     iteration #  3     ecut=    71.00 Ry     beta= 0.10
     Davidson diagonalization with overlap
     ethr =  1.41E-04,  avg # of iterations =  3.2

     total cpu time spent up to now is      109.1 secs

     total energy              =   -5267.70044198 Ry
     Harris-Foulkes estimate   =   -5267.72204164 Ry
     estimated scf accuracy    <       0.50682464 Ry

     iteration #  4     ecut=    71.00 Ry     beta= 0.10
     Davidson diagonalization with overlap
     ethr =  1.41E-04,  avg # of iterations =  1.0

     total cpu time spent up to now is      125.6 secs

     total energy              =   -5267.70572405 Ry
     Harris-Foulkes estimate   =   -5267.71188324 Ry
     estimated scf accuracy    <       0.02945804 Ry

     iteration #  5     ecut=    71.00 Ry     beta= 0.10
     Davidson diagonalization with overlap
     ethr =  1.15E-05,  avg # of iterations =  2.1

     total cpu time spent up to now is      146.7 secs

     total energy              =   -5267.70587301 Ry
     Harris-Foulkes estimate   =   -5267.70804293 Ry
     estimated scf accuracy    <       0.02274353 Ry

     iteration #  6     ecut=    71.00 Ry     beta= 0.10
     Davidson diagonalization with overlap
     ethr =  8.88E-06,  avg # of iterations =  2.8

     total cpu time spent up to now is      172.0 secs

     total energy              =   -5267.70823174 Ry
     Harris-Foulkes estimate   =   -5267.70824706 Ry
     estimated scf accuracy    <       0.01177925 Ry

     iteration #  7     ecut=    71.00 Ry     beta= 0.10
     Davidson diagonalization with overlap
     ethr =  4.60E-06,  avg # of iterations =  1.0

     total cpu time spent up to now is      188.6 secs

     total energy              =   -5267.70753596 Ry
     Harris-Foulkes estimate   =   -5267.70863361 Ry
     estimated scf accuracy    <       0.01310792 Ry

     iteration #  8     ecut=    71.00 Ry     beta= 0.10
     Davidson diagonalization with overlap
     ethr =  4.60E-06,  avg # of iterations =  1.1

     total cpu time spent up to now is      205.2 secs

     total energy              =   -5267.70802310 Ry
     Harris-Foulkes estimate   =   -5267.70820904 Ry
     estimated scf accuracy    <       0.00391420 Ry

     iteration #  9     ecut=    71.00 Ry     beta= 0.10
     Davidson diagonalization with overlap
     ethr =  1.53E-06,  avg # of iterations =  2.3

     total cpu time spent up to now is      226.1 secs

     total energy              =   -5267.70818559 Ry
     Harris-Foulkes estimate   =   -5267.70820258 Ry
     estimated scf accuracy    <       0.00045553 Ry

     iteration # 10     ecut=    71.00 Ry     beta= 0.10
     Davidson diagonalization with overlap
     ethr =  1.78E-07,  avg # of iterations =  2.5

     total cpu time spent up to now is      248.2 secs

     total energy              =   -5267.70818842 Ry
     Harris-Foulkes estimate   =   -5267.70820628 Ry
     estimated scf accuracy    <       0.00024263 Ry

     iteration # 11     ecut=    71.00 Ry     beta= 0.10
     Davidson diagonalization with overlap
     ethr =  9.48E-08,  avg # of iterations =  1.0

     total cpu time spent up to now is      264.5 secs

     total energy              =   -5267.70817796 Ry
     Harris-Foulkes estimate   =   -5267.70819924 Ry
     estimated scf accuracy    <       0.00016981 Ry

     iteration # 12     ecut=    71.00 Ry     beta= 0.10
     Davidson diagonalization with overlap
     ethr =  6.63E-08,  avg # of iterations =  1.0

     total cpu time spent up to now is      280.8 secs

     total energy              =   -5267.70817887 Ry
     Harris-Foulkes estimate   =   -5267.70818580 Ry
     estimated scf accuracy    <       0.00012441 Ry

     iteration # 13     ecut=    71.00 Ry     beta= 0.10
     Davidson diagonalization with overlap
     ethr =  4.86E-08,  avg # of iterations =  1.5

     total cpu time spent up to now is      299.2 secs

     End of self-consistent calculation

          k = 0.0556 0.0554 0.0556 ( 11309 PWs)   bands (ev):

   -66.8363 -66.7378 -66.7376 -66.7374 -66.7214 -66.7212 -66.7210 -66.7203
   -66.7201 -66.7200 -66.7198 -66.7195 -66.7194 -66.7123 -66.7122 -66.6365
   -33.1319 -33.1318 -33.1313 -33.1288 -33.1287 -33.1282 -32.9660 -32.9634
   -32.9582 -32.8889 -32.8862 -32.8861 -32.8855 -32.8646 -32.8639 -32.8511
   -32.8511 -32.8502 -32.8139 -32.8132 -32.7893 -32.7734 -32.7733 -32.7727
   -32.7620 -32.7619 -32.7613 -32.7493 -32.7478 -32.7477 -32.7461 -32.7447
   -32.7446 -32.7376 -32.7375 -32.7370 -32.7268 -32.7267 -32.7261 -32.5634
   -32.5623 -32.5614 -32.5613 -32.5592 -32.5583 -32.5582 -32.5568 -32.5567
    11.4184  15.2921  15.3072  15.3072  15.4292  15.4301  15.4301  15.4552
    15.4561  15.4562  15.6973  15.7040  15.8050  15.8205  15.8206  17.1903
    17.2758  17.2777  17.2819  17.2896  17.2970  17.2972  17.3109  17.3111
    17.4168  17.4250  17.4676  17.7197  17.7256  17.7256  18.1126  18.1197
    18.1197  18.5951  18.6052  18.6498  18.9233  18.9235  18.9332  19.0286
    19.0288  19.0367  19.1145  19.1146  19.1255  19.2104  19.2106  19.2207
    19.9579  19.9579  19.9648  20.1758  20.1758  20.1897  20.2084  20.2085
    20.2136  20.3431  20.3432  20.3459  20.3460  20.3625  20.3643  20.3752
    20.3936  20.6252  20.6253  20.6441  20.6441  20.6463  20.6521  20.6875
    20.6877  20.6972  20.6975  21.1734  21.1734  21.1888  21.4050  21.4367
    21.4624  21.4626  21.4823  21.4852  21.9096  21.9097  21.9119  21.9137
    21.9454  21.9455

          k = 0.0556 0.0554 0.1667 ( 11346 PWs)   bands (ev):

   -66.8328 -66.7552 -66.7370 -66.7367 -66.7233 -66.7230 -66.7207 -66.7201
   -66.7198 -66.7193 -66.7188 -66.7185 -66.7129 -66.7126 -66.7033 -66.6391
   -33.1239 -33.1233 -33.1227 -33.1198 -33.1149 -33.1145 -32.9678 -32.9589
   -32.9485 -32.9257 -32.9171 -32.9167 -32.9149 -32.9141 -32.8833 -32.8827
   -32.8484 -32.8207 -32.8107 -32.8092 -32.7969 -32.7738 -32.7725 -32.7644
   -32.7540 -32.7530 -32.7517 -32.7513 -32.7501 -32.7434 -32.7420 -32.7386
   -32.7375 -32.7335 -32.7333 -32.7028 -32.6997 -32.6994 -32.6928 -32.5784
   -32.5718 -32.5709 -32.5693 -32.5665 -32.5626 -32.5624 -32.5615 -32.5593
    11.5563  14.6751  15.3496  15.3639  15.4399  15.4401  15.5200  15.5205
    15.5310  15.5557  15.7618  15.7673  15.8496  15.8642  16.1562  17.0826
    17.1920  17.2037  17.2786  17.2910  17.3166  17.3262  17.3337  17.3474
    17.3677  17.3888  17.6064  17.6181  17.6750  17.6799  18.0147  18.0203
    18.4717  18.5728  18.6004  18.7037  18.7090  18.7192  18.7752  18.8837
    18.8995  18.9356  19.2111  19.2118  19.3267  19.3288  19.3495  19.4503
    19.6429  19.6552  19.7132  19.9344  19.9362  19.9497  20.0933  20.1874
    20.1936  20.2821  20.3015  20.3150  20.3637  20.3656  20.3852  20.3916
    20.4107  20.4311  20.4358  20.4573  20.6468  20.6711  20.6713  20.6889
    20.6891  20.8614  20.9705  20.9829  21.1478  21.2303  21.3433  21.4457
    21.4707  21.4770  21.5088  21.5201  21.8134  21.8167  21.9582  21.9905
    22.0718  22.0825

          k = 0.0556 0.0554 0.2778 ( 11348 PWs)   bands (ev):

   -66.8260 -66.7725 -66.7355 -66.7353 -66.7257 -66.7254 -66.7198 -66.7196
   -66.7193 -66.7184 -66.7182 -66.7180 -66.7140 -66.7134 -66.6877 -66.6443
   -33.1054 -33.1050 -33.1047 -33.1026 -33.0909 -33.0905 -32.9686 -32.9676
   -32.9619 -32.9585 -32.9583 -32.9463 -32.9366 -32.9339 -32.9273 -32.9269
   -32.8434 -32.8331 -32.8308 -32.8155 -32.7719 -32.7705 -32.7663 -32.7651
   -32.7605 -32.7570 -32.7556 -32.7414 -32.7401 -32.7388 -32.7375 -32.7180
   -32.7103 -32.6986 -32.6981 -32.6700 -32.6667 -32.6661 -32.6607 -32.6042
   -32.5871 -32.5862 -32.5849 -32.5830 -32.5741 -32.5718 -32.5710 -32.5689
    11.8282  13.9974  15.4388  15.4513  15.4766  15.4777  15.6181  15.6184
    15.7249  15.7466  15.8808  15.8931  15.9026  15.9148  16.3010  16.9217
    16.9623  16.9685  17.1513  17.2005  17.2455  17.2558  17.4390  17.4596
    17.5074  17.5282  17.6663  17.6711  17.8580  17.8797  17.9467  17.9515
    18.4133  18.4298  18.5571  18.5747  18.5918  18.5930  18.6231  18.6699
    18.8004  19.0724  19.0799  19.0914  19.2953  19.3082  19.4676  19.4724
    19.4815  19.5024  19.5064  19.5094  19.5485  19.6286  19.7395  20.1711
    20.1833  20.2012  20.2807  20.2997  20.4038  20.4178  20.4679  20.4910
    20.4956  20.6306  20.6315  20.6522  20.6829  20.6848  20.6970  20.7244
    20.7276  20.7337  20.9367  20.9665  21.0924  21.1637  21.1761  21.4048
    21.4621  21.4854  21.5645  21.5705  21.6860  21.6900  22.0420  22.0721
    22.2020  22.2190

          k = 0.0556 0.0554 0.3889 ( 11360 PWs)   bands (ev):

   -66.8162 -66.7889 -66.7334 -66.7332 -66.7283 -66.7280 -66.7191 -66.7188
   -66.7185 -66.7182 -66.7180 -66.7172 -66.7154 -66.7146 -66.6738 -66.6518
   -33.0790 -33.0777 -33.0776 -33.0772 -33.0577 -33.0574 -33.0086 -33.0062
   -33.0017 -33.0015 -32.9735 -32.9733 -32.9671 -32.9520 -32.9276 -32.9145
   -32.8754 -32.8623 -32.8165 -32.8045 -32.7807 -32.7744 -32.7689 -32.7674
   -32.7611 -32.7597 -32.7400 -32.7389 -32.7387 -32.7376 -32.7213 -32.6756
   -32.6714 -32.6643 -32.6637 -32.6400 -32.6378 -32.6356 -32.6349 -32.6313
   -32.6079 -32.6074 -32.6073 -32.6071 -32.5914 -32.5871 -32.5864 -32.5850
    12.2256  13.3357  15.5152  15.5203  15.5235  15.5248  15.7346  15.7367
    15.9086  15.9171  15.9954  16.0121  16.0303  16.0820  16.2904  16.6236
    16.6481  16.6559  17.1469  17.1642  17.2055  17.2142  17.6089  17.6291
    17.7030  17.7231  17.7854  17.7911  17.9850  17.9852  18.1555  18.1667
    18.1836  18.2046  18.2660  18.2835  18.5498  18.5516  18.5602  18.5890
    18.5971  18.6166  18.7246  18.7360  18.9251  19.0308  19.0345  19.2693
    19.3837  19.7024  19.7101  19.7298  19.7384  19.9476  19.9610  20.0507
    20.0662  20.0669  20.1492  20.1653  20.4556  20.4646  20.5505  20.5758
    20.5784  20.6427  20.6595  20.6759  20.6817  20.6936  20.7708  20.7806
    20.7929  20.7952  20.9195  21.0125  21.0138  21.1968  21.2053  21.2815
    21.4566  21.4597  21.4829  21.5035  21.5660  21.5747  22.1440  22.1712
    22.2639  22.2848

          k = 0.0556 0.0554-0.5000 ( 11358 PWs)   bands (ev):

   -66.8037 -66.8035 -66.7311 -66.7309 -66.7307 -66.7305 -66.7187 -66.7185
   -66.7183 -66.7182 -66.7171 -66.7169 -66.7160 -66.7158 -66.6619 -66.6617
   -33.0460 -33.0458 -33.0457 -33.0455 -33.0422 -33.0421 -33.0419 -33.0419
   -33.0179 -33.0178 -33.0175 -33.0175 -32.9620 -32.9619 -32.9039 -32.9037
   -32.8907 -32.8905 -32.7986 -32.7985 -32.7900 -32.7898 -32.7654 -32.7651
   -32.7637 -32.7635 -32.7394 -32.7391 -32.7381 -32.7379 -32.6773 -32.6771
   -32.6384 -32.6382 -32.6368 -32.6366 -32.6338 -32.6338 -32.6332 -32.6330
   -32.6138 -32.6136 -32.6084 -32.6084 -32.6080 -32.6079 -32.6060 -32.6058
    12.7347  12.7353  15.5421  15.5425  15.5483  15.5486  15.8439  15.8443
    15.8488  15.8490  16.1813  16.1816  16.3170  16.3174  16.3252  16.3256
    16.3274  16.3279  17.1689  17.1690  17.1782  17.1783  17.8255  17.8256
    17.8443  17.8443  17.9244  17.9245  17.9395  17.9396  18.1382  18.1385
    18.1427  18.1430  18.2961  18.2964  18.3049  18.3052  18.5628  18.5630
    18.5769  18.5771  18.5907  18.5909  18.5955  18.5957  19.0821  19.0824
    19.6935  19.6938  19.8883  19.8885  19.9003  19.9003  19.9630  19.9632
    19.9758  19.9758  20.2929  20.2930  20.4182  20.4183  20.5147  20.5150
    20.5200  20.5203  20.6550  20.6552  20.6676  20.6678  20.6823  20.6825
    21.0502  21.0503  21.0520  21.0521  21.1168  21.1171  21.2636  21.2636
    21.2643  21.2644  21.5085  21.5087  21.5247  21.5250  22.2320  22.2322
    22.2560  22.2563

          k = 0.0556 0.1663 0.0556 ( 11333 PWs)   bands (ev):

   -66.8328 -66.7555 -66.7369 -66.7366 -66.7234 -66.7232 -66.7205 -66.7199
   -66.7197 -66.7190 -66.7188 -66.7186 -66.7129 -66.7125 -66.7035 -66.6391
   -33.1239 -33.1238 -33.1222 -33.1196 -33.1150 -33.1149 -32.9693 -32.9572
   -32.9483 -32.9258 -32.9176 -32.9174 -32.9145 -32.9144 -32.8837 -32.8837
   -32.8476 -32.8198 -32.8097 -32.8082 -32.7962 -32.7726 -32.7725 -32.7649
   -32.7552 -32.7517 -32.7516 -32.7515 -32.7513 -32.7420 -32.7419 -32.7374
   -32.7374 -32.7342 -32.7342 -32.7024 -32.7004 -32.7002 -32.6924 -32.5785
   -32.5709 -32.5709 -32.5702 -32.5676 -32.5624 -32.5616 -32.5615 -32.5593
    11.5556  14.6614  15.3633  15.3633  15.4403  15.4403  15.5207  15.5207
    15.5294  15.5540  15.7595  15.7686  15.8635  15.8635  16.1411  17.0794
    17.1916  17.1951  17.2584  17.2708  17.3104  17.3296  17.3471  17.3473
    17.3885  17.3887  17.6148  17.6271  17.6799  17.6799  18.0198  18.0199
    18.4658  18.5763  18.5911  18.7157  18.7159  18.7163  18.7830  18.8951
    18.8953  18.9388  19.1994  19.1995  19.3152  19.3152  19.3610  19.4619
    19.6415  19.6415  19.7217  19.9320  19.9320  19.9496  20.1114  20.1880
    20.1880  20.2853  20.2854  20.3020  20.3712  20.3713  20.3833  20.4092
    20.4221  20.4313  20.4314  20.4608  20.6547  20.6677  20.6679  20.6951
    20.6954  20.8722  20.9700  20.9701  21.1294  21.2322  21.3472  21.4702
    21.4703  21.4744  21.5097  21.5098  21.8128  21.8130  21.9896  21.9898
    22.0723  22.0724

          k = 0.0556 0.1663 0.1667 ( 11354 PWs)   bands (ev):

   -66.8295 -66.7542 -66.7539 -66.7360 -66.7282 -66.7227 -66.7225 -66.7196
   -66.7183 -66.7181 -66.7148 -66.7138 -66.7126 -66.7038 -66.7036 -66.6417
   -33.1218 -33.1152 -33.1146 -33.1070 -33.1066 -33.0954 -32.9757 -32.9538
   -32.9492 -32.9443 -32.9437 -32.9366 -32.9331 -32.9290 -32.9048 -32.8586
   -32.8439 -32.8431 -32.8092 -32.8075 -32.8073 -32.7790 -32.7685 -32.7672
   -32.7613 -32.7597 -32.7585 -32.7488 -32.7475 -32.7454 -32.7424 -32.7332
   -32.7237 -32.7115 -32.7037 -32.7035 -32.6804 -32.6676 -32.6669 -32.5997
   -32.5861 -32.5779 -32.5772 -32.5703 -32.5694 -32.5674 -32.5582 -32.5569
    11.6920  14.7377  14.7502  15.3830  15.4261  15.5418  15.5429  15.6180
    15.6194  15.6308  15.8243  15.8301  15.9159  16.1839  16.1975  16.9819
    17.0935  17.2711  17.3060  17.3197  17.3232  17.3257  17.3432  17.3628
    17.3692  17.3870  17.4933  17.5951  17.6195  17.6360  17.9137  18.2918
    18.2946  18.5169  18.5762  18.5798  18.5824  18.6229  18.7670  18.8159
    19.1156  19.1209  19.1761  19.1824  19.2216  19.2876  19.3877  19.4833
    19.4929  19.4971  19.5069  19.6813  19.6976  19.8322  19.9450  19.9515
    20.1774  20.2934  20.3064  20.3225  20.3644  20.3648  20.3806  20.3903
    20.3975  20.5732  20.6201  20.6532  20.6534  20.6698  20.6731  20.6843
    20.6858  20.7829  20.7909  21.0030  21.1086  21.1156  21.1180  21.1337
    21.2430  21.5007  21.5017  21.6334  21.7044  22.0643  22.3802  22.3859
    22.5655  22.7006

          k = 0.0556 0.1663 0.2778 ( 11366 PWs)   bands (ev):

   -66.8229 -66.7707 -66.7517 -66.7346 -66.7334 -66.7249 -66.7217 -66.7191
   -66.7177 -66.7175 -66.7151 -66.7133 -66.7115 -66.7044 -66.6885 -66.6465
   -33.1094 -33.0981 -33.0974 -33.0919 -33.0843 -33.0662 -32.9826 -32.9815
   -32.9792 -32.9678 -32.9657 -32.9641 -32.9415 -32.9388 -32.9135 -32.8889
   -32.8475 -32.8409 -32.8055 -32.8033 -32.8020 -32.7998 -32.7811 -32.7714
   -32.7712 -32.7651 -32.7577 -32.7473 -32.7450 -32.7315 -32.7254 -32.7080
   -32.7057 -32.6916 -32.6830 -32.6715 -32.6549 -32.6375 -32.6367 -32.6300
   -32.6067 -32.5905 -32.5895 -32.5846 -32.5787 -32.5778 -32.5614 -32.5607
    11.9606  14.0908  14.8721  15.3342  15.5255  15.5811  15.7160  15.7399
    15.7687  15.8080  15.9426  15.9533  15.9831  16.2220  16.3490  16.8656
    16.9468  16.9762  17.2126  17.2878  17.2999  17.3178  17.3591  17.4104
    17.4531  17.4698  17.5797  17.6585  17.7544  17.8178  17.8193  18.1611
    18.3229  18.4147  18.4393  18.4615  18.4951  18.5354  18.5590  18.7502
    18.7999  18.9467  18.9849  19.1394  19.1866  19.2648  19.2848  19.2940
    19.3771  19.4753  19.4994  19.5490  19.5809  19.7090  19.7292  20.0538
    20.1891  20.2246  20.2565  20.2998  20.3160  20.3499  20.3867  20.4343
    20.5987  20.6120  20.6136  20.6781  20.6834  20.7034  20.7051  20.7161
    20.7704  20.8773  20.8964  20.9126  20.9245  20.9491  21.0004  21.0880
    21.2242  21.4315  21.4858  21.5691  21.7001  22.2036  22.2241  22.7874
    22.8561  22.9943

          k = 0.0556 0.1663 0.3889 ( 11347 PWs)   bands (ev):

   -66.8132 -66.7866 -66.7481 -66.7386 -66.7325 -66.7274 -66.7202 -66.7185
   -66.7177 -66.7168 -66.7164 -66.7142 -66.7088 -66.7053 -66.6750 -66.6539
   -33.0875 -33.0733 -33.0717 -33.0698 -33.0539 -33.0285 -33.0214 -33.0113
   -33.0053 -33.0036 -32.9846 -32.9779 -32.9766 -32.9375 -32.9234 -32.8907
   -32.8722 -32.8340 -32.8293 -32.7973 -32.7971 -32.7889 -32.7806 -32.7793
   -32.7707 -32.7704 -32.7544 -32.7464 -32.7458 -32.7187 -32.7089 -32.6952
   -32.6700 -32.6669 -32.6602 -32.6549 -32.6422 -32.6319 -32.6298 -32.6107
   -32.6090 -32.6080 -32.6078 -32.6069 -32.5953 -32.5903 -32.5714 -32.5708
    12.3528  13.4440  15.0303  15.2713  15.6134  15.6268  15.8338  15.9244
    16.0026  16.0145  16.0679  16.0917  16.1363  16.1897  16.3460  16.6554
    16.6575  16.6726  17.1827  17.2256  17.2424  17.2661  17.5285  17.5612
    17.5944  17.6333  17.6465  17.7934  17.8754  18.0108  18.0420  18.1036
    18.2148  18.2238  18.2833  18.2923  18.4241  18.4249  18.4706  18.5051
    18.5089  18.5409  18.6273  18.7549  18.8181  18.8183  19.1027  19.4859
    19.5225  19.6791  19.6803  19.7423  19.7459  19.7581  19.9243  20.0073
    20.0202  20.0922  20.1644  20.1934  20.3639  20.4111  20.4339  20.5171
    20.5514  20.5568  20.5665  20.6750  20.6807  20.6870  20.6905  20.7525
    20.7641  20.8008  20.8281  20.9607  20.9688  21.0481  21.1018  21.2019
    21.2112  21.2141  21.4073  21.6041  21.6871  22.0422  22.3844  22.7175
    23.0349  23.1895

          k = 0.0556 0.1663-0.5000 ( 11362 PWs)   bands (ev):

   -66.8011 -66.8008 -66.7437 -66.7435 -66.7301 -66.7299 -66.7187 -66.7185
   -66.7180 -66.7178 -66.7155 -66.7152 -66.7069 -66.7067 -66.6635 -66.6633
   -33.0575 -33.0574 -33.0427 -33.0425 -33.0421 -33.0419 -33.0394 -33.0393
   -33.0174 -33.0173 -32.9850 -32.9849 -32.9834 -32.9833 -32.9001 -32.8999
   -32.8641 -32.8640 -32.8094 -32.8092 -32.7895 -32.7893 -32.7851 -32.7850
   -32.7755 -32.7753 -32.7462 -32.7460 -32.7133 -32.7131 -32.7093 -32.7091
   -32.6619 -32.6617 -32.6360 -32.6358 -32.6319 -32.6317 -32.6294 -32.6294
   -32.6167 -32.6165 -32.6079 -32.6079 -32.5885 -32.5883 -32.5869 -32.5867
    12.8541  12.8546  15.1714  15.1718  15.6475  15.6478  15.9433  15.9435
    16.0768  16.0772  16.2413  16.2417  16.3389  16.3392  16.3678  16.3681
    16.3723  16.3727  17.2017  17.2018  17.2258  17.2260  17.7240  17.7241
    17.7466  17.7469  17.7860  17.7861  17.8389  17.8392  18.1687  18.1688
    18.2031  18.2033  18.2726  18.2729  18.3845  18.3848  18.4025  18.4027
    18.4102  18.4102  18.4442  18.4444  18.5253  18.5254  19.2831  19.2833
    19.7763  19.7765  19.7971  19.7973  19.9291  19.9291  19.9758  19.9759
    20.0038  20.0040  20.0138  20.0139  20.3483  20.3485  20.4810  20.4812
    20.4935  20.4937  20.6240  20.6242  20.6743  20.6745  20.7123  20.7124
    20.8205  20.8206  20.9272  20.9273  21.0287  21.0289  21.1146  21.1147
    21.2756  21.2758  21.4378  21.4378  21.8532  21.8534  22.5699  22.5702
    23.1735  23.1738

          k = 0.0556 0.2771 0.0556 ( 11353 PWs)   bands (ev):

   -66.8261 -66.7727 -66.7354 -66.7352 -66.7257 -66.7255 -66.7196 -66.7194
   -66.7193 -66.7184 -66.7182 -66.7181 -66.7140 -66.7134 -66.6880 -66.6443
   -33.1056 -33.1055 -33.1043 -33.1024 -33.0911 -33.0910 -32.9701 -32.9677
   -32.9621 -32.9593 -32.9592 -32.9446 -32.9369 -32.9333 -32.9279 -32.9279
   -32.8425 -32.8328 -32.8301 -32.8151 -32.7704 -32.7703 -32.7660 -32.7655
   -32.7615 -32.7555 -32.7555 -32.7401 -32.7400 -32.7375 -32.7374 -32.7188
   -32.7111 -32.6990 -32.6990 -32.6697 -32.6672 -32.6671 -32.6603 -32.6040
   -32.5864 -32.5864 -32.5856 -32.5840 -32.5740 -32.5710 -32.5710 -32.5688
    11.8262  13.9860  15.4496  15.4496  15.4773  15.4773  15.6187  15.6187
    15.7220  15.7437  15.8745  15.8964  15.9133  15.9133  16.2870  16.9143
    16.9597  16.9601  17.1470  17.1948  17.2273  17.2378  17.4589  17.4591
    17.5275  17.5276  17.6706  17.6707  17.8692  17.8909  17.9509  17.9509
    18.4270  18.4272  18.5588  18.5853  18.5885  18.5886  18.6252  18.6744
    18.8105  19.0649  19.0802  19.0802  19.2956  19.2957  19.4583  19.4583
    19.4913  19.4964  19.4964  19.5181  19.5651  19.6399  19.7509  20.1578
    20.1859  20.1860  20.2837  20.2838  20.4196  20.4337  20.4774  20.4914
    20.4915  20.6301  20.6314  20.6602  20.6899  20.6919  20.6988  20.7241
    20.7242  20.7427  20.9252  20.9710  21.0984  21.1674  21.1674  21.4024
    21.4840  21.4841  21.5654  21.5655  21.6856  21.6857  22.0696  22.0697
    22.2063  22.2063

          k = 0.0556 0.2771 0.1667 ( 11364 PWs)   bands (ev):

   -66.8229 -66.7709 -66.7514 -66.7346 -66.7334 -66.7251 -66.7215 -66.7191
   -66.7179 -66.7173 -66.7151 -66.7132 -66.7115 -66.7042 -66.6887 -66.6466
   -33.1095 -33.0980 -33.0976 -33.0915 -33.0849 -33.0663 -32.9831 -32.9819
   -32.9793 -32.9682 -32.9657 -32.9639 -32.9413 -32.9392 -32.9132 -32.8897
   -32.8473 -32.8409 -32.8053 -32.8031 -32.8010 -32.7991 -32.7803 -32.7724
   -32.7711 -32.7637 -32.7586 -32.7461 -32.7443 -32.7324 -32.7253 -32.7086
   -32.7055 -32.6920 -32.6832 -32.6716 -32.6550 -32.6374 -32.6368 -32.6299
   -32.6068 -32.5903 -32.5898 -32.5855 -32.5787 -32.5771 -32.5615 -32.5606
    11.9593  14.0803  14.8823  15.3348  15.5245  15.5813  15.7170  15.7376
    15.7691  15.8053  15.9373  15.9565  15.9822  16.2323  16.3363  16.8617
    16.9420  16.9744  17.2071  17.2702  17.2938  17.3006  17.3625  17.4291
    17.4527  17.4882  17.5796  17.6580  17.7635  17.8183  17.8281  18.1636
    18.3210  18.4218  18.4385  18.4600  18.4990  18.5430  18.5598  18.7506
    18.7963  18.9500  18.9738  19.1268  19.2005  19.2804  19.2857  19.2921
    19.3829  19.4693  19.4913  19.5416  19.5710  19.7160  19.7424  20.0551
    20.1796  20.2098  20.2518  20.2836  20.3162  20.3648  20.4026  20.4416
    20.5988  20.6129  20.6148  20.6811  20.6868  20.7054  20.7110  20.7191
    20.7702  20.8850  20.8984  20.9013  20.9191  20.9465  21.0040  21.1045
    21.2179  21.4307  21.4850  21.5682  21.7001  22.2020  22.2186  22.7779
    22.8899  22.9995

          k = 0.0556 0.2771 0.2778 ( 11354 PWs)   bands (ev):

   -66.8167 -66.7674 -66.7672 -66.7413 -66.7331 -66.7239 -66.7237 -66.7187
   -66.7171 -66.7169 -66.7166 -66.7135 -66.7054 -66.6903 -66.6901 -66.6512
   -33.1032 -33.0831 -33.0826 -33.0728 -33.0724 -33.0323 -32.9988 -32.9984
   -32.9954 -32.9947 -32.9856 -32.9825 -32.9600 -32.9300 -32.8887 -32.8484
   -32.8459 -32.8453 -32.8349 -32.8347 -32.8006 -32.7895 -32.7865 -32.7794
   -32.7783 -32.7659 -32.7650 -32.7571 -32.7562 -32.7511 -32.7119 -32.6844
   -32.6756 -32.6754 -32.6689 -32.6655 -32.6623 -32.6382 -32.6317 -32.6108
   -32.6101 -32.5980 -32.5972 -32.5898 -32.5893 -32.5890 -32.5584 -32.5575
    12.2210  14.2565  14.2652  15.1740  15.6485  15.7791  15.7806  15.9014
    15.9036  15.9296  16.0419  16.0846  16.0854  16.3806  16.3903  16.8015
    16.8612  17.0516  17.0536  17.2691  17.3416  17.3608  17.3771  17.4054
    17.4210  17.4828  17.5069  17.6818  17.7055  17.8046  17.8474  18.2170
    18.2172  18.3207  18.3394  18.3408  18.3574  18.3623  18.4177  18.5255
    18.7690  18.7801  18.8312  18.8438  18.9919  19.0474  19.0512  19.1262
    19.5589  19.5599  19.6193  19.6590  19.7030  19.7125  19.9214  20.0085
    20.0134  20.1756  20.2602  20.2736  20.2877  20.3065  20.3215  20.3756
    20.4137  20.5689  20.5706  20.5785  20.6790  20.6887  20.7225  20.7744
    20.7864  20.7899  20.8388  20.8542  20.8649  20.9706  20.9759  21.1493
    21.1514  21.1902  21.5376  21.7288  21.7442  22.4359  22.8487  22.8534
    23.4517  23.4591

          k = 0.0556 0.2771 0.3889 ( 11362 PWs)   bands (ev):

   -66.8074 -66.7822 -66.7624 -66.7490 -66.7312 -66.7262 -66.7223 -66.7185
   -66.7181 -66.7171 -66.7162 -66.7143 -66.7002 -66.6927 -66.6775 -66.6579
   -33.0872 -33.0622 -33.0612 -33.0562 -33.0470 -33.0328 -33.0152 -33.0090
   -33.0083 -33.0070 -33.0040 -32.9916 -32.9876 -32.9127 -32.8952 -32.8643
   -32.8612 -32.8368 -32.8260 -32.8011 -32.7996 -32.7989 -32.7978 -32.7936
   -32.7930 -32.7863 -32.7693 -32.7568 -32.7552 -32.7284 -32.7068 -32.7000
   -32.6818 -32.6605 -32.6562 -32.6481 -32.6462 -32.6418 -32.6219 -32.6096
   -32.6094 -32.6068 -32.6045 -32.5972 -32.5887 -32.5876 -32.5613 -32.5610
    12.6019  13.6518  14.4892  14.9772  15.7693  15.8229  16.0162  16.0556
    16.0926  16.1477  16.1566  16.1757  16.2702  16.3495  16.4020  16.6693
    16.6719  16.7615  17.2516  17.2531  17.2948  17.3161  17.3457  17.4763
    17.4800  17.5199  17.6129  17.6183  17.8608  17.9514  17.9574  17.9848
    18.0956  18.1860  18.2032  18.2561  18.2757  18.2973  18.3860  18.4040
    18.4277  18.4834  18.4867  18.4989  18.6342  18.7080  19.3236  19.3399
    19.7022  19.7168  19.7707  19.8084  19.8118  19.8173  19.8239  19.9094
    20.0208  20.0742  20.1487  20.1895  20.2018  20.3237  20.3328  20.3588
    20.4645  20.4824  20.5001  20.5046  20.6074  20.6843  20.6986  20.7059
    20.7254  20.7869  20.8052  20.8241  20.8358  20.9100  20.9284  20.9978
    21.3213  21.3828  21.5259  21.6817  21.9975  22.5812  22.7246  23.2792
    23.5239  24.1185

          k = 0.0556 0.2771-0.5000 ( 11362 PWs)   bands (ev):

   -66.7959 -66.7957 -66.7563 -66.7561 -66.7288 -66.7286 -66.7206 -66.7204
   -66.7176 -66.7173 -66.7153 -66.7151 -66.6962 -66.6960 -66.6668 -66.6666
   -33.0634 -33.0633 -33.0365 -33.0363 -33.0362 -33.0361 -33.0353 -33.0353
   -33.0176 -33.0176 -33.0085 -33.0084 -32.9449 -32.9448 -32.8907 -32.8905
   -32.8310 -32.8309 -32.8187 -32.8186 -32.8146 -32.8144 -32.7914 -32.7912
   -32.7828 -32.7827 -32.7565 -32.7563 -32.7525 -32.7524 -32.6934 -32.6932
   -32.6901 -32.6899 -32.6296 -32.6294 -32.6260 -32.6258 -32.6243 -32.6242
   -32.6240 -32.6239 -32.6081 -32.6080 -32.5718 -32.5716 -32.5710 -32.5708
    13.0862  13.0867  14.7417  14.7421  15.8310  15.8313  16.1160  16.1163
    16.2414  16.2418  16.3114  16.3119  16.3720  16.3723  16.4356  16.4359
    16.4978  16.4981  17.2656  17.2657  17.2909  17.2910  17.5494  17.5496
    17.5694  17.5697  17.5780  17.5782  17.7802  17.7803  18.1448  18.1450
    18.1780  18.1782  18.1851  18.1853  18.2121  18.2124  18.2225  18.2225
    18.3830  18.3831  18.3895  18.3897  18.4474  18.4475  19.5382  19.5383
    19.6685  19.6686  19.7326  19.7328  19.9062  19.9064  19.9953  19.9953
    20.0135  20.0136  20.0389  20.0391  20.1798  20.1800  20.4170  20.4172
    20.4293  20.4295  20.5678  20.5680  20.6112  20.6113  20.6975  20.6977
    20.7200  20.7201  20.7454  20.7456  20.8410  20.8412  20.9685  20.9687
    21.4505  21.4507  21.5640  21.5640  22.2888  22.2890  23.0202  23.0204
    24.2185  24.2188

          k = 0.0556 0.3879 0.0556 ( 11373 PWs)   bands (ev):

   -66.8163 -66.7891 -66.7334 -66.7332 -66.7283 -66.7280 -66.7190 -66.7188
   -66.7183 -66.7183 -66.7180 -66.7170 -66.7154 -66.7145 -66.6740 -66.6519
   -33.0787 -33.0779 -33.0779 -33.0775 -33.0580 -33.0580 -33.0086 -33.0062
   -33.0026 -33.0025 -32.9743 -32.9742 -32.9685 -32.9529 -32.9261 -32.9138
   -32.8743 -32.8616 -32.8162 -32.8042 -32.7814 -32.7751 -32.7674 -32.7673
   -32.7595 -32.7595 -32.7386 -32.7385 -32.7375 -32.7375 -32.7206 -32.6765
   -32.6722 -32.6646 -32.6646 -32.6398 -32.6376 -32.6357 -32.6356 -32.6311
   -32.6083 -32.6082 -32.6074 -32.6073 -32.5914 -32.5866 -32.5866 -32.5848
    12.2217  13.3268  15.5222  15.5222  15.5224  15.5224  15.7362  15.7363
    15.9153  15.9154  15.9908  16.0075  16.0218  16.0846  16.2778  16.6232
    16.6404  16.6481  17.1388  17.1560  17.1902  17.1990  17.6278  17.6280
    17.7217  17.7219  17.7894  17.7895  17.9879  17.9880  18.1661  18.1663
    18.1967  18.2176  18.2812  18.2813  18.5524  18.5524  18.5535  18.5833
    18.6042  18.6138  18.7277  18.7278  18.9364  19.0460  19.0501  19.2802
    19.3723  19.6963  19.6964  19.7231  19.7231  19.9478  19.9580  20.0515
    20.0516  20.0782  20.1487  20.1488  20.4682  20.4773  20.5563  20.5802
    20.5830  20.6496  20.6672  20.6831  20.6892  20.7020  20.7756  20.7791
    20.7928  20.7929  20.9199  21.0113  21.0115  21.2016  21.2017  21.2797
    21.4567  21.4568  21.5006  21.5007  21.5692  21.5692  22.1662  22.1663
    22.2740  22.2740

          k = 0.0556 0.3879 0.1667 ( 11351 PWs)   bands (ev):

   -66.8133 -66.7868 -66.7479 -66.7386 -66.7325 -66.7276 -66.7201 -66.7186
   -66.7178 -66.7167 -66.7163 -66.7141 -66.7087 -66.7052 -66.6752 -66.6539
   -33.0876 -33.0731 -33.0723 -33.0696 -33.0545 -33.0288 -33.0221 -33.0113
   -33.0053 -33.0044 -32.9851 -32.9785 -32.9768 -32.9382 -32.9232 -32.8900
   -32.8720 -32.8330 -32.8292 -32.7972 -32.7970 -32.7897 -32.7805 -32.7781
   -32.7714 -32.7689 -32.7536 -32.7451 -32.7447 -32.7186 -32.7088 -32.6960
   -32.6706 -32.6667 -32.6605 -32.6550 -32.6423 -32.6322 -32.6298 -32.6101
   -32.6096 -32.6086 -32.6078 -32.6074 -32.5954 -32.5900 -32.5712 -32.5710
    12.3496  13.4360  15.0375  15.2733  15.6117  15.6261  15.8340  15.9258
    16.0014  16.0105  16.0636  16.0838  16.1393  16.1959  16.3344  16.6514
    16.6554  16.6663  17.1747  17.2176  17.2277  17.2519  17.5320  17.5781
    17.5936  17.6466  17.6493  17.7972  17.8740  18.0098  18.0542  18.1154
    18.2174  18.2304  18.2854  18.3025  18.4219  18.4233  18.4680  18.4982
    18.5147  18.5435  18.6191  18.7578  18.8319  18.8330  19.1080  19.4922
    19.5160  19.6750  19.6850  19.7316  19.7342  19.7523  19.9250  19.9965
    20.0321  20.0786  20.1488  20.1903  20.3676  20.4234  20.4473  20.5222
    20.5563  20.5623  20.5639  20.6789  20.6855  20.6940  20.6952  20.7476
    20.7704  20.8005  20.8362  20.9598  20.9660  21.0619  21.1029  21.2005
    21.2073  21.2119  21.4069  21.6034  21.6848  22.0373  22.3807  22.7094
    23.0624  23.2024

          k = 0.0556 0.3879 0.2778 ( 11361 PWs)   bands (ev):

   -66.8075 -66.7824 -66.7623 -66.7490 -66.7312 -66.7263 -66.7222 -66.7185
   -66.7181 -66.7172 -66.7161 -66.7142 -66.7003 -66.6926 -66.6777 -66.6579
   -33.0875 -33.0618 -33.0616 -33.0558 -33.0475 -33.0332 -33.0152 -33.0093
   -33.0082 -33.0069 -33.0041 -32.9917 -32.9878 -32.9126 -32.8957 -32.8643
   -32.8608 -32.8369 -32.8259 -32.8012 -32.7991 -32.7985 -32.7980 -32.7937
   -32.7924 -32.7853 -32.7699 -32.7559 -32.7546 -32.7290 -32.7067 -32.7000
   -32.6817 -32.6609 -32.6565 -32.6483 -32.6465 -32.6417 -32.6218 -32.6100
   -32.6091 -32.6074 -32.6045 -32.5968 -32.5882 -32.5880 -32.5612 -32.5609
    12.6000  13.6453  14.4954  14.9785  15.7686  15.8233  16.0175  16.0527
    16.0934  16.1474  16.1531  16.1724  16.2707  16.3550  16.3936  16.6659
    16.6685  16.7609  17.2452  17.2556  17.2892  17.3030  17.3335  17.4766
    17.4938  17.5319  17.6153  17.6178  17.8693  17.9516  17.9651  17.9839
    18.0954  18.1885  18.2029  18.2605  18.2751  18.2982  18.3796  18.4067
    18.4194  18.4882  18.4958  18.5100  18.6357  18.7056  19.3257  19.3434
    19.6972  19.7132  19.7752  19.8060  19.8084  19.8145  19.8184  19.9179
    20.0224  20.0681  20.1370  20.1763  20.1986  20.3207  20.3436  20.3709
    20.4677  20.4859  20.5035  20.5084  20.6134  20.6854  20.6939  20.7075
    20.7279  20.7964  20.8053  20.8282  20.8341  20.9094  20.9272  20.9946
    21.3226  21.3810  21.5260  21.6809  21.9962  22.5774  22.7227  23.2734
    23.5275  24.1514

          k = 0.0556 0.3879 0.3889 ( 11359 PWs)   bands (ev):

   -66.7991 -66.7761 -66.7759 -66.7589 -66.7293 -66.7247 -66.7245 -66.7205
   -66.7175 -66.7164 -66.7163 -66.7147 -66.6928 -66.6815 -66.6813 -66.6639
   -33.0778 -33.0472 -33.0470 -33.0385 -33.0381 -33.0360 -33.0357 -33.0211
   -33.0202 -33.0182 -33.0172 -33.0019 -32.9474 -32.8970 -32.8527 -32.8525
   -32.8489 -32.8486 -32.8346 -32.8291 -32.8205 -32.8054 -32.8045 -32.8033
   -32.7890 -32.7693 -32.7687 -32.7630 -32.7625 -32.7621 -32.7522 -32.6925
   -32.6833 -32.6573 -32.6571 -32.6390 -32.6327 -32.6295 -32.6182 -32.6150
   -32.6136 -32.6131 -32.6079 -32.6076 -32.5716 -32.5713 -32.5578 -32.5575
    12.9621  13.9365  13.9409  14.6402  15.9432  16.0868  16.0884  16.2339
    16.2556  16.2581  16.2691  16.2861  16.3948  16.3992  16.4699  16.5840
    16.6420  16.9767  16.9783  17.2933  17.3097  17.3738  17.3898  17.3997
    17.4005  17.4085  17.4925  17.6126  17.6970  17.8062  17.9164  17.9975
    17.9978  18.0867  18.1487  18.1627  18.1737  18.1819  18.2088  18.2148
    18.3438  18.3444  18.3498  18.4302  18.4681  18.9886  18.9905  19.5620
    19.6611  19.7380  19.7992  19.8036  19.9185  19.9193  19.9404  19.9497
    20.0670  20.0697  20.1020  20.1861  20.2241  20.2307  20.2322  20.2420
    20.2512  20.4233  20.4271  20.4422  20.5296  20.6219  20.6267  20.6518
    20.7014  20.7319  20.7644  20.7655  20.8022  20.8568  20.8589  20.8822
    21.5069  21.5080  21.5858  21.6919  22.3719  23.1188  23.1556  23.1581
    23.8861  23.8897

          k = 0.0556 0.3879-0.5000 ( 11366 PWs)   bands (ev):

   -66.7885 -66.7883 -66.7682 -66.7680 -66.7271 -66.7269 -66.7228 -66.7226
   -66.7169 -66.7167 -66.7156 -66.7154 -66.6866 -66.6864 -66.6718 -66.6716
   -33.0603 -33.0601 -33.0316 -33.0315 -33.0314 -33.0313 -33.0312 -33.0311
   -33.0293 -33.0292 -33.0194 -33.0193 -32.8989 -32.8988 -32.8767 -32.8765
   -32.8379 -32.8377 -32.8227 -32.8226 -32.8076 -32.8075 -32.8005 -32.8003
   -32.7961 -32.7960 -32.7809 -32.7808 -32.7678 -32.7676 -32.7265 -32.7264
   -32.6690 -32.6688 -32.6359 -32.6357 -32.6220 -32.6219 -32.6213 -32.6212
   -32.6201 -32.6200 -32.6102 -32.6101 -32.5613 -32.5612 -32.5610 -32.5608
    13.4175  13.4180  14.2804  14.2809  16.0619  16.0622  16.3237  16.3239
    16.3373  16.3378  16.3564  16.3569  16.3707  16.3710  16.4969  16.4972
    16.7117  16.7120  17.2740  17.2744  17.3235  17.3236  17.3262  17.3263
    17.3867  17.3870  17.4428  17.4431  17.8260  17.8261  17.9419  17.9421
    18.0288  18.0290  18.0386  18.0388  18.0540  18.0540  18.0997  18.0999
    18.3604  18.3606  18.3819  18.3821  18.6539  18.6540  19.3105  19.3105
    19.7359  19.7361  19.8095  19.8096  19.9862  19.9864  20.0379  20.0381
    20.0902  20.0904  20.0961  20.0962  20.1002  20.1004  20.3251  20.3253
    20.3321  20.3323  20.3641  20.3641  20.5044  20.5047  20.5515  20.5517
    20.7255  20.7257  20.7762  20.7764  20.7898  20.7900  20.8708  20.8710
    21.5781  21.5782  21.6339  21.6340  22.7679  22.7681  23.5207  23.5210
    23.7473  23.7476

          k = 0.0556-0.4988 0.0556 ( 11356 PWs)   bands (ev):

   -66.8038 -66.8036 -66.7309 -66.7309 -66.7309 -66.7305 -66.7186 -66.7185
   -66.7185 -66.7181 -66.7170 -66.7168 -66.7158 -66.7157 -66.6620 -66.6618
   -33.0459 -33.0457 -33.0456 -33.0454 -33.0428 -33.0428 -33.0427 -33.0427
   -33.0185 -33.0184 -33.0184 -33.0184 -32.9630 -32.9629 -32.9025 -32.9023
   -32.8899 -32.8898 -32.7988 -32.7986 -32.7901 -32.7900 -32.7638 -32.7637
   -32.7636 -32.7635 -32.7380 -32.7380 -32.7378 -32.7378 -32.6767 -32.6766
   -32.6393 -32.6391 -32.6375 -32.6373 -32.6337 -32.6337 -32.6336 -32.6336
   -32.6134 -32.6132 -32.6084 -32.6083 -32.6083 -32.6082 -32.6057 -32.6055
    12.7287  12.7288  15.5463  15.5463  15.5463  15.5464  15.8476  15.8477
    15.8477  15.8477  16.1709  16.1710  16.3108  16.3109  16.3190  16.3191
    16.3288  16.3290  17.1571  17.1572  17.1665  17.1666  17.8425  17.8426
    17.8426  17.8427  17.9380  17.9380  17.9381  17.9382  18.1419  18.1419
    18.1420  18.1421  18.3007  18.3007  18.3008  18.3008  18.5664  18.5664
    18.5915  18.5916  18.5923  18.5924  18.6051  18.6052  19.0938  19.0941
    19.6810  19.6812  19.8861  19.8862  19.8862  19.8863  19.9595  19.9595
    19.9596  19.9596  20.3020  20.3020  20.4284  20.4285  20.5238  20.5240
    20.5292  20.5295  20.6560  20.6561  20.6752  20.6753  20.6903  20.6904
    21.0509  21.0510  21.0510  21.0511  21.1160  21.1161  21.2624  21.2624
    21.2625  21.2626  21.5199  21.5199  21.5200  21.5200  22.2483  22.2483
    22.2484  22.2484

          k = 0.0556-0.4988 0.1667 ( 11354 PWs)   bands (ev):

   -66.8012 -66.8010 -66.7436 -66.7434 -66.7302 -66.7300 -66.7186 -66.7183
   -66.7182 -66.7180 -66.7153 -66.7151 -66.7068 -66.7066 -66.6636 -66.6634
   -33.0580 -33.0579 -33.0424 -33.0422 -33.0419 -33.0417 -33.0402 -33.0401
   -33.0180 -33.0180 -32.9855 -32.9855 -32.9836 -32.9836 -32.8999 -32.8996
   -32.8632 -32.8631 -32.8096 -32.8095 -32.7895 -32.7893 -32.7852 -32.7851
   -32.7741 -32.7740 -32.7449 -32.7447 -32.7130 -32.7128 -32.7087 -32.7087
   -32.6624 -32.6623 -32.6366 -32.6365 -32.6324 -32.6323 -32.6293 -32.6293
   -32.6167 -32.6166 -32.6078 -32.6078 -32.5881 -32.5881 -32.5873 -32.5872
    12.8487  12.8488  15.1757  15.1758  15.6461  15.6462  15.9427  15.9428
    16.0801  16.0801  16.2316  16.2317  16.3336  16.3337  16.3622  16.3623
    16.3741  16.3744  17.1904  17.1905  17.2150  17.2151  17.7368  17.7369
    17.7542  17.7543  17.7848  17.7849  17.8413  17.8415  18.1676  18.1676
    18.2058  18.2059  18.2702  18.2704  18.3882  18.3884  18.4082  18.4083
    18.4164  18.4164  18.4574  18.4575  18.5299  18.5299  19.2896  19.2899
    19.7664  19.7666  19.7956  19.7957  19.9166  19.9167  19.9617  19.9618
    19.9990  19.9990  20.0191  20.0191  20.3582  20.3582  20.4900  20.4902
    20.5034  20.5036  20.6246  20.6247  20.6788  20.6789  20.7179  20.7180
    20.8240  20.8241  20.9262  20.9263  21.0348  21.0348  21.1125  21.1125
    21.2758  21.2759  21.4364  21.4364  21.8495  21.8495  22.5640  22.5641
    23.1942  23.1942

          k = 0.0556-0.4988 0.2778 ( 11368 PWs)   bands (ev):

   -66.7960 -66.7958 -66.7562 -66.7560 -66.7289 -66.7287 -66.7205 -66.7203
   -66.7177 -66.7175 -66.7152 -66.7151 -66.6961 -66.6959 -66.6669 -66.6667
   -33.0637 -33.0637 -33.0363 -33.0362 -33.0362 -33.0361 -33.0360 -33.0358
   -33.0182 -33.0181 -33.0084 -33.0084 -32.9452 -32.9452 -32.8907 -32.8904
   -32.8303 -32.8302 -32.8190 -32.8190 -32.8145 -32.8143 -32.7905 -32.7904
   -32.7831 -32.7831 -32.7558 -32.7556 -32.7521 -32.7521 -32.6937 -32.6936
   -32.6900 -32.6899 -32.6301 -32.6300 -32.6264 -32.6263 -32.6244 -32.6243
   -32.6237 -32.6237 -32.6079 -32.6079 -32.5715 -32.5715 -32.5713 -32.5711
    13.0823  13.0824  14.7454  14.7455  15.8306  15.8307  16.1164  16.1164
    16.2441  16.2441  16.3055  16.3056  16.3681  16.3682  16.4313  16.4314
    16.4982  16.4984  17.2557  17.2558  17.2822  17.2823  17.5538  17.5539
    17.5714  17.5716  17.5863  17.5863  17.7794  17.7795  18.1562  18.1563
    18.1759  18.1760  18.1869  18.1870  18.2218  18.2219  18.2225  18.2226
    18.3818  18.3818  18.3913  18.3914  18.4501  18.4501  19.5416  19.5418
    19.6713  19.6714  19.7310  19.7311  19.9001  19.9003  19.9861  19.9862
    20.0033  20.0034  20.0351  20.0352  20.1863  20.1863  20.4244  20.4246
    20.4376  20.4378  20.5680  20.5681  20.6126  20.6127  20.6992  20.6993
    20.7250  20.7251  20.7483  20.7484  20.8404  20.8405  20.9669  20.9670
    21.4512  21.4513  21.5628  21.5628  22.2862  22.2863  23.0163  23.0164
    24.2209  24.2209

          k = 0.0556-0.4988 0.3889 ( 11368 PWs)   bands (ev):

   -66.7885 -66.7883 -66.7682 -66.7679 -66.7271 -66.7269 -66.7227 -66.7225
   -66.7169 -66.7167 -66.7156 -66.7154 -66.6865 -66.6864 -66.6719 -66.6717
   -33.0603 -33.0602 -33.0317 -33.0316 -33.0314 -33.0312 -33.0312 -33.0311
   -33.0292 -33.0290 -33.0195 -33.0194 -32.8991 -32.8991 -32.8767 -32.8765
   -32.8379 -32.8377 -32.8231 -32.8231 -32.8071 -32.8071 -32.8002 -32.8002
   -32.7958 -32.7958 -32.7810 -32.7810 -32.7673 -32.7672 -32.7267 -32.7266
   -32.6690 -32.6688 -32.6359 -32.6358 -32.6223 -32.6222 -32.6216 -32.6215
   -32.6199 -32.6198 -32.6100 -32.6099 -32.5613 -32.5612 -32.5610 -32.5609
    13.4155  13.4156  14.2826  14.2827  16.0624  16.0624  16.3247  16.3248
    16.3391  16.3392  16.3541  16.3543  16.3690  16.3691  16.4946  16.4946
    16.7112  16.7113  17.2752  17.2753  17.3192  17.3193  17.3204  17.3205
    17.3888  17.3889  17.4473  17.4474  17.8256  17.8257  17.9481  17.9482
    18.0336  18.0336  18.0365  18.0366  18.0539  18.0540  18.0995  18.0995
    18.3608  18.3608  18.3829  18.3829  18.6531  18.6531  19.3116  19.3117
    19.7345  19.7346  19.8109  19.8110  19.9891  19.9892  20.0357  20.0358
    20.0889  20.0889  20.0915  20.0917  20.0952  20.0953  20.3292  20.3294
    20.3367  20.3369  20.3630  20.3631  20.5040  20.5041  20.5551  20.5552
    20.7261  20.7262  20.7774  20.7775  20.7896  20.7897  20.8700  20.8701
    21.5786  21.5787  21.6333  21.6334  22.7666  22.7667  23.5189  23.5190
    23.7486  23.7486

          k = 0.0556-0.4988-0.5000 ( 11372 PWs)   bands (ev):

   -66.7792 -66.7790 -66.7790 -66.7788 -66.7251 -66.7249 -66.7249 -66.7247
   -66.7163 -66.7161 -66.7161 -66.7159 -66.6786 -66.6784 -66.6784 -66.6782
   -33.0493 -33.0492 -33.0491 -33.0490 -33.0298 -33.0297 -33.0296 -33.0295
   -33.0233 -33.0231 -33.0231 -33.0229 -32.8592 -32.8590 -32.8589 -32.8587
   -32.8502 -32.8501 -32.8500 -32.8499 -32.8191 -32.8190 -32.8189 -32.8188
   -32.7761 -32.7760 -32.7759 -32.7757 -32.7613 -32.7612 -32.7611 -32.7611
   -32.6510 -32.6509 -32.6508 -32.6506 -32.6191 -32.6190 -32.6189 -32.6189
   -32.6150 -32.6148 -32.6147 -32.6147 -32.5578 -32.5577 -32.5576 -32.5574
    13.8259  13.8261  13.8265  13.8265  16.2688  16.2689  16.2691  16.2691
    16.3704  16.3705  16.3708  16.3711  16.4769  16.4769  16.4771  16.4772
    16.9798  16.9799  16.9801  16.9802  17.3154  17.3156  17.3157  17.3157
    17.3633  17.3635  17.3636  17.3636  17.9189  17.9191  17.9192  17.9193
    17.9226  17.9227  17.9228  17.9229  18.0111  18.0112  18.0112  18.0114
    18.3509  18.3510  18.3510  18.3510  18.9667  18.9667  18.9667  18.9668
    19.8248  19.8249  19.8250  19.8251  20.0813  20.0813  20.0813  20.0814
    20.1174  20.1174  20.1176  20.1176  20.2131  20.2133  20.2133  20.2134
    20.2155  20.2157  20.2157  20.2158  20.4817  20.4818  20.4819  20.4820
    20.7550  20.7551  20.7552  20.7553  20.8127  20.8128  20.8129  20.8130
    21.6399  21.6400  21.6401  21.6402  23.2603  23.2604  23.2605  23.2606
    24.0294  24.0296

          k = 0.1667 0.0554 0.1667 ( 11353 PWs)   bands (ev):

   -66.8295 -66.7540 -66.7538 -66.7363 -66.7280 -66.7229 -66.7226 -66.7198
   -66.7184 -66.7182 -66.7146 -66.7138 -66.7127 -66.7036 -66.7034 -66.6417
   -33.1213 -33.1151 -33.1151 -33.1070 -33.1070 -33.0950 -32.9741 -32.9560
   -32.9491 -32.9438 -32.9436 -32.9360 -32.9326 -32.9292 -32.9040 -32.8591
   -32.8436 -32.8435 -32.8098 -32.8090 -32.8089 -32.7784 -32.7676 -32.7674
   -32.7628 -32.7586 -32.7585 -32.7476 -32.7475 -32.7448 -32.7419 -32.7346
   -32.7235 -32.7104 -32.7046 -32.7045 -32.6795 -32.6672 -32.6669 -32.5995
   -32.5870 -32.5771 -32.5771 -32.5693 -32.5693 -32.5675 -32.5592 -32.5568
    11.6927  14.7508  14.7508  15.3836  15.4133  15.5428  15.5428  15.6193
    15.6193  15.6300  15.8226  15.8328  15.9029  16.1981  16.1981  16.9848
    17.0983  17.2741  17.3233  17.3234  17.3259  17.3261  17.3485  17.3630
    17.3631  17.3929  17.4725  17.5880  17.6159  17.6277  17.9102  18.2964
    18.2965  18.5076  18.5684  18.5685  18.5901  18.6310  18.7750  18.8098
    19.1055  19.1056  19.1869  19.1870  19.2333  19.2926  19.3963  19.4839
    19.4839  19.5022  19.5024  19.6826  19.6826  19.8507  19.9440  19.9441
    20.1941  20.3050  20.3051  20.3079  20.3624  20.3625  20.3683  20.3846
    20.4084  20.5750  20.6268  20.6599  20.6601  20.6699  20.6701  20.6751
    20.6758  20.7807  20.7807  21.0013  21.1069  21.1070  21.1338  21.1340
    21.2396  21.4780  21.5042  21.6354  21.7096  22.0352  22.3801  22.3802
    22.5841  22.7513

          k = 0.1667 0.0554 0.2778 ( 11363 PWs)   bands (ev):

   -66.8229 -66.7707 -66.7514 -66.7348 -66.7332 -66.7251 -66.7217 -66.7194
   -66.7179 -66.7175 -66.7151 -66.7133 -66.7112 -66.7042 -66.6885 -66.6465
   -33.1089 -33.0980 -33.0977 -33.0917 -33.0846 -33.0659 -32.9824 -32.9804
   -32.9790 -32.9675 -32.9656 -32.9635 -32.9437 -32.9384 -32.9128 -32.8891
   -32.8475 -32.8426 -32.8058 -32.8049 -32.8012 -32.7995 -32.7802 -32.7727
   -32.7714 -32.7637 -32.7577 -32.7460 -32.7443 -32.7318 -32.7266 -32.7076
   -32.7067 -32.6914 -32.6824 -32.6723 -32.6542 -32.6373 -32.6370 -32.6299
   -32.6075 -32.5897 -32.5894 -32.5845 -32.5790 -32.5768 -32.5623 -32.5606
    11.9613  14.0915  14.8840  15.3364  15.5143  15.5807  15.7165  15.7399
    15.7685  15.8080  15.9384  15.9584  15.9722  16.2334  16.3494  16.8681
    16.9508  16.9766  17.2120  17.2881  17.3009  17.3182  17.3634  17.4299
    17.4329  17.4891  17.5770  17.6381  17.7519  17.8157  17.8166  18.1628
    18.3104  18.4254  18.4345  18.4508  18.4947  18.5460  18.5729  18.7609
    18.7833  18.9418  18.9729  19.1262  19.1867  19.2651  19.2996  19.3009
    19.3690  19.4825  19.4984  19.5511  19.5817  19.7075  19.7360  20.0696
    20.1946  20.2090  20.2507  20.2840  20.3338  20.3505  20.3883  20.4306
    20.5977  20.6165  20.6180  20.6710  20.6762  20.7005  20.7009  20.7246
    20.7680  20.8739  20.8968  20.9126  20.9127  20.9471  20.9988  21.1050
    21.2137  21.4321  21.4876  21.5501  21.7037  22.1781  22.2187  22.7750
    22.8933  23.0178

          k = 0.1667 0.0554 0.3889 ( 11344 PWs)   bands (ev):

   -66.8132 -66.7866 -66.7478 -66.7384 -66.7327 -66.7277 -66.7202 -66.7188
   -66.7179 -66.7168 -66.7165 -66.7142 -66.7085 -66.7051 -66.6750 -66.6539
   -33.0869 -33.0733 -33.0719 -33.0697 -33.0541 -33.0282 -33.0211 -33.0112
   -33.0053 -33.0037 -32.9837 -32.9778 -32.9760 -32.9376 -32.9254 -32.8898
   -32.8740 -32.8331 -32.8293 -32.7988 -32.7974 -32.7890 -32.7821 -32.7782
   -32.7707 -32.7690 -32.7540 -32.7452 -32.7448 -32.7199 -32.7100 -32.6957
   -32.6698 -32.6667 -32.6599 -32.6543 -32.6429 -32.6325 -32.6292 -32.6104
   -32.6096 -32.6078 -32.6071 -32.6068 -32.5957 -32.5895 -32.5717 -32.5712
    12.3535  13.4447  15.0401  15.2758  15.6049  15.6245  15.8327  15.9256
    15.9952  16.0147  16.0681  16.0893  16.1396  16.1970  16.3459  16.6563
    16.6589  16.6744  17.1825  17.2258  17.2427  17.2665  17.5347  17.5749
    17.5794  17.6449  17.6511  17.7959  17.8559  17.9950  18.0411  18.1026
    18.2198  18.2307  18.2930  18.3026  18.4110  18.4123  18.4529  18.4950
    18.5213  18.5548  18.6163  18.7669  18.8179  18.8183  19.0989  19.4832
    19.5272  19.6729  19.6863  19.7387  19.7407  19.7678  19.9380  20.0103
    20.0246  20.0797  20.1517  20.2083  20.3602  20.4131  20.4369  20.5159
    20.5549  20.5605  20.5632  20.6686  20.6749  20.6843  20.6873  20.7524
    20.7594  20.7942  20.8391  20.9548  20.9563  21.0631  21.1025  21.2015
    21.2017  21.2137  21.4088  21.6066  21.6735  22.0360  22.3629  22.7025
    23.0689  23.2171

          k = 0.1667 0.0554-0.5000 ( 11338 PWs)   bands (ev):

   -66.8010 -66.8008 -66.7435 -66.7433 -66.7303 -66.7301 -66.7187 -66.7185
   -66.7183 -66.7181 -66.7155 -66.7152 -66.7067 -66.7064 -66.6635 -66.6633
   -33.0570 -33.0570 -33.0424 -33.0422 -33.0420 -33.0418 -33.0395 -33.0393
   -33.0174 -33.0173 -32.9849 -32.9849 -32.9825 -32.9825 -32.9020 -32.9018
   -32.8631 -32.8630 -32.8094 -32.8093 -32.7912 -32.7909 -32.7851 -32.7850
   -32.7742 -32.7740 -32.7448 -32.7446 -32.7144 -32.7141 -32.7089 -32.7088
   -32.6624 -32.6624 -32.6357 -32.6354 -32.6317 -32.6315 -32.6287 -32.6286
   -32.6172 -32.6169 -32.6072 -32.6071 -32.5883 -32.5882 -32.5875 -32.5875
    12.8547  12.8553  15.1786  15.1789  15.6424  15.6428  15.9395  15.9398
    16.0805  16.0808  16.2405  16.2408  16.3397  16.3400  16.3684  16.3687
    16.3741  16.3746  17.2019  17.2021  17.2262  17.2264  17.7383  17.7384
    17.7560  17.7562  17.7674  17.7675  17.8457  17.8460  18.1514  18.1515
    18.2021  18.2022  18.2670  18.2672  18.3936  18.3938  18.3973  18.3974
    18.4022  18.4024  18.4437  18.4439  18.5387  18.5389  19.2802  19.2804
    19.7792  19.7795  19.8076  19.8076  19.9206  19.9207  19.9666  19.9668
    20.0091  20.0092  20.0162  20.0162  20.3506  20.3508  20.4838  20.4841
    20.4970  20.4973  20.6236  20.6238  20.6683  20.6685  20.7069  20.7071
    20.8239  20.8241  20.9163  20.9164  21.0367  21.0369  21.1065  21.1065
    21.2768  21.2769  21.4388  21.4389  21.8445  21.8447  22.5521  22.5523
    23.2044  23.2047

          k = 0.1667 0.1663 0.1667 ( 11347 PWs)   bands (ev):

   -66.8262 -66.7529 -66.7528 -66.7526 -66.7276 -66.7274 -66.7273 -66.7155
   -66.7146 -66.7144 -66.7143 -66.7120 -66.7040 -66.7039 -66.7037 -66.6440
   -33.1130 -33.1129 -33.1125 -33.0891 -33.0891 -33.0887 -32.9698 -32.9693
   -32.9674 -32.9611 -32.9610 -32.9607 -32.9134 -32.9078 -32.9076 -32.8666
   -32.8665 -32.8658 -32.8154 -32.8153 -32.8146 -32.7715 -32.7702 -32.7701
   -32.7614 -32.7606 -32.7434 -32.7433 -32.7425 -32.7390 -32.7377 -32.7376
   -32.7067 -32.7066 -32.7063 -32.6981 -32.6513 -32.6511 -32.6505 -32.6208
   -32.5907 -32.5899 -32.5899 -32.5672 -32.5664 -32.5663 -32.5629 -32.5627
    11.8270  14.8179  14.8298  14.8298  15.4899  15.4901  15.4901  15.7252
    15.7267  15.7267  15.8867  15.8929  16.2380  16.2508  16.2508  16.9014
    17.2029  17.2032  17.2952  17.2979  17.2980  17.3288  17.3483  17.3484
    17.4385  17.4577  17.4579  17.4772  17.5514  17.5626  18.1416  18.1439
    18.1439  18.4955  18.4956  18.4958  18.5036  18.5071  18.9271  18.9271
    18.9289  18.9347  19.1145  19.1145  19.1265  19.2968  19.2970  19.2971
    19.5108  19.5109  19.5275  19.5738  19.5740  19.5844  20.1444  20.1444
    20.1494  20.2139  20.2140  20.2294  20.3246  20.3410  20.3648  20.3649
    20.3818  20.6231  20.6231  20.6298  20.6518  20.6539  20.6600  20.6632
    20.7267  20.7770  20.7771  20.7774  21.1138  21.1305  21.1306  21.3357
    21.3358  21.3444  21.3623  21.3674  22.0828  22.0829  22.0861  22.8175
    22.8539  22.8539

          k = 0.1667 0.1663 0.2778 ( 11371 PWs)   bands (ev):

   -66.8198 -66.7690 -66.7505 -66.7502 -66.7327 -66.7324 -66.7263 -66.7175
   -66.7140 -66.7119 -66.7113 -66.7111 -66.7046 -66.7043 -66.6893 -66.6488
   -33.1008 -33.1004 -33.0954 -33.0769 -33.0618 -33.0616 -32.9918 -32.9889
   -32.9886 -32.9796 -32.9781 -32.9556 -32.9549 -32.9028 -32.9023 -32.8905
   -32.8846 -32.8506 -32.8235 -32.8170 -32.8159 -32.7865 -32.7833 -32.7818
   -32.7755 -32.7693 -32.7457 -32.7306 -32.7294 -32.7152 -32.7128 -32.7122
   -32.7099 -32.7092 -32.6729 -32.6727 -32.6523 -32.6291 -32.6284 -32.6247
   -32.6078 -32.6070 -32.5975 -32.5826 -32.5749 -32.5699 -32.5690 -32.5636
    12.0927  14.1872  14.9601  14.9709  15.4451  15.4465  15.6965  15.8623
    15.8633  15.9090  16.0063  16.0119  16.2968  16.3074  16.4111  16.8219
    16.9768  17.0433  17.1776  17.3067  17.3093  17.3103  17.3970  17.4087
    17.4138  17.4278  17.5797  17.5853  17.6039  17.7719  17.9988  17.9988
    18.2874  18.3130  18.3219  18.4003  18.4193  18.4808  18.6659  18.6757
    18.6802  18.6912  18.9086  19.0491  19.0632  19.0653  19.0818  19.1245
    19.4216  19.5215  19.5256  19.6676  19.6726  19.8258  19.9116  20.1037
    20.1174  20.2195  20.2803  20.3082  20.3232  20.3847  20.3942  20.3943
    20.4164  20.4179  20.6108  20.6121  20.6286  20.6526  20.6665  20.6668
    20.6761  20.8934  20.9432  20.9461  20.9734  21.0411  21.1161  21.1192
    21.1333  21.4122  21.4173  21.4251  21.8205  21.8222  22.7092  23.0200
    23.0530  23.4692

          k = 0.1667 0.1663 0.3889 ( 11372 PWs)   bands (ev):

   -66.8103 -66.7844 -66.7469 -66.7467 -66.7378 -66.7375 -66.7244 -66.7198
   -66.7133 -66.7121 -66.7088 -66.7086 -66.7055 -66.7053 -66.6762 -66.6558
   -33.0805 -33.0800 -33.0698 -33.0593 -33.0271 -33.0269 -33.0211 -33.0209
   -33.0151 -32.9984 -32.9874 -32.9873 -32.9447 -32.9444 -32.9366 -32.8831
   -32.8651 -32.8592 -32.8131 -32.8117 -32.8083 -32.8067 -32.7950 -32.7936
   -32.7784 -32.7697 -32.7552 -32.7233 -32.7224 -32.7133 -32.7125 -32.6903
   -32.6825 -32.6818 -32.6735 -32.6483 -32.6422 -32.6291 -32.6284 -32.6099
   -32.6078 -32.6070 -32.6065 -32.6016 -32.5923 -32.5774 -32.5766 -32.5704
    12.4801  13.5540  15.1286  15.1374  15.3831  15.3867  15.9865  16.0191
    16.0194  16.1568  16.1625  16.1825  16.2808  16.2871  16.4155  16.6756
    16.6760  16.7046  17.1858  17.2636  17.2996  17.3293  17.4442  17.4478
    17.5402  17.5582  17.7524  17.7687  17.8579  17.8738  17.8822  18.0346
    18.1913  18.1925  18.2670  18.2759  18.3445  18.3620  18.3672  18.3902
    18.4013  18.4497  18.5912  18.6025  18.6178  18.6329  19.2599  19.3805
    19.6228  19.6795  19.7681  19.7691  19.7719  19.7787  19.9874  19.9982
    20.0394  20.0520  20.1280  20.1865  20.1986  20.3650  20.4306  20.4852
    20.5405  20.5534  20.6355  20.6487  20.6511  20.6563  20.6929  20.7276
    20.7340  20.7463  20.8015  20.8542  21.1232  21.1280  21.1502  21.1682
    21.1763  21.3836  21.3879  21.3950  21.5651  21.5657  23.2566  23.2862
    23.4006  23.5624

          k = 0.1667 0.1663-0.5000 ( 11368 PWs)   bands (ev):

   -66.7985 -66.7983 -66.7427 -66.7425 -66.7424 -66.7422 -66.7223 -66.7221
   -66.7128 -66.7126 -66.7070 -66.7068 -66.7067 -66.7065 -66.6651 -66.6649
   -33.0530 -33.0529 -33.0525 -33.0525 -33.0383 -33.0382 -33.0372 -33.0370
   -32.9903 -32.9903 -32.9873 -32.9872 -32.9870 -32.9869 -32.9123 -32.9121
   -32.8369 -32.8368 -32.8336 -32.8335 -32.8052 -32.8050 -32.8037 -32.8035
   -32.7642 -32.7641 -32.7333 -32.7332 -32.7178 -32.7176 -32.7167 -32.7166
   -32.6541 -32.6541 -32.6535 -32.6533 -32.6370 -32.6368 -32.6272 -32.6270
   -32.6152 -32.6150 -32.5900 -32.5900 -32.5894 -32.5893 -32.5833 -32.5832
    12.9742  12.9747  15.2789  15.2793  15.2852  15.2855  16.1719  16.1722
    16.1746  16.1749  16.3135  16.3139  16.3343  16.3347  16.4071  16.4076
    16.4330  16.4333  17.2183  17.2185  17.2824  17.2825  17.7037  17.7040
    17.7042  17.7045  17.7082  17.7084  17.7240  17.7241  18.1627  18.1628
    18.1704  18.1705  18.2093  18.2095  18.2809  18.2811  18.2882  18.2884
    18.3293  18.3295  18.3349  18.3350  18.4129  18.4130  19.4599  19.4600
    19.6922  19.6922  19.8457  19.8459  19.8735  19.8737  19.8801  19.8802
    20.0021  20.0023  20.0116  20.0117  20.4550  20.4553  20.4612  20.4614
    20.4898  20.4901  20.5960  20.5963  20.6425  20.6427  20.7482  20.7483
    20.7520  20.7521  20.7637  20.7639  21.2810  21.2810  21.2872  21.2873
    21.2915  21.2917  21.3262  21.3263  21.3279  21.3280  23.4631  23.4633
    23.4895  23.4898

          k = 0.1667 0.2771 0.1667 ( 11377 PWs)   bands (ev):

   -66.8198 -66.7692 -66.7503 -66.7501 -66.7328 -66.7325 -66.7260 -66.7175
   -66.7137 -66.7119 -66.7114 -66.7112 -66.7045 -66.7043 -66.6895 -66.6488
   -33.1011 -33.1010 -33.0950 -33.0765 -33.0620 -33.0620 -32.9920 -32.9896
   -32.9894 -32.9808 -32.9781 -32.9550 -32.9543 -32.9030 -32.9029 -32.8905
   -32.8845 -32.8498 -32.8231 -32.8163 -32.8162 -32.7874 -32.7819 -32.7818
   -32.7749 -32.7689 -32.7465 -32.7295 -32.7294 -32.7160 -32.7130 -32.7129
   -32.7092 -32.7092 -32.6728 -32.6727 -32.6522 -32.6292 -32.6290 -32.6241
   -32.6072 -32.6072 -32.5983 -32.5834 -32.5747 -32.5692 -32.5691 -32.5634
    12.0914  14.1770  14.9699  14.9699  15.4456  15.4456  15.6951  15.8636
    15.8636  15.9062  16.0046  16.0115  16.3067  16.3067  16.3989  16.8184
    16.9755  17.0355  17.1736  17.2928  17.3084  17.3085  17.3804  17.4059
    17.4273  17.4274  17.5904  17.6031  17.6032  17.7821  18.0010  18.0011
    18.2864  18.3170  18.3171  18.4076  18.4265  18.4731  18.6726  18.6726
    18.6810  18.6810  18.9211  19.0497  19.0498  19.0807  19.0850  19.1319
    19.4166  19.5185  19.5186  19.6623  19.6623  19.8371  19.9176  20.1040
    20.1041  20.2078  20.2934  20.3059  20.3059  20.3963  20.3999  20.4037
    20.4167  20.4168  20.6083  20.6106  20.6351  20.6583  20.6726  20.6727
    20.6738  20.8826  20.9451  20.9452  20.9727  21.0503  21.1221  21.1329
    21.1330  21.4083  21.4188  21.4189  21.8194  21.8195  22.7130  23.0508
    23.0508  23.4724

          k = 0.1667 0.2771 0.2778 ( 11369 PWs)   bands (ev):

   -66.8136 -66.7658 -66.7656 -66.7479 -66.7403 -66.7310 -66.7308 -66.7203
   -66.7111 -66.7109 -66.7108 -66.7055 -66.7048 -66.6910 -66.6908 -66.6532
   -33.0945 -33.0844 -33.0840 -33.0539 -33.0535 -33.0307 -33.0044 -33.0024
   -33.0023 -33.0020 -32.9878 -32.9645 -32.9514 -32.9272 -32.8958 -32.8641
   -32.8613 -32.8608 -32.8508 -32.8504 -32.8274 -32.8025 -32.8013 -32.8000
   -32.7541 -32.7440 -32.7432 -32.7365 -32.7357 -32.7143 -32.7138 -32.6988
   -32.6885 -32.6861 -32.6762 -32.6760 -32.6541 -32.6283 -32.6171 -32.6099
   -32.6093 -32.6064 -32.6058 -32.5846 -32.5838 -32.5821 -32.5660 -32.5636
    12.3509  14.3578  14.3662  15.1271  15.2902  15.6591  15.6595  16.0228
    16.0395  16.0420  16.1115  16.1367  16.4115  16.4664  16.4761  16.7909
    16.9736  17.0288  17.0296  17.2349  17.2563  17.3656  17.3822  17.4521
    17.4646  17.4818  17.4962  17.5109  17.7562  17.7679  17.8438  18.1118
    18.1146  18.2086  18.2544  18.2611  18.3164  18.3344  18.4171  18.4848
    18.5433  18.5533  18.6907  18.7039  18.7618  18.8302  18.8338  19.2710
    19.6217  19.6234  19.6588  19.7815  19.8535  19.8637  19.9967  20.0407
    20.1912  20.1996  20.2024  20.2029  20.2151  20.2893  20.3263  20.3419
    20.3737  20.5772  20.5792  20.5811  20.6112  20.6432  20.6511  20.6535
    20.6696  20.8487  20.8582  20.9696  20.9977  21.1123  21.1143  21.1315
    21.1383  21.2264  21.4005  21.5005  21.5038  22.3675  22.3702  23.3224
    24.0651  24.1036

          k = 0.1667 0.2771 0.3889 ( 11370 PWs)   bands (ev):

   -66.8047 -66.7801 -66.7609 -66.7478 -66.7445 -66.7357 -66.7288 -66.7232
   -66.7108 -66.7106 -66.7085 -66.7056 -66.7005 -66.6933 -66.6787 -66.6597
   -33.0792 -33.0663 -33.0607 -33.0428 -33.0299 -33.0245 -33.0217 -33.0170
   -33.0076 -32.9985 -32.9964 -32.9925 -32.9581 -32.9350 -32.9045 -32.8829
   -32.8789 -32.8438 -32.8358 -32.8306 -32.8264 -32.8172 -32.8164 -32.8159
   -32.7751 -32.7523 -32.7430 -32.7287 -32.7264 -32.7183 -32.7113 -32.7014
   -32.6820 -32.6656 -32.6644 -32.6530 -32.6461 -32.6374 -32.6247 -32.6145
   -32.6054 -32.6054 -32.5984 -32.5889 -32.5885 -32.5879 -32.5684 -32.5664
    12.7279  13.7640  14.5969  15.0949  15.3163  15.5997  15.9598  16.1868
    16.1954  16.2516  16.2804  16.3117  16.4426  16.4470  16.4933  16.6904
    16.7176  16.7625  17.2159  17.2409  17.3177  17.3267  17.3643  17.4105
    17.4792  17.5880  17.5969  17.6435  17.7247  17.8730  17.9080  17.9221
    18.0311  18.0914  18.1559  18.1887  18.2143  18.2443  18.2659  18.2816
    18.3066  18.3349  18.3496  18.3680  18.4493  18.5346  19.0487  19.4821
    19.6773  19.7807  19.8452  19.8523  19.8562  19.8953  19.9120  19.9570
    20.1031  20.1081  20.1145  20.2069  20.2210  20.2992  20.3765  20.4369
    20.4912  20.5082  20.5149  20.5941  20.6418  20.6443  20.6809  20.7003
    20.7033  20.7172  20.7196  20.8197  20.9182  21.0283  21.1467  21.2049
    21.2586  21.2740  21.4078  21.4344  21.4950  22.0447  22.9766  23.6397
    24.1364  24.2495

          k = 0.1667 0.2771-0.5000 ( 11368 PWs)   bands (ev):

   -66.7935 -66.7933 -66.7549 -66.7547 -66.7405 -66.7403 -66.7262 -66.7260
   -66.7107 -66.7105 -66.7069 -66.7067 -66.6966 -66.6964 -66.6683 -66.6681
   -33.0570 -33.0569 -33.0444 -33.0444 -33.0307 -33.0305 -33.0301 -33.0299
   -33.0059 -33.0058 -32.9919 -32.9918 -32.9496 -32.9495 -32.9114 -32.9112
   -32.8537 -32.8536 -32.8323 -32.8321 -32.8261 -32.8259 -32.8056 -32.8055
   -32.7708 -32.7707 -32.7491 -32.7490 -32.7230 -32.7228 -32.6907 -32.6905
   -32.6809 -32.6808 -32.6430 -32.6429 -32.6333 -32.6331 -32.6240 -32.6238
   -32.6200 -32.6198 -32.5955 -32.5955 -32.5760 -32.5759 -32.5746 -32.5745
    13.2065  13.2071  14.8558  14.8563  15.4863  15.4866  16.3189  16.3192
    16.3382  16.3385  16.3483  16.3485  16.3977  16.3981  16.5212  16.5216
    16.5320  16.5323  17.2738  17.2739  17.3428  17.3429  17.5121  17.5123
    17.5259  17.5263  17.6102  17.6104  17.7391  17.7392  17.9477  17.9479
    18.1090  18.1092  18.1261  18.1263  18.1280  18.1283  18.1844  18.1845
    18.2465  18.2467  18.2538  18.2538  18.3158  18.3159  19.3373  19.3373
    19.7117  19.7118  19.8648  19.8650  19.9566  19.9569  20.0009  20.0010
    20.0497  20.0498  20.0505  20.0506  20.4071  20.4073  20.4098  20.4100
    20.4435  20.4437  20.5462  20.5464  20.6264  20.6266  20.6423  20.6425
    20.7318  20.7320  20.7811  20.7812  20.9311  20.9311  21.0989  21.0990
    21.3606  21.3608  21.4116  21.4117  21.7263  21.7264  23.6088  23.6091
    23.9365  23.9368

          k = 0.1667 0.3879 0.1667 ( 11368 PWs)   bands (ev):

   -66.8104 -66.7846 -66.7469 -66.7467 -66.7378 -66.7376 -66.7242 -66.7198
   -66.7132 -66.7120 -66.7089 -66.7087 -66.7054 -66.7052 -66.6764 -66.6559
   -33.0808 -33.0807 -33.0696 -33.0591 -33.0275 -33.0274 -33.0217 -33.0216
   -33.0151 -32.9983 -32.9884 -32.9876 -32.9451 -32.9451 -32.9354 -32.8821
   -32.8648 -32.8592 -32.8117 -32.8116 -32.8092 -32.8062 -32.7936 -32.7935
   -32.7778 -32.7694 -32.7556 -32.7224 -32.7223 -32.7124 -32.7123 -32.6903
   -32.6825 -32.6824 -32.6743 -32.6486 -32.6419 -32.6287 -32.6287 -32.6107
   -32.6078 -32.6076 -32.6073 -32.6010 -32.5923 -32.5768 -32.5767 -32.5701
    12.4769  13.5461  15.1354  15.1354  15.3848  15.3848  15.9831  16.0202
    16.0203  16.1523  16.1550  16.1852  16.2866  16.2866  16.4044  16.6701
    16.6758  16.6975  17.1782  17.2489  17.2916  17.3157  17.4456  17.4457
    17.5574  17.5576  17.7661  17.7663  17.8706  17.8832  17.8833  18.0462
    18.1909  18.1910  18.2704  18.2704  18.3534  18.3639  18.3685  18.4007
    18.4008  18.4439  18.5930  18.5931  18.6324  18.6455  19.2649  19.3874
    19.6144  19.6857  19.7612  19.7612  19.7675  19.7676  19.9866  19.9867
    20.0405  20.0436  20.1391  20.1822  20.1822  20.3747  20.4429  20.4908
    20.5423  20.5570  20.6419  20.6546  20.6566  20.6566  20.7008  20.7230
    20.7450  20.7450  20.8097  20.8631  21.1264  21.1265  21.1487  21.1751
    21.1752  21.3804  21.3904  21.3905  21.5632  21.5632  23.2813  23.2813
    23.4040  23.5722

          k = 0.1667 0.3879 0.2778 ( 11372 PWs)   bands (ev):

   -66.8047 -66.7803 -66.7607 -66.7478 -66.7445 -66.7359 -66.7287 -66.7232
   -66.7107 -66.7105 -66.7087 -66.7056 -66.7005 -66.6931 -66.6788 -66.6598
   -33.0795 -33.0670 -33.0603 -33.0426 -33.0303 -33.0250 -33.0221 -33.0171
   -33.0076 -32.9987 -32.9964 -32.9928 -32.9583 -32.9345 -32.9051 -32.8825
   -32.8792 -32.8438 -32.8356 -32.8299 -32.8273 -32.8172 -32.8159 -32.8148
   -32.7744 -32.7523 -32.7434 -32.7280 -32.7262 -32.7178 -32.7117 -32.7013
   -32.6819 -32.6661 -32.6644 -32.6532 -32.6461 -32.6377 -32.6243 -32.6151
   -32.6060 -32.6052 -32.5983 -32.5895 -32.5881 -32.5873 -32.5686 -32.5661
    12.7261  13.7576  14.6028  15.0961  15.3154  15.5989  15.9578  16.1875
    16.1973  16.2487  16.2764  16.3120  16.4430  16.4523  16.4847  16.6865
    16.7142  16.7629  17.2171  17.2334  17.3130  17.3164  17.3587  17.3994
    17.4940  17.5877  17.6060  17.6535  17.7296  17.8695  17.9156  17.9230
    18.0350  18.0906  18.1545  18.1859  18.2099  18.2452  18.2713  18.2863
    18.3195  18.3249  18.3595  18.3684  18.4499  18.5334  19.0525  19.4842
    19.6792  19.7753  19.8443  19.8470  19.8497  19.8916  19.9114  19.9612
    20.0940  20.1076  20.1176  20.2036  20.2076  20.3074  20.3891  20.4407
    20.4927  20.5098  20.5186  20.6013  20.6431  20.6462  20.6765  20.6995
    20.7067  20.7174  20.7242  20.8249  20.9244  21.0271  21.1419  21.2030
    21.2566  21.2761  21.4060  21.4337  21.4958  22.0425  22.9787  23.6372
    24.1278  24.2500

          k = 0.1667 0.3879 0.3889 ( 11368 PWs)   bands (ev):

   -66.7965 -66.7741 -66.7740 -66.7575 -66.7414 -66.7333 -66.7332 -66.7268
   -66.7096 -66.7088 -66.7087 -66.7062 -66.6933 -66.6824 -66.6823 -66.6655
   -33.0697 -33.0480 -33.0476 -33.0311 -33.0309 -33.0260 -33.0222 -33.0219
   -33.0184 -33.0129 -33.0063 -32.9770 -32.9515 -32.9213 -32.8799 -32.8740
   -32.8738 -32.8605 -32.8601 -32.8432 -32.8411 -32.8403 -32.8393 -32.8047
   -32.7687 -32.7448 -32.7423 -32.7418 -32.7348 -32.7344 -32.7233 -32.6827
   -32.6807 -32.6547 -32.6545 -32.6471 -32.6469 -32.6288 -32.6224 -32.6220
   -32.6119 -32.6047 -32.6043 -32.6036 -32.5757 -32.5752 -32.5653 -32.5641
    13.0860  14.0518  14.0560  14.7599  15.5409  15.8942  15.8948  16.3290
    16.3487  16.4242  16.4273  16.4912  16.4955  16.5072  16.5329  16.5802
    16.7390  16.9760  16.9769  17.2418  17.3024  17.3479  17.4071  17.4187
    17.4396  17.4449  17.5896  17.6006  17.6043  17.6674  17.8744  17.9583
    17.9590  17.9643  18.0269  18.0366  18.1002  18.1046  18.1188  18.1521
    18.1788  18.2074  18.2102  18.2965  18.3049  18.7253  18.7269  19.3179
    19.7294  19.8865  19.9533  19.9554  19.9819  20.0143  20.0198  20.0231
    20.1396  20.2009  20.2218  20.2279  20.2598  20.2615  20.2711  20.2805
    20.4207  20.4448  20.4453  20.5002  20.5291  20.6158  20.6191  20.6492
    20.6766  20.6771  20.7267  20.7358  20.8865  20.9423  20.9461  20.9662
    21.3860  21.3873  21.4479  21.5254  21.7872  22.5727  22.5742  23.6816
    24.0486  24.7644

          k = 0.1667 0.3879-0.5000 ( 11370 PWs)   bands (ev):

   -66.7862 -66.7860 -66.7665 -66.7663 -66.7376 -66.7374 -66.7303 -66.7301
   -66.7091 -66.7089 -66.7073 -66.7071 -66.6874 -66.6872 -66.6731 -66.6729
   -33.0529 -33.0528 -33.0351 -33.0350 -33.0262 -33.0260 -33.0247 -33.0246
   -33.0198 -33.0197 -32.9992 -32.9991 -32.9066 -32.9065 -32.9002 -32.9000
   -32.8640 -32.8639 -32.8589 -32.8587 -32.8473 -32.8471 -32.8146 -32.8145
   -32.7731 -32.7730 -32.7400 -32.7399 -32.7286 -32.7285 -32.7105 -32.7104
   -32.6673 -32.6671 -32.6330 -32.6329 -32.6312 -32.6310 -32.6248 -32.6246
   -32.6234 -32.6233 -32.6035 -32.6034 -32.5679 -32.5677 -32.5673 -32.5672
    13.5380  13.5385  14.3985  14.3990  15.7528  15.7531  16.2322  16.2326
    16.4334  16.4338  16.4443  16.4448  16.5587  16.5589  16.6443  16.6446
    16.7356  16.7360  17.2734  17.2737  17.3361  17.3363  17.3402  17.3403
    17.3511  17.3511  17.5047  17.5049  17.7572  17.7574  17.7925  17.7926
    17.9109  17.9110  17.9683  17.9685  18.0210  18.0211  18.0497  18.0499
    18.2114  18.2115  18.2488  18.2489  18.4313  18.4314  18.9911  18.9911
    19.9268  19.9270  19.9862  19.9863  20.0776  20.0778  20.1111  20.1112
    20.1350  20.1351  20.1367  20.1369  20.2435  20.2436  20.3454  20.3456
    20.3562  20.3564  20.4901  20.4903  20.5191  20.5192  20.6035  20.6036
    20.6612  20.6614  20.7085  20.7088  20.8092  20.8093  20.9484  20.9485
    21.4464  21.4466  21.4847  21.4848  22.1761  22.1763  23.1233  23.1235
    24.4502  24.4504

          k = 0.1667-0.4988 0.1667 ( 11364 PWs)   bands (ev):

   -66.7986 -66.7984 -66.7426 -66.7425 -66.7425 -66.7422 -66.7222 -66.7220
   -66.7126 -66.7124 -66.7069 -66.7068 -66.7068 -66.7065 -66.6652 -66.6650
   -33.0535 -33.0534 -33.0533 -33.0533 -33.0382 -33.0380 -33.0370 -33.0368
   -32.9909 -32.9908 -32.9877 -32.9877 -32.9877 -32.9876 -32.9110 -32.9108
   -32.8366 -32.8365 -32.8339 -32.8338 -32.8037 -32.8036 -32.8036 -32.8034
   -32.7642 -32.7641 -32.7330 -32.7330 -32.7167 -32.7167 -32.7166 -32.7165
   -32.6540 -32.6540 -32.6540 -32.6539 -32.6377 -32.6376 -32.6276 -32.6275
   -32.6151 -32.6149 -32.5899 -32.5899 -32.5897 -32.5897 -32.5830 -32.5829
    12.9689  12.9690  15.2829  15.2829  15.2830  15.2830  16.1749  16.1749
    16.1749  16.1750  16.3041  16.3042  16.3291  16.3292  16.4090  16.4092
    16.4273  16.4274  17.2071  17.2072  17.2722  17.2723  17.7028  17.7029
    17.7029  17.7031  17.7232  17.7233  17.7233  17.7235  18.1728  18.1729
    18.1729  18.1729  18.2232  18.2233  18.2825  18.2826  18.2826  18.2827
    18.3418  18.3418  18.3418  18.3419  18.4092  18.4092  19.4659  19.4661
    19.6980  19.6980  19.8352  19.8354  19.8703  19.8703  19.8704  19.8705
    19.9974  19.9974  19.9975  19.9975  20.4612  20.4614  20.4714  20.4714
[...]
   -32.9027 -32.9026 -32.8898 -32.8896 -32.8843 -32.8842 -32.8393 -32.8393
   -32.7451 -32.7450 -32.7027 -32.7026 -32.6921 -32.6920 -32.6896 -32.6896
   -32.6641 -32.6638 -32.6488 -32.6487 -32.6287 -32.6286 -32.6285 -32.6283
   -32.6251 -32.6249 -32.5997 -32.5995 -32.5814 -32.5814 -32.5789 -32.5789
    13.7734  13.7739  14.6313  14.6318  15.3749  15.3753  16.0238  16.0242
    16.6073  16.6077  16.6169  16.6171  16.7606  16.7609  16.7857  16.7862
    16.8236  16.8238  17.2735  17.2740  17.2980  17.2983  17.3787  17.3790
    17.3947  17.3948  17.5785  17.5788  17.5911  17.5912  17.7189  17.7191
    17.7697  17.7700  17.7989  17.7990  17.9133  17.9134  17.9494  17.9495
    17.9959  17.9959  18.0713  18.0713  18.1218  18.1219  18.6121  18.6122
    20.1484  20.1486  20.1650  20.1650  20.1776  20.1777  20.1891  20.1893
    20.2335  20.2336  20.2710  20.2711  20.3882  20.3885  20.4072  20.4074
    20.4607  20.4610  20.4883  20.4884  20.5291  20.5293  20.5755  20.5757
    20.6068  20.6070  20.8046  20.8046  20.9160  20.9161  20.9905  20.9905
    21.2374  21.2374  21.2585  21.2586  21.7057  21.7058  22.6045  22.6047
    25.5088  25.5090

          k = 0.3889 0.3879 0.3889 ( 11400 PWs)   bands (ev):

   -66.7844 -66.7650 -66.7650 -66.7648 -66.7506 -66.7505 -66.7503 -66.7394
   -66.7013 -66.6961 -66.6960 -66.6959 -66.6872 -66.6871 -66.6869 -66.6732
   -33.0300 -33.0299 -33.0295 -33.0162 -33.0160 -33.0157 -32.9980 -32.9773
   -32.9759 -32.9712 -32.9710 -32.9709 -32.9639 -32.9632 -32.9178 -32.9177
   -32.9170 -32.9097 -32.9095 -32.9095 -32.9024 -32.9016 -32.9013 -32.8326
   -32.7451 -32.6915 -32.6914 -32.6909 -32.6775 -32.6774 -32.6771 -32.6645
   -32.6640 -32.6520 -32.6518 -32.6517 -32.6499 -32.6495 -32.6494 -32.6309
   -32.6030 -32.6023 -32.6023 -32.5971 -32.5968 -32.5928 -32.5926 -32.5921
    13.6741  14.5825  14.5861  14.5862  15.3178  15.3178  15.3196  16.1028
    16.6810  16.6871  16.7532  16.7569  16.7569  16.9217  16.9270  16.9271
    16.9516  16.9516  16.9544  17.0433  17.3885  17.3964  17.4565  17.4660
    17.5301  17.5420  17.5422  17.5557  17.5558  17.5635  17.6445  17.6501
    17.6502  17.7664  17.7665  17.7751  17.7970  17.7998  17.7999  17.8302
    17.8303  17.8370  17.9771  17.9885  18.0855  18.0855  18.0864  18.5584
    20.1410  20.1455  20.1456  20.2799  20.3084  20.3087  20.3109  20.3110
    20.3143  20.3145  20.3178  20.3239  20.3736  20.3737  20.3832  20.4901
    20.4912  20.5199  20.5200  20.5202  20.5339  20.5401  20.5402  20.6146
    20.6256  20.9211  20.9318  20.9374  20.9374  20.9410  21.0114  21.0115
    21.0194  21.0549  21.0648  21.0650  21.6871  21.6877  21.6877  22.6210
    26.3602  26.3935

          k = 0.3889 0.3879-0.5000 ( 11398 PWs)   bands (ev):

   -66.7755 -66.7753 -66.7584 -66.7583 -66.7581 -66.7580 -66.7455 -66.7453
   -66.6984 -66.6982 -66.6912 -66.6911 -66.6909 -66.6909 -66.6795 -66.6793
   -33.0187 -33.0186 -33.0182 -33.0181 -32.9998 -32.9996 -32.9992 -32.9992
   -32.9844 -32.9843 -32.9500 -32.9498 -32.9404 -32.9403 -32.9403 -32.9401
   -32.9339 -32.9338 -32.9194 -32.9193 -32.9182 -32.9181 -32.8709 -32.8708
   -32.7173 -32.7172 -32.6719 -32.6718 -32.6690 -32.6689 -32.6687 -32.6685
   -32.6597 -32.6596 -32.6595 -32.6593 -32.6382 -32.6381 -32.6307 -32.6304
   -32.6219 -32.6217 -32.5998 -32.5997 -32.5992 -32.5990 -32.5930 -32.5929
    14.1038  14.1043  14.9463  14.9468  14.9492  14.9497  15.7075  15.7080
    16.8090  16.8094  16.8609  16.8613  16.8707  16.8709  16.8734  16.8738
    17.0161  17.0164  17.2438  17.2441  17.2479  17.2482  17.4209  17.4210
    17.4654  17.4656  17.5126  17.5129  17.5349  17.5351  17.6455  17.6457
    17.6542  17.6543  17.7652  17.7653  17.7699  17.7700  17.8244  17.8245
    17.8257  17.8257  17.8703  17.8705  17.8976  17.8977  18.2525  18.2526
    20.2352  20.2354  20.2498  20.2500  20.2565  20.2566  20.3764  20.3764
    20.3838  20.3840  20.3996  20.3999  20.4251  20.4254  20.4905  20.4907
    20.5080  20.5082  20.5107  20.5109  20.5142  20.5144  20.5965  20.5966
    20.6335  20.6336  20.7867  20.7868  21.0054  21.0054  21.0161  21.0162
    21.0336  21.0337  21.3034  21.3035  21.3052  21.3053  22.1460  22.1462
    26.6750  26.6797

          k = 0.3889-0.4988 0.3889 ( 11394 PWs)   bands (ev):

   -66.7755 -66.7753 -66.7584 -66.7583 -66.7583 -66.7579 -66.7454 -66.7452
   -66.6984 -66.6982 -66.6912 -66.6911 -66.6911 -66.6908 -66.6795 -66.6794
   -33.0188 -33.0187 -33.0187 -33.0186 -32.9998 -32.9998 -32.9994 -32.9992
   -32.9844 -32.9843 -32.9492 -32.9490 -32.9404 -32.9404 -32.9404 -32.9402
   -32.9345 -32.9344 -32.9186 -32.9185 -32.9185 -32.9183 -32.8709 -32.8708
   -32.7171 -32.7170 -32.6716 -32.6716 -32.6688 -32.6688 -32.6688 -32.6686
   -32.6596 -32.6595 -32.6595 -32.6594 -32.6383 -32.6383 -32.6310 -32.6309
   -32.6220 -32.6219 -32.5996 -32.5995 -32.5994 -32.5994 -32.5926 -32.5926
    14.1021  14.1022  14.9481  14.9481  14.9482  14.9482  15.7080  15.7081
    16.8130  16.8131  16.8550  16.8551  16.8749  16.8749  16.8750  16.8751
    17.0115  17.0116  17.2414  17.2415  17.2415  17.2416  17.4177  17.4178
    17.4566  17.4567  17.5200  17.5201  17.5428  17.5429  17.6572  17.6573
    17.6573  17.6574  17.7604  17.7604  17.7605  17.7605  17.8276  17.8276
    17.8277  17.8277  17.8797  17.8799  17.8904  17.8904  18.2539  18.2539
    20.2296  20.2297  20.2507  20.2507  20.2508  20.2508  20.3786  20.3787
    20.3787  20.3788  20.4046  20.4048  20.4253  20.4255  20.4853  20.4855
    20.5085  20.5086  20.5153  20.5153  20.5154  20.5155  20.5987  20.5989
    20.6429  20.6429  20.7953  20.7953  21.0115  21.0116  21.0116  21.0117
    21.0246  21.0246  21.3035  21.3036  21.3036  21.3037  22.1458  22.1458
    26.6982  26.6983

          k = 0.3889-0.4988-0.5000 ( 11396 PWs)   bands (ev):

   -66.7677 -66.7675 -66.7674 -66.7673 -66.7524 -66.7522 -66.7521 -66.7520
   -66.6944 -66.6942 -66.6942 -66.6940 -66.6849 -66.6847 -66.6846 -66.6845
   -33.0039 -33.0038 -33.0037 -33.0035 -32.9993 -32.9992 -32.9992 -32.9990
   -32.9623 -32.9622 -32.9621 -32.9621 -32.9450 -32.9449 -32.9449 -32.9447
   -32.9409 -32.9408 -32.9406 -32.9405 -32.9057 -32.9056 -32.9055 -32.9055
   -32.6919 -32.6917 -32.6916 -32.6916 -32.6580 -32.6579 -32.6578 -32.6577
   -32.6517 -32.6516 -32.6515 -32.6515 -32.6337 -32.6336 -32.6335 -32.6334
   -32.6203 -32.6201 -32.6200 -32.6200 -32.5997 -32.5996 -32.5995 -32.5993
    14.5070  14.5072  14.5076  14.5076  15.3257  15.3259  15.3262  15.3263
    16.8770  16.8771  16.8774  16.8777  17.0769  17.0770  17.0772  17.0773
    17.1617  17.1617  17.1619  17.1620  17.1802  17.1803  17.1805  17.1806
    17.5709  17.5711  17.5712  17.5712  17.5870  17.5870  17.5871  17.5873
    17.5883  17.5883  17.5884  17.5885  17.7489  17.7491  17.7492  17.7492
    17.8070  17.8071  17.8072  17.8072  17.9571  17.9571  17.9572  17.9572
    20.2855  20.2855  20.2858  20.2858  20.3440  20.3441  20.3442  20.3443
    20.4286  20.4287  20.4288  20.4289  20.4970  20.4970  20.4972  20.4973
    20.5085  20.5086  20.5087  20.5088  20.5618  20.5620  20.5620  20.5620
    20.8311  20.8312  20.8313  20.8313  20.9409  20.9410  20.9410  20.9411
    20.9833  20.9834  20.9835  20.9836  21.7165  21.7165  21.7166  21.7167
    27.2526  27.2529

          k =-0.5000 0.0554-0.5000 ( 11412 PWs)   bands (ev):

   -66.7791 -66.7790 -66.7788 -66.7787 -66.7253 -66.7252 -66.7250 -66.7249
   -66.7165 -66.7164 -66.7162 -66.7161 -66.6784 -66.6784 -66.6782 -66.6780
   -33.0483 -33.0483 -33.0480 -33.0480 -33.0296 -33.0295 -33.0295 -33.0294
   -33.0232 -33.0231 -33.0230 -33.0230 -32.8614 -32.8612 -32.8612 -32.8609
   -32.8500 -32.8499 -32.8497 -32.8497 -32.8191 -32.8191 -32.8188 -32.8188
   -32.7763 -32.7763 -32.7760 -32.7760 -32.7610 -32.7610 -32.7608 -32.7608
   -32.6518 -32.6516 -32.6516 -32.6512 -32.6188 -32.6186 -32.6186 -32.6185
   -32.6146 -32.6144 -32.6143 -32.6142 -32.5583 -32.5582 -32.5579 -32.5579
    13.8311  13.8315  13.8316  13.8320  16.2710  16.2713  16.2713  16.2716
    16.3708  16.3709  16.3710  16.3713  16.4799  16.4802  16.4802  16.4804
    16.9866  16.9868  16.9869  16.9875  17.3182  17.3184  17.3185  17.3187
    17.3648  17.3650  17.3651  17.3652  17.9034  17.9037  17.9037  17.9037
    17.9200  17.9200  17.9201  17.9202  18.0059  18.0059  18.0060  18.0061
    18.3598  18.3598  18.3599  18.3600  18.9527  18.9527  18.9528  18.9528
    19.8284  19.8284  19.8286  19.8287  20.0783  20.0785  20.0785  20.0786
    20.1329  20.1329  20.1330  20.1333  20.2173  20.2174  20.2174  20.2177
    20.2177  20.2178  20.2178  20.2180  20.4782  20.4782  20.4784  20.4787
    20.7369  20.7370  20.7371  20.7372  20.7946  20.7947  20.7948  20.7948
    21.6427  21.6428  21.6429  21.6429  23.2567  23.2568  23.2568  23.2570
    24.0201  24.0202

          k =-0.5000 0.1663-0.5000 ( 11368 PWs)   bands (ev):

   -66.7771 -66.7770 -66.7768 -66.7767 -66.7344 -66.7343 -66.7341 -66.7340
   -66.7082 -66.7081 -66.7080 -66.7078 -66.6795 -66.6794 -66.6792 -66.6790
   -33.0406 -33.0406 -33.0402 -33.0402 -33.0277 -33.0275 -33.0275 -33.0274
   -33.0087 -33.0085 -33.0085 -33.0084 -32.8838 -32.8836 -32.8836 -32.8834
   -32.8615 -32.8615 -32.8612 -32.8612 -32.8607 -32.8607 -32.8605 -32.8605
   -32.7413 -32.7413 -32.7411 -32.7411 -32.7343 -32.7343 -32.7340 -32.7340
   -32.6479 -32.6477 -32.6477 -32.6474 -32.6259 -32.6257 -32.6257 -32.6257
   -32.6135 -32.6133 -32.6133 -32.6132 -32.5654 -32.5654 -32.5650 -32.5650
    13.9504  13.9508  13.9509  13.9513  16.0295  16.0298  16.0299  16.0301
    16.4623  16.4624  16.4625  16.4628  16.6938  16.6940  16.6940  16.6942
    17.0046  17.0048  17.0049  17.0054  17.2759  17.2761  17.2762  17.2764
    17.4208  17.4211  17.4211  17.4212  17.7605  17.7605  17.7606  17.7607
    17.8724  17.8727  17.8727  17.8728  17.9608  17.9608  17.9609  17.9610
    18.2189  18.2189  18.2190  18.2191  18.6734  18.6735  18.6735  18.6735
    20.0615  20.0615  20.0616  20.0617  20.1482  20.1483  20.1483  20.1485
    20.2472  20.2473  20.2474  20.2477  20.2605  20.2606  20.2607  20.2609
    20.2835  20.2836  20.2836  20.2837  20.4699  20.4699  20.4701  20.4704
    20.6703  20.6704  20.6705  20.6707  20.8398  20.8398  20.8399  20.8399
    21.4994  21.4994  21.4996  21.4996  22.6463  22.6464  22.6464  22.6466
    24.9526  24.9528

          k =-0.5000 0.2771-0.5000 ( 11380 PWs)   bands (ev):

   -66.7731 -66.7731 -66.7729 -66.7728 -66.7436 -66.7435 -66.7433 -66.7432
   -66.7008 -66.7008 -66.7006 -66.7004 -66.6816 -66.6815 -66.6814 -66.6812
   -33.0253 -33.0253 -33.0250 -33.0250 -33.0175 -33.0173 -33.0173 -33.0172
   -32.9879 -32.9878 -32.9877 -32.9877 -32.9145 -32.9144 -32.9143 -32.9142
   -32.9024 -32.9024 -32.9020 -32.9020 -32.8800 -32.8799 -32.8798 -32.8798
   -32.7164 -32.7163 -32.7162 -32.7162 -32.6947 -32.6946 -32.6943 -32.6943
   -32.6414 -32.6411 -32.6411 -32.6408 -32.6368 -32.6367 -32.6366 -32.6366
   -32.6156 -32.6153 -32.6153 -32.6152 -32.5794 -32.5793 -32.5790 -32.5790
    14.1816  14.1820  14.1821  14.1825  15.7149  15.7152  15.7153  15.7156
    16.6363  16.6364  16.6365  16.6368  16.9293  16.9295  16.9296  16.9297
    17.0379  17.0382  17.0383  17.0387  17.2322  17.2325  17.2325  17.2329
    17.4885  17.4888  17.4888  17.4889  17.6281  17.6281  17.6283  17.6283
    17.7941  17.7941  17.7941  17.7943  17.8150  17.8153  17.8153  17.8153
    18.0146  18.0146  18.0147  18.0148  18.3154  18.3155  18.3155  18.3156
    20.2101  20.2102  20.2102  20.2105  20.2923  20.2924  20.2925  20.2928
    20.3274  20.3275  20.3276  20.3276  20.3586  20.3588  20.3588  20.3589
    20.4529  20.4529  20.4531  20.4534  20.5847  20.5848  20.5848  20.5849
    20.5889  20.5890  20.5890  20.5892  20.8551  20.8551  20.8552  20.8552
    21.2622  21.2623  21.2624  21.2624  22.1484  22.1485  22.1485  22.1487
    26.0382  26.0384

          k =-0.5000 0.3879-0.5000 ( 11392 PWs)   bands (ev):

   -66.7676 -66.7675 -66.7673 -66.7672 -66.7524 -66.7523 -66.7521 -66.7520
   -66.6944 -66.6943 -66.6942 -66.6940 -66.6848 -66.6847 -66.6845 -66.6844
   -33.0031 -33.0031 -33.0027 -33.0027 -32.9996 -32.9995 -32.9994 -32.9993
   -32.9622 -32.9621 -32.9621 -32.9620 -32.9460 -32.9458 -32.9458 -32.9456
   -32.9403 -32.9403 -32.9400 -32.9400 -32.9057 -32.9056 -32.9055 -32.9055
   -32.6919 -32.6918 -32.6917 -32.6917 -32.6584 -32.6583 -32.6580 -32.6580
   -32.6515 -32.6513 -32.6513 -32.6512 -32.6338 -32.6335 -32.6335 -32.6333
   -32.6197 -32.6195 -32.6195 -32.6193 -32.6001 -32.6001 -32.5998 -32.5998
    14.5086  14.5089  14.5091  14.5094  15.3246  15.3249  15.3250  15.3254
    16.8734  16.8735  16.8736  16.8739  17.0827  17.0829  17.0830  17.0835
    17.1610  17.1612  17.1613  17.1615  17.1846  17.1848  17.1849  17.1853
    17.5675  17.5678  17.5678  17.5678  17.5829  17.5829  17.5829  17.5831
    17.5932  17.5932  17.5934  17.5934  17.7388  17.7391  17.7391  17.7391
    17.8148  17.8148  17.8149  17.8150  17.9551  17.9552  17.9552  17.9552
    20.2934  20.2935  20.2935  20.2938  20.3419  20.3419  20.3420  20.3423
    20.4253  20.4253  20.4255  20.4258  20.4937  20.4938  20.4939  20.4941
    20.5174  20.5175  20.5175  20.5176  20.5550  20.5550  20.5551  20.5552
    20.8202  20.8202  20.8203  20.8203  20.9400  20.9401  20.9401  20.9402
    20.9914  20.9915  20.9916  20.9916  21.7174  21.7175  21.7175  21.7176
    27.2268  27.2271

          k =-0.5000-0.4988-0.5000 ( 11376 PWs)   bands (ev):

   -66.7607 -66.7606 -66.7605 -66.7605 -66.7605 -66.7603 -66.7601 -66.7601
   -66.6891 -66.6890 -66.6889 -66.6889 -66.6889 -66.6887 -66.6885 -66.6885
   -32.9754 -32.9752 -32.9751 -32.9751 -32.9751 -32.9750 -32.9750 -32.9749
   -32.9741 -32.9740 -32.9739 -32.9739 -32.9738 -32.9738 -32.9734 -32.9734
   -32.9342 -32.9341 -32.9339 -32.9339 -32.9339 -32.9337 -32.9337 -32.9337
   -32.6699 -32.6698 -32.6697 -32.6697 -32.6697 -32.6695 -32.6695 -32.6694
   -32.6267 -32.6267 -32.6266 -32.6266 -32.6265 -32.6265 -32.6264 -32.6263
   -32.6262 -32.6261 -32.6260 -32.6259 -32.6259 -32.6259 -32.6259 -32.6257
    14.9037  14.9039  14.9041  14.9042  14.9042  14.9043  14.9046  14.9047
    17.1262  17.1263  17.1264  17.1264  17.1265  17.1265  17.1267  17.1269
    17.1336  17.1337  17.1338  17.1339  17.1339  17.1339  17.1341  17.1346
    17.6401  17.6401  17.6401  17.6401  17.6402  17.6402  17.6402  17.6403
    17.6531  17.6533  17.6534  17.6535  17.6535  17.6535  17.6535  17.6535
    17.6634  17.6635  17.6635  17.6635  17.6635  17.6636  17.6637  17.6639
    20.3875  20.3876  20.3877  20.3877  20.3877  20.3879  20.3880  20.3883
    20.3914  20.3916  20.3916  20.3916  20.3917  20.3918  20.3919  20.3920
    20.7216  20.7217  20.7217  20.7218  20.7218  20.7218  20.7219  20.7221
    20.7333  20.7336  20.7336  20.7337  20.7337  20.7337  20.7337  20.7337
    21.3194  21.3195  21.3195  21.3195  21.3195  21.3195  21.3195  21.3198
    28.3985  28.4066

     the Fermi energy is    20.4562 ev

!    total energy              =   -5267.70817999 Ry
     Harris-Foulkes estimate   =   -5267.70818389 Ry
     estimated scf accuracy    <       0.00000565 Ry

     total all-electron energy =    -40728.452709 Ry

     The total energy is the sum of the following terms:

     one-electron contribution =   -1623.73426760 Ry
     hartree contribution      =     990.41808792 Ry
     xc contribution           =    -442.93820426 Ry
     ewald contribution        =   -2866.56311959 Ry
     one-center paw contrib.   =   -1324.75918158 Ry
     smearing contrib. (-TS)   =      -0.13149487 Ry

     convergence has been achieved in  13 iterations

     Forces acting on atoms (cartesian axes, Ry/au):

     atom    1 type  1   force =     0.00000000    0.00000000    0.00000000
     atom    2 type  1   force =     0.00005174   -0.00020038    0.00005174
     atom    3 type  1   force =     0.00000000    0.00000000    0.00000000
     atom    4 type  1   force =     0.00005174   -0.00020038   -0.00005174
     atom    5 type  1   force =     0.00000000    0.00000000    0.00000000
     atom    6 type  1   force =     0.00005174    0.00020038    0.00005174
     atom    7 type  1   force =     0.00000000   -0.00000000   -0.00000000
     atom    8 type  1   force =     0.00005174    0.00020038   -0.00005174
     atom    9 type  1   force =     0.00000000    0.00000000    0.00000000
     atom   10 type  1   force =    -0.00005174   -0.00020038    0.00005174
     atom   11 type  1   force =     0.00000000    0.00000000    0.00000000
     atom   12 type  1   force =    -0.00005174   -0.00020038   -0.00005174
     atom   13 type  1   force =     0.00000000   -0.00000000    0.00000000
     atom   14 type  1   force =    -0.00005174    0.00020038    0.00005174
     atom   15 type  1   force =     0.00000000   -0.00000000    0.00000000
     atom   16 type  1   force =    -0.00005174    0.00020038   -0.00005174

     Total force =     0.000603     Total SCF correction =     0.003767
     SCF correction compared to forces is large: reduce conv_thr to get better values


     Computing stress (Cartesian axis) and pressure

          total   stress  (Ry/bohr**3)                   (kbar)     P=  -16.04
  -0.00012395   0.00000000   0.00000000        -18.23      0.00      0.00
   0.00000000  -0.00007915   0.00000000          0.00    -11.64      0.00
   0.00000000   0.00000000  -0.00012395          0.00      0.00    -18.23


     Writing output data file uKFoOJkFCEovbgri.save/
 
     init_run     :      7.06s CPU      7.36s WALL (       1 calls)
     electrons    :    281.17s CPU    291.12s WALL (       1 calls)
     forces       :      2.27s CPU      2.48s WALL (       1 calls)
     stress       :      5.86s CPU      5.95s WALL (       1 calls)

     Called by init_run:
     wfcinit      :      6.72s CPU      6.96s WALL (       1 calls)
     potinit      :      0.11s CPU      0.13s WALL (       1 calls)
     hinit0       :      0.13s CPU      0.15s WALL (       1 calls)

     Called by electrons:
     c_bands      :    251.09s CPU    259.13s WALL (      14 calls)
     sum_band     :     28.62s CPU     30.21s WALL (      14 calls)
     v_of_rho     :      0.13s CPU      0.26s WALL (      14 calls)
     newd         :      0.23s CPU      0.29s WALL (      14 calls)
     PAW_pot      :      1.10s CPU      1.17s WALL (      14 calls)
     mix_rho      :      0.04s CPU      0.07s WALL (      14 calls)

     Called by c_bands:
     init_us_2    :      1.42s CPU      1.44s WALL (    2325 calls)
     cegterg      :    243.86s CPU    251.81s WALL (    1050 calls)

     Called by sum_band:
     sum_band:bec :      0.43s CPU      0.44s WALL (    1050 calls)
     addusdens    :      0.20s CPU      0.26s WALL (      14 calls)

     Called by *egterg:
     h_psi        :    112.05s CPU    116.89s WALL (    3152 calls)
     s_psi        :      6.02s CPU      6.06s WALL (    3152 calls)
     g_psi        :      0.24s CPU      0.24s WALL (    2027 calls)
     cdiaghg      :    103.25s CPU    103.69s WALL (    3002 calls)

     Called by h_psi:
     h_psi:pot    :    111.40s CPU    116.22s WALL (    3152 calls)
     h_psi:calbec :      9.03s CPU     10.57s WALL (    3152 calls)
     vloc_psi     :     96.30s CPU     99.53s WALL (    3152 calls)
     add_vuspsi   :      6.04s CPU      6.10s WALL (    3152 calls)

     General routines
     calbec       :     14.82s CPU     17.32s WALL (    4577 calls)
     fft          :      0.15s CPU      0.37s WALL (     207 calls)
     ffts         :      0.01s CPU      0.07s WALL (      28 calls)
     fftw         :    112.44s CPU    116.19s WALL (  871722 calls)
     interpolate  :      0.02s CPU      0.04s WALL (      14 calls)
 
     Parallel routines
     fft_scatt_xy :      7.51s CPU      7.76s WALL (  871957 calls)
     fft_scatt_yz :     75.42s CPU     78.25s WALL (  871957 calls)
 
     PWSCF        :  5m 1.47s CPU     5m19.85s WALL

 
   This run was terminated on:   7:30:37   5Sep2020            

=------------------------------------------------------------------------------=
   JOB DONE.
=------------------------------------------------------------------------------=
