
     Program PWSCF v.6.3 starts on  5Sep2020 at  7:19:55 

     This program is part of the open-source Quantum ESPRESSO suite
     for quantum simulation of materials; please cite
         "P. Giannozzi et al., J. Phys.:Condens. Matter 21 395502 (2009);
         "P. Giannozzi et al., J. Phys.:Condens. Matter 29 465901 (2017);
          URL http://www.quantum-espresso.org", 
     in publications or presentations arising from this work. More details at
     http://www.quantum-espresso.org/quote

     Parallel version (MPI & OpenMP), running on      40 processor cores
     Number of MPI processes:                40
     Threads/MPI process:                     1

     MPI processes distributed on     1 nodes
     R & G space division:  proc/nbgrp/npool/nimage =      40
     Reading input from wd/ec/ec_2_004.in
Warning: card &IONS ignored
Warning: card ION_DYNAMICS = 'BFGS', ignored
Warning: card / ignored
Warning: card &CELL ignored
Warning: card CELL_DYNAMICS = 'BFGS', ignored
Warning: card CELL_FACTOR = 2.0, ignored
Warning: card PRESS = 0.0, ignored
Warning: card / ignored

     Current dimensions of program PWSCF are:
     Max number of different atomic species (ntypx) = 10
     Max number of k-points (npk) =  40000
     Max angular momentum in pseudopotentials (lmaxx) =  3
               file Fe.pbe-spn-kjpaw_psl.1.0.0.UPF: wavefunction(s)  3P 3D renormalized

     Subspace diagonalization in iterative solution of the eigenvalue problem:
     a serial algorithm will be used

 
     Parallelization info
     --------------------
     sticks:   dense  smooth     PW     G-vecs:    dense   smooth      PW
     Min          92      61     17                 4230     2271     339
     Max          93      62     18                 4235     2274     343
     Sum        3705    2445    681               169293    90911   13613
 


     bravais-lattice index     =            0
     lattice parameter (alat)  =      10.3915  a.u.
     unit-cell volume          =    1124.2012 (a.u.)^3
     number of atoms/cell      =           16
     number of atomic types    =            1
     number of electrons       =       256.00
     number of Kohn-Sham states=          154
     kinetic-energy cutoff     =      71.0000  Ry
     charge density cutoff     =     430.0000  Ry
     convergence threshold     =      5.0E-05
     mixing beta               =       0.1000
     number of iterations used =           10  plain     mixing
     Exchange-correlation      = SLA PW PBX PBC ( 1  4  3  4 0 0)

     celldm(1)=  10.391466  celldm(2)=   0.000000  celldm(3)=   0.000000
     celldm(4)=   0.000000  celldm(5)=   0.000000  celldm(6)=   0.000000

     crystal axes: (cart. coord. in units of alat)
               a(1) = (   1.000000   0.000000   0.000000 )  
               a(2) = (   0.000000   1.001875   0.000000 )  
               a(3) = (   0.000000   0.000000   1.000000 )  

     reciprocal axes: (cart. coord. in units 2 pi/alat)
               b(1) = (  1.000000  0.000000  0.000000 )  
               b(2) = (  0.000000  0.998129  0.000000 )  
               b(3) = (  0.000000  0.000000  1.000000 )  


     PseudoPot. # 1 for Fe read from file:
     /rds/homes/b/bxp912/pp/Fe.pbe-spn-kjpaw_psl.1.0.0.UPF
     MD5 check sum: 42f43b795421b414b0dc916aa790dbcb
     Pseudo is Projector augmented-wave + core cor, Zval = 16.0
     Generated using "atomic" code by A. Dal Corso v.6.3
     Shape of augmentation charge: PSQ
     Using radial grid of 1191 points,  6 beta functions with: 
                l(1) =   0
                l(2) =   0
                l(3) =   1
                l(4) =   1
                l(5) =   2
                l(6) =   2
     Q(r) pseudized with 0 coefficients 


     atomic species   valence    mass     pseudopotential
        Fe            16.00    55.84500     Fe( 1.00)

     16 Sym. Ops., with inversion, found



   Cartesian axes

     site n.     atom                  positions (alat units)
         1           Fe  tau(   1) = (   0.0000000   0.0000000   0.0000000  )
         2           Fe  tau(   2) = (   0.2500089   0.2504777   0.2500089  )
         3           Fe  tau(   3) = (   0.0000000   0.0000000   0.4999995  )
         4           Fe  tau(   4) = (   0.2500089   0.2504777   0.7499911  )
         5           Fe  tau(   5) = (   0.0000000   0.5009376   0.0000000  )
         6           Fe  tau(   6) = (   0.2500089   0.7513974   0.2500089  )
         7           Fe  tau(   7) = (   0.0000000   0.5009376   0.4999995  )
         8           Fe  tau(   8) = (   0.2500089   0.7513974   0.7499911  )
         9           Fe  tau(   9) = (   0.5000001   0.0000000   0.0000000  )
        10           Fe  tau(  10) = (   0.7499912   0.2504777   0.2500089  )
        11           Fe  tau(  11) = (   0.5000001   0.0000000   0.4999995  )
        12           Fe  tau(  12) = (   0.7499912   0.2504777   0.7499911  )
        13           Fe  tau(  13) = (   0.5000001   0.5009376   0.0000000  )
        14           Fe  tau(  14) = (   0.7499912   0.7513974   0.2500089  )
        15           Fe  tau(  15) = (   0.5000001   0.5009376   0.4999995  )
        16           Fe  tau(  16) = (   0.7499912   0.7513974   0.7499911  )

     number of k points=    75  Marzari-Vanderbilt smearing, width (Ry)=  0.0400
                       cart. coord. in units 2pi/alat
        k(    1) = (   0.0555556   0.0554516   0.0555556), wk =   0.0219479
        k(    2) = (   0.0555556   0.0554516   0.1666667), wk =   0.0438957
        k(    3) = (   0.0555556   0.0554516   0.2777778), wk =   0.0438957
        k(    4) = (   0.0555556   0.0554516   0.3888889), wk =   0.0438957
        k(    5) = (   0.0555556   0.0554516  -0.5000000), wk =   0.0219479
        k(    6) = (   0.0555556   0.1663548   0.0555556), wk =   0.0219479
        k(    7) = (   0.0555556   0.1663548   0.1666667), wk =   0.0438957
        k(    8) = (   0.0555556   0.1663548   0.2777778), wk =   0.0438957
        k(    9) = (   0.0555556   0.1663548   0.3888889), wk =   0.0438957
        k(   10) = (   0.0555556   0.1663548  -0.5000000), wk =   0.0219479
        k(   11) = (   0.0555556   0.2772579   0.0555556), wk =   0.0219479
        k(   12) = (   0.0555556   0.2772579   0.1666667), wk =   0.0438957
        k(   13) = (   0.0555556   0.2772579   0.2777778), wk =   0.0438957
        k(   14) = (   0.0555556   0.2772579   0.3888889), wk =   0.0438957
        k(   15) = (   0.0555556   0.2772579  -0.5000000), wk =   0.0219479
        k(   16) = (   0.0555556   0.3881611   0.0555556), wk =   0.0219479
        k(   17) = (   0.0555556   0.3881611   0.1666667), wk =   0.0438957
        k(   18) = (   0.0555556   0.3881611   0.2777778), wk =   0.0438957
        k(   19) = (   0.0555556   0.3881611   0.3888889), wk =   0.0438957
        k(   20) = (   0.0555556   0.3881611  -0.5000000), wk =   0.0219479
        k(   21) = (   0.0555556  -0.4990643   0.0555556), wk =   0.0109739
        k(   22) = (   0.0555556  -0.4990643   0.1666667), wk =   0.0219479
        k(   23) = (   0.0555556  -0.4990643   0.2777778), wk =   0.0219479
        k(   24) = (   0.0555556  -0.4990643   0.3888889), wk =   0.0219479
        k(   25) = (   0.0555556  -0.4990643  -0.5000000), wk =   0.0109739
        k(   26) = (   0.1666667   0.0554516   0.1666667), wk =   0.0219479
        k(   27) = (   0.1666667   0.0554516   0.2777778), wk =   0.0438957
        k(   28) = (   0.1666667   0.0554516   0.3888889), wk =   0.0438957
        k(   29) = (   0.1666667   0.0554516  -0.5000000), wk =   0.0219479
        k(   30) = (   0.1666667   0.1663548   0.1666667), wk =   0.0219479
        k(   31) = (   0.1666667   0.1663548   0.2777778), wk =   0.0438957
        k(   32) = (   0.1666667   0.1663548   0.3888889), wk =   0.0438957
        k(   33) = (   0.1666667   0.1663548  -0.5000000), wk =   0.0219479
        k(   34) = (   0.1666667   0.2772579   0.1666667), wk =   0.0219479
        k(   35) = (   0.1666667   0.2772579   0.2777778), wk =   0.0438957
        k(   36) = (   0.1666667   0.2772579   0.3888889), wk =   0.0438957
        k(   37) = (   0.1666667   0.2772579  -0.5000000), wk =   0.0219479
        k(   38) = (   0.1666667   0.3881611   0.1666667), wk =   0.0219479
        k(   39) = (   0.1666667   0.3881611   0.2777778), wk =   0.0438957
        k(   40) = (   0.1666667   0.3881611   0.3888889), wk =   0.0438957
        k(   41) = (   0.1666667   0.3881611  -0.5000000), wk =   0.0219479
        k(   42) = (   0.1666667  -0.4990643   0.1666667), wk =   0.0109739
        k(   43) = (   0.1666667  -0.4990643   0.2777778), wk =   0.0219479
        k(   44) = (   0.1666667  -0.4990643   0.3888889), wk =   0.0219479
        k(   45) = (   0.1666667  -0.4990643  -0.5000000), wk =   0.0109739
        k(   46) = (   0.2777778   0.0554516   0.2777778), wk =   0.0219479
        k(   47) = (   0.2777778   0.0554516   0.3888889), wk =   0.0438957
        k(   48) = (   0.2777778   0.0554516  -0.5000000), wk =   0.0219479
        k(   49) = (   0.2777778   0.1663548   0.2777778), wk =   0.0219479
        k(   50) = (   0.2777778   0.1663548   0.3888889), wk =   0.0438957
        k(   51) = (   0.2777778   0.1663548  -0.5000000), wk =   0.0219479
        k(   52) = (   0.2777778   0.2772579   0.2777778), wk =   0.0219479
        k(   53) = (   0.2777778   0.2772579   0.3888889), wk =   0.0438957
        k(   54) = (   0.2777778   0.2772579  -0.5000000), wk =   0.0219479
        k(   55) = (   0.2777778   0.3881611   0.2777778), wk =   0.0219479
        k(   56) = (   0.2777778   0.3881611   0.3888889), wk =   0.0438957
        k(   57) = (   0.2777778   0.3881611  -0.5000000), wk =   0.0219479
        k(   58) = (   0.2777778  -0.4990643   0.2777778), wk =   0.0109739
        k(   59) = (   0.2777778  -0.4990643   0.3888889), wk =   0.0219479
        k(   60) = (   0.2777778  -0.4990643  -0.5000000), wk =   0.0109739
        k(   61) = (   0.3888889   0.0554516   0.3888889), wk =   0.0219479
        k(   62) = (   0.3888889   0.0554516  -0.5000000), wk =   0.0219479
        k(   63) = (   0.3888889   0.1663548   0.3888889), wk =   0.0219479
        k(   64) = (   0.3888889   0.1663548  -0.5000000), wk =   0.0219479
        k(   65) = (   0.3888889   0.2772579   0.3888889), wk =   0.0219479
        k(   66) = (   0.3888889   0.2772579  -0.5000000), wk =   0.0219479
        k(   67) = (   0.3888889   0.3881611   0.3888889), wk =   0.0219479
        k(   68) = (   0.3888889   0.3881611  -0.5000000), wk =   0.0219479
        k(   69) = (   0.3888889  -0.4990643   0.3888889), wk =   0.0109739
        k(   70) = (   0.3888889  -0.4990643  -0.5000000), wk =   0.0109739
        k(   71) = (  -0.5000000   0.0554516  -0.5000000), wk =   0.0054870
        k(   72) = (  -0.5000000   0.1663548  -0.5000000), wk =   0.0054870
        k(   73) = (  -0.5000000   0.2772579  -0.5000000), wk =   0.0054870
        k(   74) = (  -0.5000000   0.3881611  -0.5000000), wk =   0.0054870
        k(   75) = (  -0.5000000  -0.4990643  -0.5000000), wk =   0.0027435

     Dense  grid:   169293 G-vectors     FFT dimensions: (  72,  72,  72)

     Smooth grid:    90911 G-vectors     FFT dimensions: (  60,  60,  60)

     Estimated max dynamical RAM per process >      83.28 MB

     Estimated total dynamical RAM >       3.25 GB

     Check: negative/imaginary core charge=   -0.000006    0.000000

     Initial potential from superposition of free atoms

     starting charge  255.99300, renormalised to  256.00000
     Starting wfcs are  160 randomized atomic wfcs
     Checking if some PAW data can be deallocated... 

     total cpu time spent up to now is        7.5 secs

     Self-consistent Calculation

     iteration #  1     ecut=    71.00 Ry     beta= 0.10
     Davidson diagonalization with overlap
     ethr =  1.00E-02,  avg # of iterations =  3.3

     Threshold (ethr) on eigenvalues was too large:
     Diagonalizing with lowered threshold

     Davidson diagonalization with overlap
     ethr =  2.53E-04,  avg # of iterations =  3.2

     total cpu time spent up to now is       62.0 secs

     total energy              =   -5267.75258817 Ry
     Harris-Foulkes estimate   =   -5267.86793653 Ry
     estimated scf accuracy    <       0.73110030 Ry

     iteration #  2     ecut=    71.00 Ry     beta= 0.10
     Davidson diagonalization with overlap
     ethr =  2.86E-04,  avg # of iterations =  1.0

     total cpu time spent up to now is       78.3 secs

     total energy              =   -5267.61818661 Ry
     Harris-Foulkes estimate   =   -5267.76776851 Ry
     estimated scf accuracy    <       0.36220484 Ry

     iteration #  3     ecut=    71.00 Ry     beta= 0.10
     Davidson diagonalization with overlap
     ethr =  1.41E-04,  avg # of iterations =  3.2

     total cpu time spent up to now is      108.9 secs

     total energy              =   -5267.70026062 Ry
     Harris-Foulkes estimate   =   -5267.72179115 Ry
     estimated scf accuracy    <       0.50438140 Ry

     iteration #  4     ecut=    71.00 Ry     beta= 0.10
     Davidson diagonalization with overlap
     ethr =  1.41E-04,  avg # of iterations =  1.0

     total cpu time spent up to now is      125.4 secs

     total energy              =   -5267.70546345 Ry
     Harris-Foulkes estimate   =   -5267.71165878 Ry
     estimated scf accuracy    <       0.02945143 Ry

     iteration #  5     ecut=    71.00 Ry     beta= 0.10
     Davidson diagonalization with overlap
     ethr =  1.15E-05,  avg # of iterations =  2.1

     total cpu time spent up to now is      146.7 secs

     total energy              =   -5267.70566096 Ry
     Harris-Foulkes estimate   =   -5267.70780155 Ry
     estimated scf accuracy    <       0.02268133 Ry

     iteration #  6     ecut=    71.00 Ry     beta= 0.10
     Davidson diagonalization with overlap
     ethr =  8.86E-06,  avg # of iterations =  2.9

     total cpu time spent up to now is      172.3 secs

     total energy              =   -5267.70799960 Ry
     Harris-Foulkes estimate   =   -5267.70801537 Ry
     estimated scf accuracy    <       0.01179998 Ry

     iteration #  7     ecut=    71.00 Ry     beta= 0.10
     Davidson diagonalization with overlap
     ethr =  4.61E-06,  avg # of iterations =  1.0

     total cpu time spent up to now is      188.8 secs

     total energy              =   -5267.70729902 Ry
     Harris-Foulkes estimate   =   -5267.70839732 Ry
     estimated scf accuracy    <       0.01291955 Ry

     iteration #  8     ecut=    71.00 Ry     beta= 0.10
     Davidson diagonalization with overlap
     ethr =  4.61E-06,  avg # of iterations =  1.1

     total cpu time spent up to now is      206.1 secs

     total energy              =   -5267.70778702 Ry
     Harris-Foulkes estimate   =   -5267.70797228 Ry
     estimated scf accuracy    <       0.00392430 Ry

     iteration #  9     ecut=    71.00 Ry     beta= 0.10
     Davidson diagonalization with overlap
     ethr =  1.53E-06,  avg # of iterations =  2.3

     total cpu time spent up to now is      227.2 secs

     total energy              =   -5267.70794888 Ry
     Harris-Foulkes estimate   =   -5267.70796617 Ry
     estimated scf accuracy    <       0.00045078 Ry

     iteration # 10     ecut=    71.00 Ry     beta= 0.10
     Davidson diagonalization with overlap
     ethr =  1.76E-07,  avg # of iterations =  2.5

     total cpu time spent up to now is      249.2 secs

     total energy              =   -5267.70795245 Ry
     Harris-Foulkes estimate   =   -5267.70796993 Ry
     estimated scf accuracy    <       0.00024146 Ry

     iteration # 11     ecut=    71.00 Ry     beta= 0.10
     Davidson diagonalization with overlap
     ethr =  9.43E-08,  avg # of iterations =  1.0

     total cpu time spent up to now is      265.7 secs

     total energy              =   -5267.70794083 Ry
     Harris-Foulkes estimate   =   -5267.70796300 Ry
     estimated scf accuracy    <       0.00017058 Ry

     iteration # 12     ecut=    71.00 Ry     beta= 0.10
     Davidson diagonalization with overlap
     ethr =  6.66E-08,  avg # of iterations =  1.0

     total cpu time spent up to now is      281.9 secs

     total energy              =   -5267.70794275 Ry
     Harris-Foulkes estimate   =   -5267.70794910 Ry
     estimated scf accuracy    <       0.00011826 Ry

     iteration # 13     ecut=    71.00 Ry     beta= 0.10
     Davidson diagonalization with overlap
     ethr =  4.62E-08,  avg # of iterations =  1.5

     total cpu time spent up to now is      300.1 secs

     End of self-consistent calculation

          k = 0.0556 0.0555 0.0556 ( 11303 PWs)   bands (ev):

   -66.8218 -66.7230 -66.7229 -66.7227 -66.7066 -66.7064 -66.7062 -66.7055
   -66.7054 -66.7052 -66.7050 -66.7047 -66.7047 -66.6975 -66.6973 -66.6215
   -33.1178 -33.1177 -33.1174 -33.1147 -33.1147 -33.1143 -32.9511 -32.9493
   -32.9439 -32.8744 -32.8717 -32.8716 -32.8711 -32.8500 -32.8495 -32.8365
   -32.8365 -32.8357 -32.7992 -32.7987 -32.7746 -32.7586 -32.7585 -32.7581
   -32.7472 -32.7471 -32.7467 -32.7342 -32.7331 -32.7330 -32.7311 -32.7300
   -32.7299 -32.7228 -32.7227 -32.7223 -32.7120 -32.7118 -32.7114 -32.5482
   -32.5471 -32.5463 -32.5462 -32.5439 -32.5432 -32.5431 -32.5416 -32.5416
    11.4301  15.3076  15.3189  15.3189  15.4409  15.4416  15.4416  15.4669
    15.4677  15.4677  15.7093  15.7143  15.8204  15.8321  15.8321  17.2031
    17.2911  17.2919  17.2943  17.3058  17.3079  17.3080  17.3218  17.3219
    17.4308  17.4370  17.4806  17.7334  17.7379  17.7379  18.1269  18.1322
    18.1323  18.6104  18.6182  18.6629  18.9384  18.9386  18.9458  19.0432
    19.0434  19.0495  19.1299  19.1299  19.1380  19.2255  19.2256  19.2333
    19.9735  19.9735  19.9787  20.1923  20.1923  20.2026  20.2240  20.2241
    20.2279  20.3602  20.3603  20.3628  20.3629  20.3747  20.3766  20.3929
    20.4067  20.6426  20.6426  20.6583  20.6602  20.6602  20.6663  20.7044
    20.7046  20.7116  20.7120  21.1907  21.1907  21.2022  21.4214  21.4575
    21.4768  21.4770  21.4991  21.5014  21.9268  21.9269  21.9299  21.9349
    21.9597  21.9960

          k = 0.0556 0.0555 0.1667 ( 11336 PWs)   bands (ev):

   -66.8183 -66.7405 -66.7222 -66.7220 -66.7085 -66.7083 -66.7059 -66.7053
   -66.7050 -66.7045 -66.7039 -66.7037 -66.6981 -66.6977 -66.6885 -66.6241
   -33.1098 -33.1094 -33.1086 -33.1058 -33.1008 -33.1005 -32.9535 -32.9443
   -32.9341 -32.9112 -32.9027 -32.9023 -32.9004 -32.8997 -32.8688 -32.8683
   -32.8338 -32.8060 -32.7960 -32.7943 -32.7821 -32.7589 -32.7579 -32.7496
   -32.7393 -32.7380 -32.7370 -32.7365 -32.7354 -32.7282 -32.7273 -32.7236
   -32.7228 -32.7188 -32.7186 -32.6879 -32.6849 -32.6846 -32.6779 -32.5632
   -32.5565 -32.5559 -32.5542 -32.5515 -32.5473 -32.5471 -32.5464 -32.5442
    11.5681  14.6868  15.3649  15.3756  15.4516  15.4518  15.5317  15.5321
    15.5425  15.5673  15.7737  15.7777  15.8648  15.8757  16.1676  17.0950
    17.2047  17.2158  17.2895  17.3019  17.3291  17.3425  17.3458  17.3583
    17.3839  17.3997  17.6203  17.6321  17.6886  17.6923  18.0287  18.0329
    18.4847  18.5875  18.6129  18.7199  18.7233  18.7315  18.7899  18.9000
    18.9119  18.9498  19.2245  19.2250  19.3403  19.3419  19.3650  19.4658
    19.6586  19.6678  19.7287  19.9507  19.9520  19.9622  20.1100  20.2031
    20.2078  20.2993  20.3139  20.3295  20.3816  20.3826  20.3977  20.4086
    20.4268  20.4469  20.4504  20.4730  20.6630  20.6870  20.6872  20.7047
    20.7049  20.8782  20.9874  20.9966  21.1625  21.2467  21.3599  21.4664
    21.4851  21.4932  21.5262  21.5347  21.8303  21.8328  21.9805  22.0047
    22.0895  22.0975

          k = 0.0556 0.0555 0.2778 ( 11343 PWs)   bands (ev):

   -66.8115 -66.7579 -66.7207 -66.7205 -66.7109 -66.7107 -66.7050 -66.7048
   -66.7045 -66.7036 -66.7034 -66.7033 -66.6992 -66.6986 -66.6729 -66.6293
   -33.0914 -33.0910 -33.0906 -33.0885 -33.0768 -33.0765 -32.9544 -32.9533
   -32.9476 -32.9442 -32.9440 -32.9317 -32.9222 -32.9195 -32.9129 -32.9126
   -32.8286 -32.8185 -32.8161 -32.8009 -32.7569 -32.7559 -32.7515 -32.7504
   -32.7458 -32.7420 -32.7409 -32.7264 -32.7254 -32.7237 -32.7228 -32.7033
   -32.6955 -32.6837 -32.6833 -32.6549 -32.6518 -32.6513 -32.6457 -32.5891
   -32.5719 -32.5712 -32.5697 -32.5680 -32.5590 -32.5565 -32.5559 -32.5538
    11.8400  14.0092  15.4536  15.4629  15.4885  15.4894  15.6299  15.6301
    15.7364  15.7582  15.8918  15.9044  15.9172  15.9264  16.3122  16.9337
    16.9743  16.9804  17.1635  17.2128  17.2565  17.2669  17.4551  17.4706
    17.5236  17.5392  17.6799  17.6835  17.8724  17.8941  17.9606  17.9642
    18.4294  18.4419  18.5716  18.5910  18.6039  18.6056  18.6375  18.6838
    18.8152  19.0859  19.0953  19.1039  19.3110  19.3207  19.4818  19.4854
    19.4969  19.5185  19.5204  19.5227  19.5647  19.6444  19.7552  20.1852
    20.2002  20.2137  20.2979  20.3121  20.4207  20.4347  20.4840  20.5070
    20.5104  20.6464  20.6474  20.6685  20.6990  20.7010  20.7128  20.7403
    20.7428  20.7502  20.9517  20.9828  21.1089  21.1811  21.1905  21.4209
    21.4825  21.4999  21.5815  21.5861  21.7029  21.7058  22.0639  22.0864
    22.2205  22.2333

          k = 0.0556 0.0555 0.3889 ( 11350 PWs)   bands (ev):

   -66.8017 -66.7743 -66.7187 -66.7184 -66.7135 -66.7132 -66.7042 -66.7040
   -66.7037 -66.7034 -66.7032 -66.7024 -66.7006 -66.6997 -66.6589 -66.6369
   -33.0648 -33.0636 -33.0636 -33.0632 -33.0435 -33.0433 -32.9943 -32.9920
   -32.9875 -32.9873 -32.9592 -32.9590 -32.9529 -32.9377 -32.9130 -32.9000
   -32.8608 -32.8477 -32.8018 -32.7898 -32.7660 -32.7597 -32.7538 -32.7528
   -32.7461 -32.7451 -32.7249 -32.7240 -32.7238 -32.7229 -32.7064 -32.6607
   -32.6565 -32.6494 -32.6489 -32.6250 -32.6226 -32.6205 -32.6200 -32.6162
   -32.5928 -32.5924 -32.5923 -32.5921 -32.5763 -32.5718 -32.5712 -32.5698
    12.2374  13.3476  15.5292  15.5328  15.5351  15.5364  15.7468  15.7484
    15.9224  15.9288  16.0070  16.0237  16.0412  16.0936  16.3015  16.6354
    16.6599  16.6677  17.1589  17.1761  17.2168  17.2255  17.6252  17.6402
    17.7192  17.7343  17.7993  17.8036  17.9986  17.9987  18.1707  18.1791
    18.1985  18.2195  18.2823  18.2954  18.5648  18.5662  18.5726  18.6018
    18.6126  18.6290  18.7400  18.7485  18.9401  19.0464  19.0502  19.2846
    19.3971  19.7173  19.7231  19.7447  19.7513  19.9635  19.9749  20.0672
    20.0788  20.0828  20.1658  20.1778  20.4722  20.4813  20.5666  20.5919
    20.5945  20.6589  20.6757  20.6921  20.6979  20.7100  20.7872  20.7960
    20.8090  20.8106  20.9354  21.0286  21.0295  21.2141  21.2205  21.2976
    21.4733  21.4756  21.5027  21.5181  21.5835  21.5900  22.1652  22.1856
    22.2834  22.2991

          k = 0.0556 0.0555-0.5000 ( 11354 PWs)   bands (ev):

   -66.7891 -66.7889 -66.7163 -66.7161 -66.7159 -66.7158 -66.7038 -66.7037
   -66.7036 -66.7034 -66.7023 -66.7021 -66.7012 -66.7010 -66.6470 -66.6468
   -33.0319 -33.0317 -33.0316 -33.0314 -33.0281 -33.0280 -33.0278 -33.0278
   -33.0037 -33.0036 -33.0034 -33.0033 -32.9478 -32.9476 -32.8893 -32.8890
   -32.8762 -32.8760 -32.7840 -32.7838 -32.7754 -32.7752 -32.7504 -32.7501
   -32.7491 -32.7489 -32.7243 -32.7240 -32.7234 -32.7232 -32.6623 -32.6622
   -32.6235 -32.6233 -32.6219 -32.6217 -32.6188 -32.6188 -32.6182 -32.6181
   -32.5986 -32.5984 -32.5933 -32.5933 -32.5930 -32.5928 -32.5909 -32.5907
    12.7465  12.7471  15.5553  15.5557  15.5600  15.5603  15.8569  15.8572
    15.8605  15.8608  16.1922  16.1925  16.3287  16.3291  16.3369  16.3373
    16.3390  16.3396  17.1804  17.1806  17.1898  17.1899  17.8416  17.8417
    17.8557  17.8557  17.9400  17.9402  17.9514  17.9515  18.1523  18.1526
    18.1557  18.1560  18.3109  18.3112  18.3175  18.3178  18.5776  18.5777
    18.5922  18.5924  18.6060  18.6062  18.6084  18.6086  19.0974  19.0977
    19.7071  19.7074  19.9041  19.9042  19.9130  19.9131  19.9788  19.9790
    19.9884  19.9885  20.3090  20.3091  20.4344  20.4346  20.5311  20.5313
    20.5364  20.5367  20.6707  20.6709  20.6838  20.6840  20.6985  20.6987
    21.0665  21.0666  21.0679  21.0679  21.1328  21.1331  21.2798  21.2798
    21.2803  21.2804  21.5273  21.5275  21.5394  21.5397  22.2523  22.2526
    22.2704  22.2706

          k = 0.0556 0.1664 0.0556 ( 11329 PWs)   bands (ev):

   -66.8183 -66.7407 -66.7221 -66.7219 -66.7086 -66.7084 -66.7057 -66.7051
   -66.7050 -66.7042 -66.7040 -66.7038 -66.6981 -66.6977 -66.6887 -66.6241
   -33.1099 -33.1098 -33.1083 -33.1056 -33.1009 -33.1009 -32.9546 -32.9431
   -32.9340 -32.9114 -32.9031 -32.9029 -32.9001 -32.8999 -32.8691 -32.8691
   -32.8332 -32.8053 -32.7952 -32.7937 -32.7816 -32.7579 -32.7579 -32.7501
   -32.7402 -32.7369 -32.7369 -32.7368 -32.7362 -32.7273 -32.7273 -32.7227
   -32.7227 -32.7193 -32.7193 -32.6876 -32.6854 -32.6852 -32.6776 -32.5632
   -32.5558 -32.5558 -32.5549 -32.5523 -32.5473 -32.5465 -32.5464 -32.5441
    11.5675  14.6766  15.3751  15.3751  15.4519  15.4520  15.5323  15.5323
    15.5413  15.5660  15.7716  15.7790  15.8752  15.8752  16.1563  17.0926
    17.2044  17.2093  17.2744  17.2868  17.3243  17.3427  17.3581  17.3582
    17.3995  17.3996  17.6266  17.6388  17.6922  17.6922  18.0325  18.0326
    18.4803  18.5900  18.6062  18.7286  18.7289  18.7292  18.7957  18.9086
    18.9087  18.9523  19.2157  19.2158  19.3317  19.3317  19.3736  19.4745
    19.6575  19.6576  19.7351  19.9489  19.9489  19.9621  20.1236  20.2036
    20.2036  20.3017  20.3018  20.3195  20.3871  20.3873  20.3958  20.4219
    20.4358  20.4471  20.4472  20.4756  20.6690  20.6842  20.6845  20.7095
    20.7098  20.8862  20.9870  20.9870  21.1487  21.2481  21.3628  21.4847
    21.4849  21.4912  21.5269  21.5269  21.8299  21.8300  22.0041  22.0042
    22.0898  22.0899

          k = 0.0556 0.1664 0.1667 ( 11344 PWs)   bands (ev):

   -66.8150 -66.7394 -66.7392 -66.7213 -66.7134 -66.7079 -66.7077 -66.7048
   -66.7035 -66.7033 -66.7000 -66.6990 -66.6978 -66.6889 -66.6887 -66.6267
   -33.1078 -33.1011 -33.1007 -33.0930 -33.0926 -33.0813 -32.9613 -32.9396
   -32.9349 -32.9298 -32.9294 -32.9222 -32.9187 -32.9146 -32.8903 -32.8441
   -32.8292 -32.8286 -32.7946 -32.7929 -32.7927 -32.7643 -32.7536 -32.7526
   -32.7467 -32.7447 -32.7438 -32.7337 -32.7328 -32.7306 -32.7276 -32.7185
   -32.7088 -32.6965 -32.6889 -32.6887 -32.6654 -32.6525 -32.6519 -32.5846
   -32.5711 -32.5627 -32.5621 -32.5549 -32.5542 -32.5522 -32.5431 -32.5417
    11.7039  14.7527  14.7621  15.3948  15.4380  15.5537  15.5545  15.6299
    15.6310  15.6424  15.8361  15.8408  15.9277  16.1988  16.2090  16.9947
    17.1066  17.2841  17.3220  17.3327  17.3354  17.3368  17.3591  17.3738
    17.3802  17.4005  17.5044  17.6078  17.6319  17.6486  17.9265  18.3058
    18.3079  18.5299  18.5911  18.5929  18.5948  18.6374  18.7817  18.8293
    19.1296  19.1334  19.1918  19.1965  19.2370  19.3023  19.4028  19.4992
    19.5094  19.5096  19.5200  19.6977  19.7100  19.8488  19.9605  19.9654
    20.1940  20.3101  20.3230  20.3352  20.3805  20.3811  20.3932  20.4073
    20.4117  20.5890  20.6362  20.6695  20.6697  20.6857  20.6882  20.6991
    20.7006  20.7992  20.8052  21.0188  21.1254  21.1324  21.1350  21.1485
    21.2589  21.5154  21.5183  21.6501  21.7214  22.0789  22.3977  22.4021
    22.5839  22.7246

          k = 0.0556 0.1664 0.2778 ( 11358 PWs)   bands (ev):

   -66.8084 -66.7561 -66.7369 -66.7198 -66.7187 -66.7101 -66.7069 -66.7043
   -66.7029 -66.7027 -66.7003 -66.6984 -66.6967 -66.6895 -66.6737 -66.6315
   -33.0953 -33.0839 -33.0834 -33.0778 -33.0703 -33.0521 -32.9683 -32.9671
   -32.9648 -32.9535 -32.9513 -32.9497 -32.9273 -32.9245 -32.8990 -32.8744
   -32.8329 -32.8265 -32.7908 -32.7887 -32.7872 -32.7851 -32.7662 -32.7568
   -32.7565 -32.7501 -32.7431 -32.7322 -32.7301 -32.7168 -32.7106 -32.6931
   -32.6909 -32.6767 -32.6681 -32.6566 -32.6399 -32.6224 -32.6216 -32.6150
   -32.5917 -32.5753 -32.5745 -32.5696 -32.5636 -32.5626 -32.5463 -32.5456
    11.9726  14.1028  14.8868  15.3464  15.5373  15.5930  15.7279  15.7516
    15.7804  15.8197  15.9533  15.9652  15.9949  16.2364  16.3604  16.8780
    16.9594  16.9883  17.2249  17.2989  17.3124  17.3291  17.3723  17.4263
    17.4642  17.4857  17.5922  17.6697  17.7684  17.8306  17.8332  18.1748
    18.3352  18.4299  18.4526  18.4742  18.5089  18.5507  18.5739  18.7651
    18.8122  18.9606  18.9973  19.1517  19.2023  19.2808  19.3009  19.3087
    19.3914  19.4900  19.5132  19.5632  19.5948  19.7242  19.7457  20.0704
    20.2040  20.2374  20.2709  20.3125  20.3329  20.3666  20.4037  20.4500
    20.6143  20.6283  20.6298  20.6934  20.6987  20.7190  20.7209  20.7327
    20.7860  20.8935  20.9125  20.9277  20.9390  20.9647  21.0165  21.1071
    21.2390  21.4478  21.5023  21.5840  21.7172  22.2184  22.2402  22.8028
    22.8796  23.0139

          k = 0.0556 0.1664 0.3889 ( 11340 PWs)   bands (ev):

   -66.7987 -66.7720 -66.7333 -66.7239 -66.7177 -66.7127 -66.7054 -66.7037
   -66.7029 -66.7020 -66.7016 -66.6994 -66.6940 -66.6905 -66.6601 -66.6389
   -33.0734 -33.0592 -33.0577 -33.0556 -33.0399 -33.0143 -33.0072 -32.9971
   -32.9911 -32.9894 -32.9703 -32.9637 -32.9622 -32.9232 -32.9091 -32.8760
   -32.8578 -32.8192 -32.8147 -32.7826 -32.7825 -32.7743 -32.7660 -32.7643
   -32.7560 -32.7554 -32.7396 -32.7314 -32.7308 -32.7039 -32.6941 -32.6804
   -32.6551 -32.6520 -32.6453 -32.6399 -32.6273 -32.6170 -32.6148 -32.5955
   -32.5941 -32.5929 -32.5927 -32.5919 -32.5803 -32.5751 -32.5563 -32.5557
    12.3647  13.4560  15.0444  15.2841  15.6252  15.6387  15.8457  15.9365
    16.0145  16.0262  16.0796  16.1024  16.1483  16.2032  16.3571  16.6674
    16.6695  16.6847  17.1947  17.2377  17.2538  17.2776  17.5421  17.5770
    17.6057  17.6491  17.6594  17.8070  17.8867  18.0227  18.0566  18.1182
    18.2289  18.2385  18.2979  18.3076  18.4366  18.4373  18.4826  18.5176
    18.5241  18.5560  18.6398  18.7704  18.8335  18.8339  19.1170  19.5008
    19.5368  19.6939  19.6951  19.7559  19.7593  19.7732  19.9405  20.0216
    20.0367  20.1052  20.1773  20.2096  20.3792  20.4278  20.4509  20.5329
    20.5677  20.5733  20.5816  20.6905  20.6963  20.7033  20.7060  20.7678
    20.7800  20.8160  20.8456  20.9761  20.9835  21.0666  21.1181  21.2180
    21.2264  21.2301  21.4237  21.6207  21.7024  22.0581  22.3995  22.7328
    23.0576  23.2103

          k = 0.0556 0.1664-0.5000 ( 11352 PWs)   bands (ev):

   -66.7865 -66.7863 -66.7290 -66.7288 -66.7154 -66.7152 -66.7039 -66.7037
   -66.7033 -66.7031 -66.7006 -66.7004 -66.6920 -66.6918 -66.6486 -66.6484
   -33.0433 -33.0432 -33.0284 -33.0282 -33.0279 -33.0277 -33.0252 -33.0252
   -33.0032 -33.0032 -32.9708 -32.9706 -32.9691 -32.9690 -32.8858 -32.8856
   -32.8494 -32.8493 -32.7948 -32.7946 -32.7750 -32.7747 -32.7704 -32.7703
   -32.7605 -32.7603 -32.7312 -32.7310 -32.6985 -32.6983 -32.6944 -32.6942
   -32.6470 -32.6469 -32.6211 -32.6208 -32.6168 -32.6166 -32.6143 -32.6143
   -32.6017 -32.6015 -32.5927 -32.5927 -32.5733 -32.5731 -32.5719 -32.5717
    12.8660  12.8666  15.1848  15.1852  15.6594  15.6597  15.9552  15.9555
    16.0896  16.0899  16.2522  16.2526  16.3508  16.3512  16.3795  16.3799
    16.3842  16.3847  17.2133  17.2135  17.2376  17.2378  17.7393  17.7394
    17.7611  17.7614  17.7974  17.7975  17.8529  17.8532  18.1806  18.1806
    18.2168  18.2170  18.2856  18.2859  18.3993  18.3996  18.4176  18.4178
    18.4226  18.4226  18.4592  18.4594  18.5405  18.5406  19.2978  19.2980
    19.7904  19.7907  19.8127  19.8129  19.9423  19.9423  19.9889  19.9890
    20.0194  20.0196  20.0289  20.0290  20.3646  20.3648  20.4976  20.4978
    20.5102  20.5104  20.6396  20.6398  20.6898  20.6900  20.7280  20.7282
    20.8370  20.8370  20.9422  20.9424  21.0459  21.0460  21.1300  21.1301
    21.2919  21.2921  21.4541  21.4542  21.8689  21.8690  22.5852  22.5854
    23.1954  23.1957

          k = 0.0556 0.2773 0.0556 ( 11346 PWs)   bands (ev):

   -66.8116 -66.7581 -66.7207 -66.7205 -66.7110 -66.7107 -66.7049 -66.7047
   -66.7045 -66.7035 -66.7034 -66.7033 -66.6992 -66.6985 -66.6731 -66.6293
   -33.0915 -33.0914 -33.0903 -33.0884 -33.0770 -33.0769 -32.9555 -32.9533
   -32.9478 -32.9447 -32.9446 -32.9304 -32.9225 -32.9190 -32.9134 -32.9134
   -32.8281 -32.8180 -32.8156 -32.8005 -32.7558 -32.7557 -32.7511 -32.7509
   -32.7466 -32.7409 -32.7408 -32.7254 -32.7254 -32.7228 -32.7228 -32.7038
   -32.6961 -32.6840 -32.6840 -32.6548 -32.6521 -32.6520 -32.6455 -32.5890
   -32.5713 -32.5713 -32.5704 -32.5687 -32.5589 -32.5559 -32.5559 -32.5537
    11.8384  14.0006  15.4617  15.4617  15.4891  15.4891  15.6304  15.6304
    15.7343  15.7560  15.8869  15.9070  15.9252  15.9253  16.3017  16.9282
    16.9725  16.9739  17.1604  17.2085  17.2429  17.2534  17.4701  17.4702
    17.5387  17.5388  17.6832  17.6832  17.8808  17.9025  17.9637  17.9637
    18.4397  18.4399  18.5726  18.6001  18.6013  18.6015  18.6388  18.6874
    18.8228  19.0802  19.0955  19.0955  19.3113  19.3113  19.4747  19.4748
    19.5043  19.5129  19.5129  19.5302  19.5771  19.6528  19.7638  20.1751
    20.2022  20.2023  20.3001  20.3002  20.4325  20.4466  20.4913  20.5072
    20.5073  20.6462  20.6472  20.6745  20.7044  20.7063  20.7141  20.7401
    20.7402  20.7570  20.9431  20.9862  21.1135  21.1839  21.1839  21.4191
    21.4988  21.4989  21.5822  21.5823  21.7025  21.7026  22.0846  22.0847
    22.2238  22.2238

          k = 0.0556 0.2773 0.1667 ( 11356 PWs)   bands (ev):

   -66.8084 -66.7562 -66.7367 -66.7199 -66.7186 -66.7103 -66.7067 -66.7044
   -66.7031 -66.7025 -66.7003 -66.6984 -66.6966 -66.6894 -66.6738 -66.6316
   -33.0954 -33.0839 -33.0836 -33.0775 -33.0707 -33.0522 -32.9687 -32.9674
   -32.9649 -32.9538 -32.9514 -32.9495 -32.9271 -32.9247 -32.8987 -32.8751
   -32.8327 -32.8264 -32.7906 -32.7886 -32.7864 -32.7846 -32.7657 -32.7575
   -32.7565 -32.7491 -32.7436 -32.7313 -32.7296 -32.7175 -32.7106 -32.6934
   -32.6908 -32.6770 -32.6682 -32.6566 -32.6400 -32.6223 -32.6218 -32.6148
   -32.5918 -32.5751 -32.5748 -32.5702 -32.5635 -32.5620 -32.5464 -32.5454
    11.9716  14.0949  14.8944  15.3468  15.5366  15.5931  15.7287  15.7499
    15.7808  15.8176  15.9494  15.9676  15.9942  16.2441  16.3508  16.8750
    16.9558  16.9868  17.2208  17.2858  17.3078  17.3161  17.3749  17.4404
    17.4639  17.4996  17.5921  17.6693  17.7752  17.8310  17.8399  18.1767
    18.3338  18.4351  18.4520  18.4731  18.5119  18.5564  18.5746  18.7655
    18.8095  18.9632  18.9889  19.1423  19.2127  19.2924  19.3015  19.3073
    19.3959  19.4854  19.5071  19.5576  19.5874  19.7295  19.7556  20.0713
    20.1968  20.2263  20.2674  20.3004  20.3331  20.3778  20.4156  20.4555
    20.6143  20.6289  20.6307  20.6957  20.7013  20.7205  20.7253  20.7350
    20.7858  20.8993  20.9140  20.9192  20.9349  20.9627  21.0193  21.1194
    21.2342  21.4472  21.5017  21.5833  21.7170  22.2173  22.2361  22.7956
    22.9049  23.0177

          k = 0.0556 0.2773 0.2778 ( 11347 PWs)   bands (ev):

   -66.8021 -66.7527 -66.7526 -66.7266 -66.7184 -66.7091 -66.7089 -66.7039
   -66.7023 -66.7022 -66.7018 -66.6987 -66.6906 -66.6754 -66.6752 -66.6362
   -33.0890 -33.0690 -33.0686 -33.0587 -33.0584 -33.0181 -32.9844 -32.9841
   -32.9811 -32.9802 -32.9713 -32.9682 -32.9456 -32.9158 -32.8741 -32.8338
   -32.8312 -32.8308 -32.8205 -32.8203 -32.7860 -32.7747 -32.7719 -32.7645
   -32.7637 -32.7511 -32.7503 -32.7422 -32.7415 -32.7363 -32.6971 -32.6694
   -32.6608 -32.6606 -32.6539 -32.6505 -32.6473 -32.6231 -32.6167 -32.5956
   -32.5951 -32.5828 -32.5822 -32.5746 -32.5742 -32.5739 -32.5432 -32.5423
    12.2333  14.2709  14.2774  15.1864  15.6606  15.7914  15.7925  15.9137
    15.9154  15.9413  16.0532  16.0967  16.0973  16.3946  16.4019  16.8144
    16.8745  17.0643  17.0659  17.2821  17.3550  17.3763  17.3885  17.4208
    17.4326  17.4954  17.5182  17.6946  17.7182  17.8173  17.8589  18.2293
    18.2295  18.3347  18.3536  18.3546  18.3701  18.3768  18.4317  18.5404
    18.7839  18.7923  18.8465  18.8559  19.0076  19.0610  19.0638  19.1399
    19.5744  19.5752  19.6343  19.6743  19.7192  19.7264  19.9375  20.0239
    20.0275  20.1920  20.2768  20.2868  20.3045  20.3234  20.3347  20.3905
    20.4283  20.5850  20.5867  20.5943  20.6936  20.7034  20.7376  20.7899
    20.8017  20.8043  20.8540  20.8719  20.8800  20.9864  20.9904  21.1657
    21.1673  21.2064  21.5543  21.7458  21.7599  22.4516  22.8664  22.8699
    23.4696  23.4752

          k = 0.0556 0.2773 0.3889 ( 11352 PWs)   bands (ev):

   -66.7929 -66.7676 -66.7477 -66.7343 -66.7164 -66.7114 -66.7075 -66.7037
   -66.7033 -66.7023 -66.7014 -66.6995 -66.6854 -66.6779 -66.6626 -66.6429
   -33.0731 -33.0480 -33.0472 -33.0419 -33.0329 -33.0186 -33.0010 -32.9947
   -32.9940 -32.9926 -32.9896 -32.9773 -32.9733 -32.8984 -32.8808 -32.8499
   -32.8465 -32.8223 -32.8116 -32.7865 -32.7849 -32.7841 -32.7831 -32.7790
   -32.7781 -32.7714 -32.7546 -32.7418 -32.7403 -32.7136 -32.6918 -32.6852
   -32.6670 -32.6456 -32.6412 -32.6332 -32.6312 -32.6266 -32.6068 -32.5944
   -32.5942 -32.5918 -32.5895 -32.5820 -32.5734 -32.5726 -32.5462 -32.5459
    12.6142  13.6641  14.5032  14.9901  15.7815  15.8352  16.0285  16.0677
    16.1046  16.1599  16.1685  16.1868  16.2824  16.3626  16.4133  16.6820
    16.6844  16.7738  17.2638  17.2664  17.3073  17.3278  17.3576  17.4891
    17.4953  17.5350  17.6262  17.6295  17.8747  17.9654  17.9712  17.9965
    18.1074  18.2001  18.2154  18.2704  18.2881  18.3115  18.3984  18.4186
    18.4401  18.4984  18.5017  18.5137  18.6494  18.7203  19.3377  19.3538
    19.7169  19.7319  19.7858  19.8242  19.8261  19.8328  19.8385  19.9255
    20.0355  20.0896  20.1622  20.2030  20.2181  20.3384  20.3495  20.3756
    20.4799  20.4982  20.5164  20.5209  20.6240  20.6990  20.7140  20.7207
    20.7404  20.8043  20.8199  20.8396  20.8502  20.9248  20.9441  21.0124
    21.3379  21.3990  21.5426  21.6985  22.0136  22.5978  22.7405  23.2953
    23.5419  24.1428

          k = 0.0556 0.2773-0.5000 ( 11358 PWs)   bands (ev):

   -66.7813 -66.7811 -66.7416 -66.7413 -66.7141 -66.7139 -66.7058 -66.7056
   -66.7028 -66.7026 -66.7005 -66.7003 -66.6813 -66.6811 -66.6519 -66.6517
   -33.0493 -33.0492 -33.0223 -33.0221 -33.0220 -33.0219 -33.0212 -33.0211
   -33.0035 -33.0034 -32.9942 -32.9941 -32.9305 -32.9304 -32.8764 -32.8762
   -32.8163 -32.8162 -32.8042 -32.8040 -32.8001 -32.7999 -32.7766 -32.7763
   -32.7682 -32.7680 -32.7416 -32.7414 -32.7377 -32.7376 -32.6785 -32.6784
   -32.6753 -32.6751 -32.6146 -32.6144 -32.6110 -32.6108 -32.6094 -32.6092
   -32.6088 -32.6088 -32.5930 -32.5929 -32.5566 -32.5565 -32.5559 -32.5558
    13.0985  13.0990  14.7552  14.7557  15.8432  15.8435  16.1283  16.1286
    16.2538  16.2542  16.3225  16.3230  16.3842  16.3845  16.4477  16.4480
    16.5100  16.5104  17.2775  17.2776  17.3030  17.3031  17.5632  17.5635
    17.5832  17.5835  17.5923  17.5925  17.7917  17.7918  18.1594  18.1596
    18.1911  18.1913  18.1987  18.1989  18.2265  18.2268  18.2348  18.2348
    18.3950  18.3951  18.4042  18.4044  18.4622  18.4624  19.5528  19.5529
    19.6828  19.6828  19.7479  19.7481  19.9212  19.9214  20.0093  20.0093
    20.0273  20.0274  20.0547  20.0549  20.1958  20.1959  20.4335  20.4337
    20.4459  20.4462  20.5832  20.5835  20.6271  20.6271  20.7123  20.7125
    20.7366  20.7368  20.7604  20.7606  20.8555  20.8557  20.9833  20.9834
    21.4671  21.4673  21.5805  21.5806  22.3052  22.3054  23.0363  23.0365
    24.2367  24.2370

          k = 0.0556 0.3882 0.0556 ( 11367 PWs)   bands (ev):

   -66.8018 -66.7744 -66.7186 -66.7184 -66.7135 -66.7133 -66.7042 -66.7041
   -66.7035 -66.7035 -66.7032 -66.7022 -66.7005 -66.6997 -66.6591 -66.6370
   -33.0646 -33.0638 -33.0638 -33.0634 -33.0438 -33.0438 -32.9944 -32.9920
   -32.9882 -32.9881 -32.9598 -32.9598 -32.9539 -32.9384 -32.9120 -32.8995
   -32.8599 -32.8472 -32.8016 -32.7895 -32.7664 -32.7603 -32.7527 -32.7526
   -32.7449 -32.7448 -32.7239 -32.7239 -32.7229 -32.7228 -32.7059 -32.6614
   -32.6572 -32.6496 -32.6496 -32.6249 -32.6226 -32.6206 -32.6205 -32.6161
   -32.5931 -32.5931 -32.5923 -32.5923 -32.5763 -32.5715 -32.5715 -32.5697
    12.2344  13.3409  15.5342  15.5342  15.5347  15.5347  15.7481  15.7481
    15.9274  15.9275  16.0035  16.0202  16.0348  16.0956  16.2919  16.6351
    16.6541  16.6618  17.1529  17.1700  17.2053  17.2142  17.6393  17.6394
    17.7332  17.7334  17.8023  17.8023  18.0007  18.0008  18.1786  18.1788
    18.2083  18.2292  18.2937  18.2938  18.5667  18.5668  18.5672  18.5978
    18.6174  18.6274  18.7423  18.7423  18.9485  19.0579  19.0620  19.2928
    19.3885  19.7127  19.7128  19.7397  19.7397  19.9649  19.9713  20.0678
    20.0679  20.0914  20.1653  20.1654  20.4818  20.4908  20.5709  20.5951
    20.5979  20.6641  20.6815  20.6975  20.7036  20.7163  20.7923  20.7935
    20.8088  20.8089  20.9357  21.0276  21.0278  21.2177  21.2178  21.2962
    21.4734  21.4735  21.5158  21.5160  21.5859  21.5859  22.1819  22.1819
    22.2910  22.2910

          k = 0.0556 0.3882 0.1667 ( 11340 PWs)   bands (ev):

   -66.7987 -66.7721 -66.7332 -66.7238 -66.7178 -66.7128 -66.7053 -66.7038
   -66.7030 -66.7019 -66.7015 -66.6993 -66.6939 -66.6903 -66.6602 -66.6390
   -33.0735 -33.0590 -33.0582 -33.0555 -33.0402 -33.0145 -33.0077 -32.9971
   -32.9910 -32.9899 -32.9706 -32.9641 -32.9624 -32.9237 -32.9089 -32.8755
   -32.8577 -32.8185 -32.8146 -32.7826 -32.7824 -32.7748 -32.7659 -32.7635
   -32.7565 -32.7543 -32.7390 -32.7304 -32.7300 -32.7038 -32.6940 -32.6810
   -32.6556 -32.6517 -32.6455 -32.6400 -32.6274 -32.6171 -32.6147 -32.5951
   -32.5945 -32.5934 -32.5926 -32.5924 -32.5803 -32.5747 -32.5561 -32.5558
    12.3623  13.4499  15.0498  15.2855  15.6239  15.6382  15.8459  15.9376
    16.0136  16.0232  16.0764  16.0965  16.1506  16.2078  16.3484  16.6649
    16.6674  16.6799  17.1887  17.2317  17.2428  17.2669  17.5448  17.5897
    17.6050  17.6594  17.6610  17.8098  17.8858  18.0219  18.0658  18.1270
    18.2309  18.2434  18.2995  18.3152  18.4350  18.4361  18.4806  18.5124
    18.5285  18.5580  18.6337  18.7726  18.8439  18.8449  19.1210  19.5055
    19.5318  19.6912  19.6983  19.7478  19.7505  19.7689  19.9410  20.0135
    20.0456  20.0950  20.1656  20.2074  20.3821  20.4370  20.4608  20.5368
    20.5714  20.5773  20.5796  20.6934  20.6999  20.7085  20.7096  20.7642
    20.7848  20.8158  20.8516  20.9754  20.9815  21.0770  21.1188  21.2170
    21.2233  21.2285  21.4234  21.6203  21.7007  22.0545  22.3967  22.7267
    23.0783  23.2200

          k = 0.0556 0.3882 0.2778 ( 11353 PWs)   bands (ev):

   -66.7929 -66.7677 -66.7476 -66.7343 -66.7164 -66.7116 -66.7074 -66.7037
   -66.7033 -66.7024 -66.7013 -66.6994 -66.6854 -66.6777 -66.6627 -66.6430
   -33.0733 -33.0478 -33.0475 -33.0417 -33.0333 -33.0189 -33.0010 -32.9950
   -32.9940 -32.9925 -32.9897 -32.9774 -32.9734 -32.8984 -32.8812 -32.8500
   -32.8463 -32.8223 -32.8114 -32.7866 -32.7844 -32.7836 -32.7834 -32.7790
   -32.7778 -32.7707 -32.7551 -32.7412 -32.7398 -32.7140 -32.6918 -32.6852
   -32.6669 -32.6459 -32.6414 -32.6334 -32.6315 -32.6267 -32.6067 -32.5948
   -32.5940 -32.5922 -32.5895 -32.5816 -32.5731 -32.5728 -32.5461 -32.5458
    12.6128  13.6592  14.5079  14.9912  15.7809  15.8355  16.0295  16.0655
    16.1052  16.1597  16.1659  16.1844  16.2827  16.3667  16.4071  16.6794
    16.6818  16.7733  17.2590  17.2684  17.3030  17.3179  17.3484  17.4894
    17.5056  17.5439  17.6279  17.6292  17.8811  17.9656  17.9770  17.9959
    18.1073  18.2020  18.2152  18.2736  18.2876  18.3122  18.3937  18.4207
    18.4338  18.5027  18.5078  18.5220  18.6505  18.7185  19.3393  19.3564
    19.7131  19.7291  19.7892  19.8217  19.8242  19.8307  19.8343  19.9319
    20.0366  20.0849  20.1535  20.1932  20.2156  20.3361  20.3577  20.3847
    20.4823  20.5008  20.5189  20.5239  20.6286  20.6999  20.7104  20.7219
    20.7423  20.8114  20.8200  20.8426  20.8490  20.9244  20.9432  21.0099
    21.3388  21.3977  21.5427  21.6978  22.0127  22.5948  22.7390  23.2910
    23.5446  24.1675

          k = 0.0556 0.3882 0.3889 ( 11348 PWs)   bands (ev):

   -66.7845 -66.7614 -66.7613 -66.7442 -66.7146 -66.7099 -66.7098 -66.7057
   -66.7027 -66.7016 -66.7015 -66.6999 -66.6779 -66.6665 -66.6664 -66.6490
   -33.0636 -33.0330 -33.0328 -33.0243 -33.0240 -33.0217 -33.0214 -33.0068
   -33.0059 -33.0040 -33.0030 -32.9876 -32.9330 -32.8827 -32.8383 -32.8381
   -32.8343 -32.8340 -32.8200 -32.8145 -32.8059 -32.7905 -32.7900 -32.7886
   -32.7743 -32.7545 -32.7540 -32.7482 -32.7477 -32.7473 -32.7374 -32.6775
   -32.6685 -32.6424 -32.6422 -32.6239 -32.6176 -32.6144 -32.6032 -32.5999
   -32.5984 -32.5981 -32.5927 -32.5924 -32.5565 -32.5562 -32.5427 -32.5424
    12.9748  13.9502  13.9535  14.6533  15.9557  16.0995  16.1007  16.2458
    16.2684  16.2702  16.2807  16.2986  16.4075  16.4107  16.4823  16.5972
    16.6550  16.9898  16.9910  17.3064  17.3229  17.3866  17.4043  17.4117
    17.4149  17.4208  17.5053  17.6264  17.7085  17.8190  17.9292  18.0095
    18.0098  18.1003  18.1609  18.1762  18.1880  18.1941  18.2227  18.2272
    18.3582  18.3586  18.3621  18.4448  18.4828  19.0019  19.0033  19.5762
    19.6750  19.7535  19.8150  19.8182  19.9345  19.9351  19.9556  19.9651
    20.0822  20.0842  20.1184  20.2028  20.2405  20.2459  20.2467  20.2586
    20.2654  20.4391  20.4428  20.4571  20.5453  20.6383  20.6419  20.6673
    20.7158  20.7463  20.7791  20.7798  20.8166  20.8717  20.8732  20.8967
    21.5236  21.5245  21.6025  21.7089  22.3886  23.1354  23.1732  23.1751
    23.9038  23.9066

          k = 0.0556 0.3882-0.5000 ( 11358 PWs)   bands (ev):

   -66.7739 -66.7737 -66.7535 -66.7533 -66.7123 -66.7121 -66.7080 -66.7078
   -66.7021 -66.7019 -66.7008 -66.7006 -66.6717 -66.6715 -66.6569 -66.6567
   -33.0460 -33.0459 -33.0174 -33.0173 -33.0172 -33.0171 -33.0170 -33.0169
   -33.0151 -33.0150 -33.0051 -33.0050 -32.8844 -32.8843 -32.8624 -32.8622
   -32.8235 -32.8233 -32.8082 -32.8080 -32.7929 -32.7927 -32.7858 -32.7856
   -32.7813 -32.7812 -32.7662 -32.7661 -32.7529 -32.7527 -32.7117 -32.7116
   -32.6541 -32.6539 -32.6210 -32.6208 -32.6070 -32.6068 -32.6063 -32.6061
   -32.6050 -32.6049 -32.5951 -32.5950 -32.5462 -32.5460 -32.5459 -32.5457
    13.4302  13.4307  14.2938  14.2943  16.0745  16.0748  16.3363  16.3366
    16.3495  16.3500  16.3679  16.3684  16.3834  16.3837  16.5094  16.5096
    16.7242  16.7246  17.2875  17.2878  17.3361  17.3362  17.3385  17.3386
    17.4000  17.4002  17.4565  17.4567  17.8377  17.8377  17.9557  17.9559
    18.0423  18.0426  18.0517  18.0519  18.0660  18.0661  18.1129  18.1131
    18.3749  18.3750  18.3965  18.3966  18.6664  18.6664  19.3241  19.3241
    19.7510  19.7512  19.8241  19.8242  20.0018  20.0020  20.0538  20.0540
    20.1064  20.1066  20.1109  20.1110  20.1149  20.1150  20.3413  20.3414
    20.3482  20.3484  20.3791  20.3792  20.5196  20.5198  20.5676  20.5678
    20.7399  20.7401  20.7908  20.7909  20.8041  20.8043  20.8852  20.8854
    21.5949  21.5950  21.6506  21.6507  22.7848  22.7850  23.5375  23.5377
    23.7652  23.7654

          k = 0.0556-0.4991 0.0556 ( 11348 PWs)   bands (ev):

   -66.7892 -66.7890 -66.7162 -66.7161 -66.7161 -66.7158 -66.7038 -66.7037
   -66.7037 -66.7034 -66.7022 -66.7020 -66.7010 -66.7009 -66.6470 -66.6468
   -33.0318 -33.0316 -33.0315 -33.0313 -33.0286 -33.0285 -33.0285 -33.0284
   -33.0042 -33.0041 -33.0041 -33.0041 -32.9484 -32.9483 -32.8882 -32.8880
   -32.8754 -32.8753 -32.7840 -32.7839 -32.7754 -32.7752 -32.7492 -32.7491
   -32.7490 -32.7489 -32.7233 -32.7233 -32.7232 -32.7231 -32.6618 -32.6618
   -32.6241 -32.6240 -32.6223 -32.6222 -32.6187 -32.6186 -32.6186 -32.6186
   -32.5984 -32.5982 -32.5931 -32.5931 -32.5931 -32.5930 -32.5906 -32.5905
    12.7420  12.7421  15.5585  15.5585  15.5585  15.5585  15.8596  15.8597
    15.8597  15.8597  16.1845  16.1846  16.3241  16.3242  16.3322  16.3324
    16.3402  16.3404  17.1716  17.1717  17.1810  17.1811  17.8543  17.8544
    17.8544  17.8545  17.9502  17.9502  17.9503  17.9504  18.1552  18.1552
    18.1553  18.1553  18.3143  18.3144  18.3144  18.3145  18.5799  18.5800
    18.6032  18.6033  18.6063  18.6064  18.6168  18.6169  19.1061  19.1064
    19.6977  19.6979  19.9024  19.9025  19.9025  19.9026  19.9763  19.9763
    19.9764  19.9764  20.3158  20.3159  20.4422  20.4422  20.5379  20.5381
    20.5433  20.5436  20.6715  20.6716  20.6895  20.6897  20.7046  20.7047
    21.0670  21.0670  21.0671  21.0672  21.1324  21.1325  21.2789  21.2789
    21.2789  21.2790  21.5358  21.5359  21.5359  21.5360  22.2646  22.2646
    22.2647  22.2647

          k = 0.0556-0.4991 0.1667 ( 11338 PWs)   bands (ev):

   -66.7866 -66.7864 -66.7289 -66.7287 -66.7154 -66.7152 -66.7038 -66.7036
   -66.7033 -66.7032 -66.7005 -66.7003 -66.6920 -66.6918 -66.6487 -66.6485
   -33.0437 -33.0437 -33.0283 -33.0280 -33.0278 -33.0275 -33.0258 -33.0257
   -33.0036 -33.0036 -32.9711 -32.9711 -32.9692 -32.9691 -32.8856 -32.8854
   -32.8487 -32.8486 -32.7949 -32.7948 -32.7748 -32.7747 -32.7704 -32.7703
   -32.7595 -32.7593 -32.7301 -32.7299 -32.6983 -32.6981 -32.6939 -32.6938
   -32.6473 -32.6473 -32.6214 -32.6213 -32.6173 -32.6172 -32.6142 -32.6142
   -32.6017 -32.6016 -32.5925 -32.5925 -32.5730 -32.5730 -32.5722 -32.5721
    12.8621  12.8622  15.1881  15.1882  15.6584  15.6585  15.9548  15.9549
    16.0920  16.0920  16.2450  16.2451  16.3468  16.3469  16.3754  16.3755
    16.3856  16.3859  17.2050  17.2051  17.2295  17.2296  17.7490  17.7491
    17.7668  17.7669  17.7965  17.7966  17.8547  17.8549  18.1798  18.1798
    18.2189  18.2190  18.2839  18.2840  18.4022  18.4023  18.4211  18.4212
    18.4280  18.4281  18.4692  18.4692  18.5440  18.5440  19.3027  19.3029
    19.7830  19.7832  19.8116  19.8117  19.9329  19.9331  19.9784  19.9785
    20.0158  20.0159  20.0329  20.0329  20.3721  20.3721  20.5043  20.5045
    20.5177  20.5179  20.6401  20.6403  20.6933  20.6934  20.7322  20.7323
    20.8395  20.8396  20.9415  20.9415  21.0505  21.0505  21.1283  21.1284
    21.2921  21.2922  21.4531  21.4531  21.8662  21.8662  22.5808  22.5809
    23.2109  23.2110

          k = 0.0556-0.4991 0.2778 ( 11362 PWs)   bands (ev):

   -66.7814 -66.7812 -66.7415 -66.7413 -66.7142 -66.7140 -66.7057 -66.7055
   -66.7029 -66.7027 -66.7005 -66.7003 -66.6812 -66.6810 -66.6520 -66.6518
   -33.0495 -33.0494 -33.0222 -33.0221 -33.0220 -33.0219 -33.0217 -33.0216
   -33.0039 -33.0038 -32.9941 -32.9940 -32.9308 -32.9308 -32.8764 -32.8762
   -32.8157 -32.8157 -32.8044 -32.8043 -32.8000 -32.7998 -32.7759 -32.7758
   -32.7683 -32.7682 -32.7411 -32.7410 -32.7373 -32.7373 -32.6787 -32.6787
   -32.6752 -32.6751 -32.6150 -32.6149 -32.6113 -32.6112 -32.6094 -32.6093
   -32.6087 -32.6086 -32.5927 -32.5927 -32.5564 -32.5563 -32.5561 -32.5560
    13.0956  13.0957  14.7580  14.7581  15.8429  15.8430  16.1286  16.1286
    16.2559  16.2559  16.3182  16.3183  16.3813  16.3814  16.4445  16.4446
    16.5104  16.5106  17.2701  17.2703  17.2964  17.2965  17.5665  17.5666
    17.5848  17.5849  17.5985  17.5986  17.7911  17.7912  18.1680  18.1680
    18.1896  18.1896  18.2000  18.2001  18.2343  18.2344  18.2344  18.2344
    18.3941  18.3941  18.4056  18.4056  18.4643  18.4643  19.5553  19.5555
    19.6849  19.6849  19.7467  19.7469  19.9167  19.9168  20.0023  20.0025
    20.0197  20.0198  20.0519  20.0519  20.2007  20.2007  20.4390  20.4392
    20.4521  20.4523  20.5834  20.5836  20.6280  20.6281  20.7136  20.7137
    20.7403  20.7404  20.7626  20.7627  20.8551  20.8552  20.9820  20.9821
    21.4677  21.4677  21.5797  21.5797  22.3033  22.3033  23.0334  23.0334
    24.2385  24.2385

          k = 0.0556-0.4991 0.3889 ( 11358 PWs)   bands (ev):

   -66.7739 -66.7737 -66.7535 -66.7533 -66.7124 -66.7122 -66.7080 -66.7078
   -66.7021 -66.7019 -66.7008 -66.7006 -66.6716 -66.6715 -66.6569 -66.6568
   -33.0461 -33.0460 -33.0174 -33.0174 -33.0172 -33.0170 -33.0169 -33.0169
   -33.0150 -33.0149 -33.0053 -33.0052 -32.8845 -32.8845 -32.8624 -32.8622
   -32.8234 -32.8232 -32.8085 -32.8084 -32.7925 -32.7924 -32.7855 -32.7855
   -32.7811 -32.7811 -32.7663 -32.7663 -32.7526 -32.7525 -32.7118 -32.7117
   -32.6540 -32.6539 -32.6210 -32.6208 -32.6071 -32.6071 -32.6064 -32.6063
   -32.6048 -32.6047 -32.5949 -32.5948 -32.5461 -32.5460 -32.5459 -32.5457
    13.4287  13.4288  14.2955  14.2956  16.0749  16.0749  16.3372  16.3372
    16.3509  16.3510  16.3663  16.3664  16.3821  16.3822  16.5077  16.5078
    16.7239  16.7240  17.2884  17.2885  17.3329  17.3330  17.3342  17.3343
    17.4016  17.4017  17.4597  17.4598  17.8374  17.8375  17.9604  17.9605
    18.0460  18.0460  18.0502  18.0502  18.0660  18.0661  18.1128  18.1129
    18.3752  18.3752  18.3972  18.3972  18.6658  18.6658  19.3249  19.3249
    19.7500  19.7502  19.8251  19.8253  20.0040  20.0040  20.0522  20.0523
    20.1055  20.1056  20.1075  20.1077  20.1111  20.1112  20.3443  20.3445
    20.3517  20.3519  20.3784  20.3785  20.5193  20.5194  20.5703  20.5704
    20.7404  20.7405  20.7917  20.7918  20.8039  20.8040  20.8846  20.8847
    21.5953  21.5953  21.6502  21.6502  22.7839  22.7839  23.5362  23.5362
    23.7662  23.7662

          k = 0.0556-0.4991-0.5000 ( 11368 PWs)   bands (ev):

   -66.7646 -66.7644 -66.7643 -66.7642 -66.7103 -66.7101 -66.7101 -66.7099
   -66.7015 -66.7013 -66.7013 -66.7011 -66.6637 -66.6635 -66.6634 -66.6633
   -33.0351 -33.0350 -33.0349 -33.0347 -33.0156 -33.0155 -33.0154 -33.0153
   -33.0091 -33.0089 -33.0089 -33.0087 -32.8448 -32.8446 -32.8446 -32.8443
   -32.8357 -32.8355 -32.8355 -32.8354 -32.8045 -32.8044 -32.8043 -32.8041
   -32.7614 -32.7613 -32.7612 -32.7610 -32.7466 -32.7464 -32.7463 -32.7463
   -32.6361 -32.6360 -32.6359 -32.6357 -32.6039 -32.6038 -32.6037 -32.6037
   -32.5999 -32.5998 -32.5996 -32.5996 -32.5427 -32.5426 -32.5424 -32.5423
    13.8390  13.8391  13.8396  13.8396  16.2817  16.2817  16.2819  16.2820
    16.3823  16.3824  16.3827  16.3830  16.4897  16.4898  16.4900  16.4900
    16.9927  16.9929  16.9931  16.9932  17.3283  17.3285  17.3286  17.3286
    17.3762  17.3764  17.3765  17.3765  17.9308  17.9310  17.9311  17.9312
    17.9358  17.9359  17.9360  17.9361  18.0242  18.0243  18.0243  18.0245
    18.3653  18.3653  18.3654  18.3654  18.9796  18.9797  18.9797  18.9797
    19.8400  19.8402  19.8402  19.8403  20.0962  20.0962  20.0963  20.0964
    20.1338  20.1338  20.1340  20.1340  20.2287  20.2289  20.2289  20.2290
    20.2309  20.2311  20.2311  20.2312  20.4969  20.4970  20.4971  20.4972
    20.7693  20.7694  20.7695  20.7696  20.8271  20.8272  20.8272  20.8273
    21.6567  21.6568  21.6569  21.6570  23.2777  23.2778  23.2779  23.2780
    24.0468  24.0469

          k = 0.1667 0.0555 0.1667 ( 11347 PWs)   bands (ev):

   -66.8150 -66.7393 -66.7391 -66.7215 -66.7133 -66.7080 -66.7078 -66.7050
   -66.7036 -66.7034 -66.6998 -66.6990 -66.6979 -66.6888 -66.6886 -66.6267
   -33.1074 -33.1011 -33.1010 -33.0930 -33.0929 -33.0811 -32.9601 -32.9413
   -32.9348 -32.9295 -32.9293 -32.9217 -32.9183 -32.9146 -32.8897 -32.8445
   -32.8291 -32.8289 -32.7951 -32.7940 -32.7939 -32.7638 -32.7529 -32.7527
   -32.7477 -32.7439 -32.7438 -32.7329 -32.7328 -32.7302 -32.7272 -32.7196
   -32.7087 -32.6957 -32.6895 -32.6894 -32.6647 -32.6523 -32.6520 -32.5845
   -32.5718 -32.5621 -32.5621 -32.5542 -32.5541 -32.5523 -32.5439 -32.5417
    11.7045  14.7626  14.7626  15.3953  15.4283  15.5544  15.5544  15.6309
    15.6309  15.6418  15.8344  15.8432  15.9179  16.2095  16.2095  16.9969
    17.1102  17.2864  17.3355  17.3355  17.3369  17.3370  17.3646  17.3740
    17.3741  17.4049  17.4888  17.6025  17.6292  17.6424  17.9238  18.3093
    18.3093  18.5229  18.5842  18.5844  18.6016  18.6435  18.7877  18.8247
    19.1219  19.1220  19.1998  19.2000  19.2458  19.3061  19.4093  19.4996
    19.4997  19.5164  19.5166  19.6986  19.6986  19.8627  19.9597  19.9598
    20.2066  20.3209  20.3220  20.3220  20.3796  20.3797  20.3832  20.4020
    20.4209  20.5903  20.6412  20.6745  20.6747  20.6858  20.6860  20.6923
    20.6933  20.7975  20.7976  21.0176  21.1240  21.1241  21.1485  21.1487
    21.2564  21.4983  21.5202  21.6516  21.7253  22.0571  22.3976  22.3977
    22.5979  22.7544

          k = 0.1667 0.0555 0.2778 ( 11361 PWs)   bands (ev):

   -66.8084 -66.7560 -66.7367 -66.7200 -66.7185 -66.7103 -66.7069 -66.7045
   -66.7031 -66.7027 -66.7003 -66.6984 -66.6965 -66.6894 -66.6737 -66.6316
   -33.0950 -33.0840 -33.0836 -33.0777 -33.0705 -33.0519 -32.9682 -32.9663
   -32.9647 -32.9533 -32.9513 -32.9493 -32.9289 -32.9241 -32.8985 -32.8747
   -32.8329 -32.8277 -32.7911 -32.7899 -32.7866 -32.7849 -32.7656 -32.7577
   -32.7567 -32.7491 -32.7430 -32.7313 -32.7296 -32.7170 -32.7116 -32.6928
   -32.6917 -32.6765 -32.6676 -32.6572 -32.6394 -32.6223 -32.6220 -32.6149
   -32.5923 -32.5747 -32.5744 -32.5695 -32.5638 -32.5618 -32.5471 -32.5455
    11.9731  14.1032  14.8957  15.3480  15.5289  15.5927  15.7283  15.7516
    15.7803  15.8196  15.9501  15.9691  15.9867  16.2449  16.3607  16.8799
    16.9624  16.9886  17.2244  17.2992  17.3131  17.3294  17.3755  17.4410
    17.4490  17.5002  17.5902  17.6544  17.7665  17.8291  17.8312  18.1761
    18.3258  18.4378  18.4491  18.4662  18.5086  18.5587  18.5844  18.7732
    18.7997  18.9570  18.9883  19.1418  19.2023  19.2810  19.3119  19.3139
    19.3853  19.4953  19.5124  19.5648  19.5954  19.7231  19.7507  20.0822
    20.2081  20.2257  20.2665  20.3006  20.3463  20.3671  20.4049  20.4471
    20.6135  20.6316  20.6331  20.6881  20.6933  20.7171  20.7174  20.7391
    20.7842  20.8910  20.9128  20.9277  20.9301  20.9632  21.0153  21.1197
    21.2311  21.4483  21.5036  21.5697  21.7198  22.1993  22.2360  22.7935
    22.9075  23.0314

          k = 0.1667 0.0555 0.3889 ( 11340 PWs)   bands (ev):

   -66.7987 -66.7720 -66.7331 -66.7237 -66.7179 -66.7129 -66.7054 -66.7040
   -66.7031 -66.7020 -66.7016 -66.6994 -66.6938 -66.6903 -66.6601 -66.6389
   -33.0729 -33.0592 -33.0578 -33.0556 -33.0400 -33.0141 -33.0071 -32.9970
   -32.9911 -32.9895 -32.9696 -32.9635 -32.9618 -32.9233 -32.9106 -32.8754
   -32.8591 -32.8186 -32.8147 -32.7838 -32.7827 -32.7743 -32.7671 -32.7636
   -32.7560 -32.7544 -32.7393 -32.7305 -32.7301 -32.7049 -32.6949 -32.6808
   -32.6549 -32.6518 -32.6451 -32.6394 -32.6277 -32.6174 -32.6143 -32.5953
   -32.5945 -32.5927 -32.5921 -32.5918 -32.5805 -32.5745 -32.5565 -32.5560
    12.3653  13.4565  15.0518  15.2874  15.6189  15.6370  15.8449  15.9375
    16.0089  16.0264  16.0797  16.1006  16.1508  16.2086  16.3571  16.6681
    16.6706  16.6861  17.1945  17.2378  17.2541  17.2779  17.5468  17.5907
    17.5909  17.6581  17.6624  17.8088  17.8721  18.0108  18.0559  18.1174
    18.2327  18.2436  18.3052  18.3153  18.4269  18.4277  18.4693  18.5100
    18.5334  18.5664  18.6315  18.7794  18.8333  18.8338  19.1142  19.4988
    19.5403  19.6892  19.6996  19.7532  19.7553  19.7805  19.9508  20.0239
    20.0399  20.0958  20.1677  20.2209  20.3766  20.4293  20.4531  20.5320
    20.5704  20.5760  20.5791  20.6856  20.6919  20.7014  20.7035  20.7677
    20.7765  20.8111  20.8538  20.9717  20.9741  21.0778  21.1186  21.2177
    21.2191  21.2298  21.4249  21.6227  21.6922  22.0534  22.3833  22.7216
    23.0831  23.2310

          k = 0.1667 0.0555-0.5000 ( 11336 PWs)   bands (ev):

   -66.7865 -66.7863 -66.7288 -66.7286 -66.7155 -66.7153 -66.7039 -66.7037
   -66.7034 -66.7032 -66.7006 -66.7004 -66.6918 -66.6916 -66.6486 -66.6484
   -33.0429 -33.0429 -33.0283 -33.0281 -33.0278 -33.0277 -33.0253 -33.0252
   -33.0032 -33.0031 -32.9707 -32.9707 -32.9684 -32.9683 -32.8872 -32.8870
   -32.8486 -32.8485 -32.7948 -32.7947 -32.7762 -32.7759 -32.7705 -32.7703
   -32.7595 -32.7594 -32.7301 -32.7299 -32.6994 -32.6991 -32.6941 -32.6940
   -32.6474 -32.6474 -32.6208 -32.6205 -32.6167 -32.6165 -32.6138 -32.6137
   -32.6021 -32.6018 -32.5923 -32.5922 -32.5732 -32.5731 -32.5723 -32.5723
    12.8665  12.8671  15.1902  15.1906  15.6555  15.6559  15.9523  15.9527
    16.0923  16.0926  16.2516  16.2519  16.3514  16.3517  16.3800  16.3803
    16.3855  16.3861  17.2135  17.2137  17.2379  17.2380  17.7500  17.7502
    17.7681  17.7683  17.7834  17.7835  17.8580  17.8583  18.1676  18.1677
    18.2160  18.2162  18.2814  18.2816  18.4061  18.4064  18.4129  18.4130
    18.4174  18.4176  18.4588  18.4591  18.5506  18.5507  19.2956  19.2958
    19.7926  19.7929  19.8206  19.8206  19.9359  19.9361  19.9820  19.9822
    20.0254  20.0255  20.0288  20.0288  20.3664  20.3666  20.4997  20.5000
    20.5128  20.5131  20.6393  20.6396  20.6853  20.6855  20.7239  20.7241
    20.8395  20.8396  20.9340  20.9341  21.0519  21.0521  21.1238  21.1238
    21.2928  21.2930  21.4550  21.4551  21.8624  21.8625  22.5718  22.5720
    23.2186  23.2189

          k = 0.1667 0.1664 0.1667 ( 11339 PWs)   bands (ev):

   -66.8117 -66.7382 -66.7381 -66.7379 -66.7128 -66.7127 -66.7125 -66.7007
   -66.6998 -66.6996 -66.6995 -66.6972 -66.6892 -66.6891 -66.6889 -66.6290
   -33.0990 -33.0989 -33.0985 -33.0750 -33.0750 -33.0747 -32.9555 -32.9547
   -32.9533 -32.9467 -32.9466 -32.9462 -32.8990 -32.8933 -32.8930 -32.8521
   -32.8519 -32.8514 -32.8006 -32.8005 -32.8000 -32.7565 -32.7556 -32.7555
   -32.7466 -32.7459 -32.7285 -32.7284 -32.7278 -32.7238 -32.7230 -32.7229
   -32.6918 -32.6917 -32.6915 -32.6833 -32.6363 -32.6361 -32.6356 -32.6058
   -32.5755 -32.5749 -32.5748 -32.5519 -32.5513 -32.5512 -32.5477 -32.5476
    11.8389  14.8328  14.8417  14.8417  15.5018  15.5019  15.5020  15.7371
    15.7383  15.7383  15.8988  15.9034  16.2528  16.2624  16.2624  16.9139
    17.2157  17.2159  17.3081  17.3102  17.3102  17.3447  17.3593  17.3594
    17.4545  17.4689  17.4690  17.4905  17.5660  17.5743  18.1552  18.1570
    18.1570  18.5099  18.5101  18.5107  18.5160  18.5194  18.9419  18.9419
    18.9429  18.9476  19.1298  19.1298  19.1389  19.3111  19.3113  19.3114
    19.5271  19.5271  19.5396  19.5894  19.5895  19.5974  20.1600  20.1600
    20.1637  20.2304  20.2305  20.2421  20.3420  20.3542  20.3817  20.3818
    20.3946  20.6392  20.6392  20.6443  20.6685  20.6708  20.6746  20.6777
    20.7424  20.7928  20.7928  20.7931  21.1328  21.1453  21.1454  21.3527
    21.3528  21.3593  21.3792  21.3831  22.0999  22.1000  22.1025  22.8412
    22.8684  22.8685

          k = 0.1667 0.1664 0.2778 ( 11362 PWs)   bands (ev):

   -66.8052 -66.7543 -66.7357 -66.7355 -66.7179 -66.7177 -66.7115 -66.7027
   -66.6991 -66.6971 -66.6965 -66.6963 -66.6897 -66.6895 -66.6744 -66.6338
   -33.0868 -33.0864 -33.0813 -33.0628 -33.0477 -33.0475 -32.9775 -32.9746
   -32.9744 -32.9654 -32.9638 -32.9411 -32.9406 -32.8882 -32.8878 -32.8759
   -32.8701 -32.8360 -32.8089 -32.8022 -32.8014 -32.7719 -32.7683 -32.7672
   -32.7607 -32.7545 -32.7310 -32.7156 -32.7147 -32.7005 -32.6979 -32.6974
   -32.6948 -32.6944 -32.6580 -32.6577 -32.6374 -32.6140 -32.6134 -32.6095
   -32.5927 -32.5920 -32.5825 -32.5676 -32.5597 -32.5547 -32.5539 -32.5484
    12.1046  14.1992  14.9748  14.9828  15.4573  15.4583  15.7084  15.8743
    15.8750  15.9206  16.0183  16.0225  16.3112  16.3191  16.4225  16.8340
    16.9889  17.0555  17.1899  17.3195  17.3214  17.3215  17.4083  17.4245
    17.4261  17.4389  17.5939  17.6012  17.6152  17.7860  18.0122  18.0122
    18.3008  18.3277  18.3343  18.4145  18.4338  18.4938  18.6812  18.6885
    18.6952  18.7034  18.9239  19.0648  19.0755  19.0811  19.0963  19.1394
    19.4356  19.5362  19.5393  19.6823  19.6861  19.8416  19.9271  20.1200
    20.1303  20.2338  20.2967  20.3247  20.3359  20.4014  20.4100  20.4103
    20.4321  20.4332  20.6264  20.6277  20.6447  20.6686  20.6830  20.6835
    20.6907  20.9085  20.9595  20.9617  20.9893  21.0579  21.1327  21.1377
    21.1483  21.4282  21.4345  21.4403  21.8373  21.8385  22.7268  23.0429
    23.0677  23.4878

          k = 0.1667 0.1664 0.3889 ( 11366 PWs)   bands (ev):

   -66.7958 -66.7698 -66.7322 -66.7320 -66.7230 -66.7228 -66.7096 -66.7050
   -66.6985 -66.6973 -66.6940 -66.6938 -66.6906 -66.6904 -66.6613 -66.6409
   -33.0664 -33.0660 -33.0557 -33.0452 -33.0129 -33.0127 -33.0069 -33.0067
   -33.0009 -32.9841 -32.9732 -32.9731 -32.9304 -32.9301 -32.9221 -32.8685
   -32.8505 -32.8447 -32.7981 -32.7971 -32.7938 -32.7920 -32.7801 -32.7790
   -32.7637 -32.7550 -32.7405 -32.7083 -32.7076 -32.6983 -32.6977 -32.6754
   -32.6675 -32.6670 -32.6587 -32.6332 -32.6271 -32.6140 -32.6135 -32.5949
   -32.5927 -32.5921 -32.5915 -32.5864 -32.5772 -32.5622 -32.5615 -32.5553
    12.4920  13.5660  15.1427  15.1493  15.3958  15.3985  15.9984  16.0312
    16.0314  16.1685  16.1736  16.1941  16.2942  16.2990  16.4267  16.6875
    16.6879  16.7166  17.1978  17.2750  17.3117  17.3408  17.4574  17.4601
    17.5559  17.5695  17.7680  17.7802  17.8725  17.8884  17.8947  18.0491
    18.2048  18.2057  18.2816  18.2883  18.3594  18.3763  18.3798  18.4056
    18.4139  18.4627  18.6065  18.6149  18.6332  18.6479  19.2747  19.3956
    19.6368  19.6947  19.7825  19.7833  19.7869  19.7920  20.0033  20.0113
    20.0549  20.0660  20.1441  20.2024  20.2115  20.3813  20.4472  20.5011
    20.5564  20.5693  20.6516  20.6648  20.6677  20.6716  20.7093  20.7430
    20.7517  20.7609  20.8179  20.8708  21.1400  21.1437  21.1662  21.1857
    21.1917  21.3997  21.4050  21.4104  21.5815  21.5820  23.2788  23.3011
    23.4186  23.5814

          k = 0.1667 0.1664-0.5000 ( 11354 PWs)   bands (ev):

   -66.7839 -66.7837 -66.7280 -66.7278 -66.7277 -66.7275 -66.7075 -66.7073
   -66.6980 -66.6977 -66.6921 -66.6920 -66.6918 -66.6917 -66.6502 -66.6500
   -33.0388 -33.0387 -33.0385 -33.0384 -33.0241 -33.0239 -33.0230 -33.0228
   -32.9761 -32.9760 -32.9730 -32.9729 -32.9728 -32.9727 -32.8978 -32.8976
   -32.8223 -32.8222 -32.8191 -32.8189 -32.7902 -32.7900 -32.7892 -32.7890
   -32.7495 -32.7493 -32.7185 -32.7184 -32.7028 -32.7025 -32.7020 -32.7018
   -32.6390 -32.6390 -32.6386 -32.6384 -32.6220 -32.6218 -32.6122 -32.6120
   -32.6001 -32.5999 -32.5749 -32.5749 -32.5744 -32.5743 -32.5682 -32.5681
    12.9861  12.9867  15.2923  15.2927  15.2970  15.2974  16.1846  16.1850
    16.1866  16.1869  16.3246  16.3250  16.3462  16.3466  16.4189  16.4194
    16.4448  16.4451  17.2300  17.2302  17.2942  17.2944  17.7168  17.7171
    17.7171  17.7175  17.7238  17.7239  17.7356  17.7357  18.1776  18.1777
    18.1834  18.1834  18.2243  18.2246  18.2954  18.2956  18.3009  18.3010
    18.3441  18.3443  18.3492  18.3493  18.4260  18.4261  19.4749  19.4751
    19.7074  19.7075  19.8597  19.8600  19.8888  19.8889  19.8938  19.8938
    20.0175  20.0177  20.0247  20.0248  20.4711  20.4714  20.4775  20.4777
    20.5061  20.5064  20.6117  20.6119  20.6588  20.6590  20.7646  20.7648
    20.7697  20.7698  20.7785  20.7787  21.2980  21.2981  21.3027  21.3028
    21.3076  21.3078  21.3426  21.3427  21.3439  21.3440  23.4846  23.4848
    23.5044  23.5047

          k = 0.1667 0.2773 0.1667 ( 11366 PWs)   bands (ev):

   -66.8052 -66.7545 -66.7356 -66.7354 -66.7180 -66.7178 -66.7113 -66.7027
   -66.6990 -66.6971 -66.6965 -66.6964 -66.6896 -66.6894 -66.6746 -66.6338
   -33.0870 -33.0869 -33.0810 -33.0625 -33.0478 -33.0478 -32.9777 -32.9750
   -32.9749 -32.9662 -32.9638 -32.9407 -32.9401 -32.8885 -32.8884 -32.8758
   -32.8700 -32.8354 -32.8086 -32.8016 -32.8015 -32.7725 -32.7673 -32.7672
   -32.7602 -32.7542 -32.7315 -32.7148 -32.7147 -32.7011 -32.6980 -32.6979
   -32.6944 -32.6944 -32.6579 -32.6578 -32.6373 -32.6141 -32.6139 -32.6092
   -32.5922 -32.5922 -32.5831 -32.5682 -32.5596 -32.5541 -32.5540 -32.5483
    12.1036  14.1915  14.9820  14.9821  15.4577  15.4577  15.7074  15.8753
    15.8753  15.9185  16.0171  16.0222  16.3185  16.3186  16.4133  16.8314
    16.9878  17.0495  17.1869  17.3083  17.3210  17.3210  17.3959  17.4202
    17.4385  17.4386  17.6020  17.6145  17.6147  17.7937  18.0138  18.0139
    18.3001  18.3306  18.3308  18.4199  18.4391  18.4880  18.6862  18.6863
    18.6958  18.6958  18.9333  19.0653  19.0654  19.0927  19.0987  19.1449
    19.4318  19.5339  19.5340  19.6783  19.6784  19.8501  19.9316  20.1202
    20.1203  20.2250  20.3066  20.3229  20.3229  20.4116  20.4129  20.4175
    20.4323  20.4323  20.6244  20.6265  20.6496  20.6729  20.6881  20.6882
    20.6883  20.9003  20.9611  20.9612  20.9888  21.0648  21.1373  21.1480
    21.1481  21.4253  21.4356  21.4356  21.8364  21.8365  22.7296  23.0661
    23.0661  23.4908

          k = 0.1667 0.2773 0.2778 ( 11363 PWs)   bands (ev):

   -66.7990 -66.7511 -66.7509 -66.7332 -66.7256 -66.7163 -66.7161 -66.7055
   -66.6963 -66.6961 -66.6960 -66.6906 -66.6900 -66.6761 -66.6759 -66.6383
   -33.0804 -33.0703 -33.0700 -33.0397 -33.0395 -33.0165 -32.9901 -32.9881
   -32.9880 -32.9877 -32.9733 -32.9502 -32.9372 -32.9127 -32.8814 -32.8496
   -32.8468 -32.8463 -32.8362 -32.8360 -32.8127 -32.7875 -32.7867 -32.7854
   -32.7393 -32.7290 -32.7285 -32.7215 -32.7209 -32.6996 -32.6990 -32.6839
   -32.6735 -32.6711 -32.6613 -32.6612 -32.6391 -32.6134 -32.6020 -32.5947
   -32.5942 -32.5913 -32.5908 -32.5694 -32.5688 -32.5670 -32.5509 -32.5484
    12.3631  14.3721  14.3784  15.1393  15.3026  15.6713  15.6716  16.0345
    16.0519  16.0538  16.1229  16.1485  16.4234  16.4804  16.4878  16.8036
    16.9872  17.0413  17.0420  17.2477  17.2687  17.3811  17.3935  17.4657
    17.4771  17.4931  17.5116  17.5225  17.7687  17.7795  17.8567  18.1250
    18.1270  18.2226  18.2688  18.2738  18.3309  18.3472  18.4315  18.4988
    18.5579  18.5654  18.7060  18.7159  18.7772  18.8441  18.8468  19.2852
    19.6371  19.6384  19.6734  19.7971  19.8695  19.8771  20.0126  20.0556
    20.2075  20.2151  20.2159  20.2176  20.2314  20.3060  20.3434  20.3550
    20.3882  20.5932  20.5954  20.5970  20.6264  20.6581  20.6663  20.6681
    20.6843  20.8663  20.8733  20.9849  21.0132  21.1289  21.1304  21.1479
    21.1530  21.2420  21.4171  21.5170  21.5207  22.3848  22.3869  23.3379
    24.0899  24.1188

          k = 0.1667 0.2773 0.3889 ( 11363 PWs)   bands (ev):

   -66.7901 -66.7655 -66.7462 -66.7331 -66.7298 -66.7210 -66.7140 -66.7084
   -66.6960 -66.6957 -66.6938 -66.6908 -66.6857 -66.6784 -66.6638 -66.6448
   -33.0651 -33.0523 -33.0465 -33.0286 -33.0157 -33.0103 -33.0075 -33.0028
   -32.9933 -32.9842 -32.9821 -32.9783 -32.9438 -32.9207 -32.8901 -32.8684
   -32.8644 -32.8293 -32.8211 -32.8158 -32.8119 -32.8027 -32.8017 -32.8011
   -32.7602 -32.7376 -32.7282 -32.7137 -32.7114 -32.7034 -32.6965 -32.6866
   -32.6671 -32.6507 -32.6494 -32.6381 -32.6311 -32.6224 -32.6096 -32.5995
   -32.5904 -32.5903 -32.5832 -32.5739 -32.5732 -32.5727 -32.5533 -32.5512
    12.7402  13.7762  14.6109  15.1079  15.3285  15.6119  15.9720  16.1988
    16.2077  16.2628  16.2922  16.3238  16.4549  16.4601  16.5047  16.7031
    16.7299  16.7749  17.2290  17.2528  17.3302  17.3383  17.3769  17.4224
    17.4946  17.5994  17.6116  17.6575  17.7383  17.8857  17.9217  17.9343
    18.0443  18.1050  18.1681  18.2023  18.2268  18.2571  18.2807  18.2958
    18.3216  18.3471  18.3640  18.3826  18.4642  18.5474  19.0629  19.4967
    19.6920  19.7953  19.8607  19.8665  19.8704  19.9103  19.9276  19.9723
    20.1170  20.1241  20.1296  20.2229  20.2344  20.3154  20.3933  20.4524
    20.5069  20.5243  20.5311  20.6109  20.6568  20.6594  20.6962  20.7149
    20.7186  20.7319  20.7355  20.8364  20.9342  21.0434  21.1615  21.2207
    21.2748  21.2908  21.4243  21.4506  21.5120  22.0613  22.9943  23.6554
    24.1521  24.2677

          k = 0.1667 0.2773-0.5000 ( 11362 PWs)   bands (ev):

   -66.7789 -66.7787 -66.7402 -66.7400 -66.7257 -66.7255 -66.7114 -66.7112
   -66.6959 -66.6957 -66.6921 -66.6919 -66.6817 -66.6815 -66.6534 -66.6532
   -33.0428 -33.0426 -33.0303 -33.0303 -33.0165 -33.0163 -33.0159 -33.0157
   -32.9916 -32.9915 -32.9776 -32.9775 -32.9353 -32.9352 -32.8971 -32.8969
   -32.8392 -32.8391 -32.8178 -32.8177 -32.8113 -32.8111 -32.7909 -32.7908
   -32.7561 -32.7560 -32.7344 -32.7342 -32.7080 -32.7078 -32.6759 -32.6757
   -32.6660 -32.6659 -32.6279 -32.6279 -32.6183 -32.6181 -32.6090 -32.6088
   -32.6050 -32.6048 -32.5802 -32.5802 -32.5610 -32.5609 -32.5594 -32.5593
    13.2188  13.2193  14.8693  14.8698  15.4985  15.4988  16.3312  16.3316
    16.3506  16.3510  16.3606  16.3609  16.4088  16.4093  16.5335  16.5339
    16.5440  16.5443  17.2855  17.2856  17.3551  17.3552  17.5251  17.5254
    17.5394  17.5397  17.6250  17.6252  17.7508  17.7509  17.9623  17.9625
    18.1217  18.1219  18.1403  18.1406  18.1419  18.1421  18.1969  18.1970
    18.2608  18.2609  18.2663  18.2664  18.3303  18.3304  19.3517  19.3518
    19.7266  19.7267  19.8798  19.8800  19.9715  19.9717  20.0153  20.0153
    20.0643  20.0644  20.0654  20.0655  20.4231  20.4232  20.4259  20.4262
    20.4600  20.4602  20.5616  20.5619  20.6437  20.6439  20.6573  20.6575
    20.7464  20.7466  20.7967  20.7968  20.9466  20.9466  21.1138  21.1139
    21.3769  21.3771  21.4287  21.4287  21.7428  21.7430  23.6268  23.6271
    23.9522  23.9525

          k = 0.1667 0.3882 0.1667 ( 11364 PWs)   bands (ev):

   -66.7958 -66.7699 -66.7322 -66.7319 -66.7230 -66.7228 -66.7095 -66.7050
   -66.6984 -66.6972 -66.6940 -66.6938 -66.6906 -66.6904 -66.6614 -66.6409
   -33.0666 -33.0665 -33.0555 -33.0450 -33.0132 -33.0132 -33.0073 -33.0072
   -33.0009 -32.9841 -32.9740 -32.9733 -32.9307 -32.9307 -32.9212 -32.8678
   -32.8503 -32.8446 -32.7972 -32.7970 -32.7945 -32.7916 -32.7790 -32.7789
   -32.7632 -32.7547 -32.7408 -32.7077 -32.7076 -32.6976 -32.6976 -32.6752
   -32.6675 -32.6674 -32.6593 -32.6335 -32.6270 -32.6137 -32.6137 -32.5955
   -32.5926 -32.5925 -32.5921 -32.5860 -32.5772 -32.5617 -32.5616 -32.5550
    12.4896  13.5601  15.1478  15.1478  15.3971  15.3971  15.9958  16.0321
    16.0321  16.1651  16.1679  16.1962  16.2986  16.2986  16.4184  16.6834
    16.6876  16.7112  17.1921  17.2640  17.3057  17.3307  17.4586  17.4586
    17.5689  17.5690  17.7782  17.7784  17.8820  17.8954  17.8955  18.0579
    18.2045  18.2047  18.2842  18.2842  18.3658  18.3777  18.3812  18.4135
    18.4136  18.4586  18.6078  18.6078  18.6442  18.6574  19.2785  19.4007
    19.6304  19.6994  19.7773  19.7773  19.7836  19.7837  20.0027  20.0028
    20.0574  20.0580  20.1524  20.1992  20.1992  20.3885  20.4564  20.5055
    20.5577  20.5720  20.6564  20.6693  20.6718  20.6718  20.7151  20.7396
    20.7599  20.7600  20.8242  20.8774  21.1424  21.1425  21.1650  21.1908
    21.1909  21.3972  21.4069  21.4070  21.5800  21.5801  23.2974  23.2974
    23.4211  23.5899

          k = 0.1667 0.3882 0.2778 ( 11365 PWs)   bands (ev):

   -66.7901 -66.7656 -66.7460 -66.7331 -66.7298 -66.7211 -66.7139 -66.7084
   -66.6959 -66.6957 -66.6939 -66.6908 -66.6857 -66.6783 -66.6639 -66.6448
   -33.0653 -33.0527 -33.0462 -33.0285 -33.0160 -33.0108 -33.0078 -33.0029
   -32.9933 -32.9843 -32.9821 -32.9784 -32.9439 -32.9203 -32.8906 -32.8681
   -32.8646 -32.8294 -32.8210 -32.8153 -32.8124 -32.8027 -32.8013 -32.8003
   -32.7598 -32.7375 -32.7285 -32.7132 -32.7114 -32.7030 -32.6968 -32.6865
   -32.6670 -32.6510 -32.6494 -32.6382 -32.6311 -32.6226 -32.6092 -32.6000
   -32.5908 -32.5901 -32.5833 -32.5742 -32.5730 -32.5723 -32.5535 -32.5510
    12.7388  13.7715  14.6153  15.1088  15.3278  15.6113  15.9705  16.1994
    16.2092  16.2606  16.2892  16.3241  16.4551  16.4641  16.4982  16.7002
    16.7273  16.7751  17.2299  17.2473  17.3280  17.3292  17.3727  17.4142
    17.5056  17.5992  17.6185  17.6651  17.7420  17.8831  17.9274  17.9350
    18.0473  18.1044  18.1670  18.2003  18.2235  18.2577  18.2847  18.2993
    18.3313  18.3396  18.3715  18.3827  18.4646  18.5465  19.0658  19.4983
    19.6934  19.7912  19.8601  19.8624  19.8656  19.9075  19.9271  19.9755
    20.1102  20.1244  20.1312  20.2205  20.2244  20.3216  20.4028  20.4552
    20.5080  20.5255  20.5339  20.6163  20.6579  20.6608  20.6929  20.7142
    20.7211  20.7320  20.7389  20.8404  20.9389  21.0425  21.1579  21.2195
    21.2733  21.2923  21.4229  21.4501  21.5126  22.0597  22.9959  23.6535
    24.1457  24.2682

          k = 0.1667 0.3882 0.3889 ( 11366 PWs)   bands (ev):

   -66.7819 -66.7594 -66.7593 -66.7428 -66.7267 -66.7185 -66.7184 -66.7120
   -66.6948 -66.6940 -66.6939 -66.6914 -66.6785 -66.6675 -66.6674 -66.6506
   -33.0555 -33.0338 -33.0335 -33.0169 -33.0166 -33.0118 -33.0079 -33.0077
   -33.0042 -32.9985 -32.9921 -32.9627 -32.9372 -32.9071 -32.8654 -32.8596
   -32.8594 -32.8460 -32.8456 -32.8286 -32.8264 -32.8258 -32.8249 -32.7900
   -32.7540 -32.7301 -32.7274 -32.7271 -32.7199 -32.7196 -32.7085 -32.6678
   -32.6658 -32.6398 -32.6396 -32.6321 -32.6319 -32.6137 -32.6073 -32.6070
   -32.5969 -32.5896 -32.5892 -32.5885 -32.5606 -32.5602 -32.5502 -32.5489
    13.0987  14.0654  14.0686  14.7729  15.5534  15.9068  15.9073  16.3409
    16.3603  16.4370  16.4394  16.5039  16.5071  16.5196  16.5462  16.5926
    16.7518  16.9889  16.9896  17.2545  17.3152  17.3612  17.4217  17.4305
    17.4536  17.4576  17.6025  17.6135  17.6180  17.6789  17.8871  17.9704
    17.9710  17.9780  18.0414  18.0486  18.1137  18.1169  18.1312  18.1654
    18.1911  18.2219  18.2239  18.3110  18.3192  18.7388  18.7400  19.3319
    19.7439  19.9019  19.9693  19.9709  19.9968  20.0300  20.0341  20.0387
    20.1559  20.2175  20.2380  20.2425  20.2752  20.2765  20.2875  20.2946
    20.4355  20.4605  20.4613  20.5153  20.5446  20.6319  20.6344  20.6638
    20.6913  20.6916  20.7411  20.7504  20.9023  20.9577  20.9606  20.9810
    21.4028  21.4038  21.4646  21.5422  21.8040  22.5902  22.5913  23.6995
    24.0651  24.7841

          k = 0.1667 0.3882-0.5000 ( 11368 PWs)   bands (ev):

   -66.7716 -66.7714 -66.7518 -66.7516 -66.7229 -66.7227 -66.7155 -66.7153
   -66.6943 -66.6941 -66.6925 -66.6923 -66.6725 -66.6723 -66.6582 -66.6580
   -33.0387 -33.0386 -33.0209 -33.0208 -33.0119 -33.0118 -33.0104 -33.0103
   -33.0056 -33.0055 -32.9849 -32.9848 -32.8921 -32.8920 -32.8858 -32.8856
   -32.8495 -32.8494 -32.8445 -32.8443 -32.8326 -32.8325 -32.7999 -32.7998
   -32.7584 -32.7583 -32.7253 -32.7252 -32.7138 -32.7136 -32.6956 -32.6955
   -32.6524 -32.6522 -32.6179 -32.6178 -32.6163 -32.6161 -32.6097 -32.6096
   -32.6084 -32.6082 -32.5884 -32.5883 -32.5528 -32.5526 -32.5522 -32.5521
    13.5506  13.5511  14.4119  14.4124  15.7654  15.7658  16.2450  16.2454
    16.4456  16.4460  16.4559  16.4564  16.5714  16.5716  16.6567  16.6569
    16.7482  16.7486  17.2867  17.2871  17.3490  17.3493  17.3531  17.3532
    17.3630  17.3631  17.5185  17.5187  17.7712  17.7714  17.8043  17.8043
    17.9237  17.9238  17.9815  17.9818  18.0332  18.0332  18.0628  18.0631
    18.2255  18.2256  18.2632  18.2633  18.4440  18.4441  19.0048  19.0048
    19.9417  19.9419  20.0009  20.0010  20.0936  20.0938  20.1272  20.1274
    20.1502  20.1503  20.1513  20.1514  20.2589  20.2590  20.3615  20.3617
    20.3723  20.3725  20.5053  20.5055  20.5356  20.5358  20.6185  20.6185
    20.6758  20.6760  20.7230  20.7232  20.8241  20.8243  20.9630  20.9631
    21.4630  21.4632  21.5016  21.5017  22.1931  22.1932  23.1409  23.1412
    24.4667  24.4670

          k = 0.1667-0.4991 0.1667 ( 11352 PWs)   bands (ev):

   -66.7840 -66.7838 -66.7279 -66.7278 -66.7278 -66.7275 -66.7074 -66.7072
   -66.6978 -66.6976 -66.6920 -66.6920 -66.6920 -66.6917 -66.6502 -66.6501
   -33.0391 -33.0390 -33.0390 -33.0390 -33.0241 -33.0239 -33.0229 -33.0226
   -32.9764 -32.9764 -32.9734 -32.9733 -32.9733 -32.9733 -32.8968 -32.8965
   -32.8221 -32.8220 -32.8192 -32.8191 -32.7892 -32.7891 -32.7890 -32.7889
   -32.7494 -32.7493 -32.7181 -32.7181 -32.7020 -32.7019 -32.7018 -32.7018
   -32.6389 -32.6389 -32.6389 -32.6388 -32.6226 -32.6225 -32.6125 -32.6124
   -32.6000 -32.5999 -32.5748 -32.5747 -32.5746 -32.5746 -32.5678 -32.5678
    12.9823  12.9824  15.2953  15.2954  15.2954  15.2954  16.1868  16.1869
    16.1869  16.1869  16.3176  16.3177  16.3424  16.3425  16.4204  16.4206
    16.4405  16.4406  17.2216  17.2217  17.2866  17.2867  17.7162  17.7163
    17.7163  17.7164  17.7350  17.7351  17.7351  17.7352  18.1852  18.1853
    18.1853  18.1853  18.2348  18.2348  18.2965  18.2966  18.2966  18.2967
    18.3535  18.3536  18.3543  18.3544  18.4234  18.4235  19.4795  19.4797
    19.7118  19.7118  19.8518  19.8520  19.8863  19.8863  19.8864  19.8865
    20.0140  20.0140  20.0141  20.0141  20.4758  20.4760  20.4852  20.4852
    20.5124  20.5126  20.6125  20.6126  20.6635  20.6635  20.7710  20.7711
    20.7785  20.7785  20.7785  20.7786  21.3004  21.3004  21.3005  21.3005
    21.3061  21.3061  21.3423  21.3424  21.3424  21.3424  23.4983  23.4984
    23.4984  23.4984

[...]
   -32.8883 -32.8882 -32.8751 -32.8749 -32.8699 -32.8698 -32.8247 -32.8247
   -32.7302 -32.7301 -32.6878 -32.6877 -32.6772 -32.6771 -32.6747 -32.6746
   -32.6489 -32.6486 -32.6339 -32.6338 -32.6137 -32.6136 -32.6135 -32.6134
   -32.6101 -32.6098 -32.5847 -32.5846 -32.5662 -32.5662 -32.5638 -32.5637
    13.7856  13.7862  14.6435  14.6440  15.3882  15.3887  16.0366  16.0371
    16.6197  16.6200  16.6293  16.6296  16.7730  16.7734  16.7970  16.7975
    16.8355  16.8358  17.2852  17.2856  17.3103  17.3106  17.3906  17.3908
    17.4071  17.4072  17.5912  17.5914  17.6044  17.6045  17.7342  17.7344
    17.7843  17.7845  17.8118  17.8119  17.9272  17.9273  17.9645  17.9646
    18.0079  18.0080  18.0831  18.0832  18.1362  18.1363  18.6266  18.6266
    20.1624  20.1626  20.1806  20.1806  20.1913  20.1914  20.2047  20.2049
    20.2477  20.2479  20.2863  20.2864  20.4037  20.4040  20.4218  20.4221
    20.4766  20.4769  20.5048  20.5049  20.5444  20.5446  20.5924  20.5926
    20.6242  20.6244  20.8221  20.8221  20.9322  20.9323  21.0084  21.0084
    21.2526  21.2527  21.2736  21.2737  21.7219  21.7220  22.6218  22.6219
    25.5316  25.5319

          k = 0.3889 0.3882 0.3889 ( 11394 PWs)   bands (ev):

   -66.7698 -66.7504 -66.7503 -66.7501 -66.7359 -66.7358 -66.7356 -66.7247
   -66.6865 -66.6813 -66.6811 -66.6810 -66.6723 -66.6722 -66.6721 -66.6583
   -33.0158 -33.0157 -33.0153 -33.0019 -33.0018 -33.0015 -32.9838 -32.9628
   -32.9618 -32.9569 -32.9567 -32.9566 -32.9495 -32.9490 -32.9033 -32.9032
   -32.9027 -32.8953 -32.8951 -32.8950 -32.8878 -32.8872 -32.8869 -32.8180
   -32.7303 -32.6766 -32.6765 -32.6761 -32.6625 -32.6625 -32.6622 -32.6495
   -32.6490 -32.6370 -32.6368 -32.6368 -32.6348 -32.6345 -32.6345 -32.6159
   -32.5878 -32.5873 -32.5872 -32.5820 -32.5818 -32.5777 -32.5775 -32.5770
    13.6868  14.5961  14.5987  14.5988  15.3309  15.3310  15.3323  16.1162
    16.6939  16.6984  16.7661  16.7689  16.7690  16.9352  16.9392  16.9392
    16.9640  16.9640  16.9662  17.0559  17.4023  17.4081  17.4706  17.4778
    17.5449  17.5539  17.5540  17.5694  17.5695  17.5753  17.6585  17.6626
    17.6626  17.7803  17.7804  17.7868  17.8107  17.8130  17.8131  17.8435
    17.8436  17.8488  17.9917  18.0003  18.0990  18.0990  18.0996  18.5722
    20.1569  20.1603  20.1604  20.2955  20.3244  20.3248  20.3261  20.3261
    20.3305  20.3306  20.3318  20.3377  20.3898  20.3899  20.3970  20.5059
    20.5066  20.5355  20.5355  20.5356  20.5507  20.5551  20.5553  20.6316
    20.6399  20.9383  20.9464  20.9536  20.9536  20.9564  21.0280  21.0281
    21.0343  21.0726  21.0800  21.0801  21.7038  21.7042  21.7043  22.6384
    26.3843  26.4099

          k = 0.3889 0.3882-0.5000 ( 11396 PWs)   bands (ev):

   -66.7608 -66.7606 -66.7437 -66.7436 -66.7434 -66.7434 -66.7307 -66.7305
   -66.6836 -66.6834 -66.6763 -66.6762 -66.6761 -66.6760 -66.6646 -66.6644
   -33.0045 -33.0043 -33.0041 -33.0040 -32.9855 -32.9853 -32.9850 -32.9850
   -32.9701 -32.9700 -32.9356 -32.9354 -32.9260 -32.9260 -32.9259 -32.9258
   -32.9195 -32.9194 -32.9049 -32.9047 -32.9039 -32.9038 -32.8563 -32.8563
   -32.7025 -32.7024 -32.6570 -32.6569 -32.6540 -32.6540 -32.6538 -32.6536
   -32.6447 -32.6446 -32.6445 -32.6444 -32.6232 -32.6231 -32.6156 -32.6154
   -32.6069 -32.6067 -32.5846 -32.5846 -32.5842 -32.5840 -32.5779 -32.5778
    14.1165  14.1170  14.9597  14.9601  14.9618  14.9623  15.7207  15.7212
    16.8215  16.8220  16.8727  16.8730  16.8836  16.8839  16.8857  16.8861
    17.0283  17.0286  17.2566  17.2570  17.2597  17.2601  17.4335  17.4336
    17.4775  17.4777  17.5261  17.5265  17.5484  17.5486  17.6602  17.6604
    17.6667  17.6668  17.7782  17.7783  17.7818  17.7819  17.8379  17.8380
    17.8389  17.8389  17.8846  17.8848  17.9098  17.9099  18.2662  18.2662
    20.2500  20.2503  20.2657  20.2659  20.2707  20.2709  20.3926  20.3926
    20.3982  20.3983  20.4155  20.4158  20.4406  20.4408  20.5056  20.5058
    20.5236  20.5238  20.5269  20.5271  20.5295  20.5297  20.6123  20.6124
    20.6499  20.6501  20.8032  20.8032  21.0228  21.0228  21.0309  21.0310
    21.0488  21.0489  21.3198  21.3199  21.3212  21.3213  22.1630  22.1631
    26.6997  26.7024

          k = 0.3889-0.4991 0.3889 ( 11394 PWs)   bands (ev):

   -66.7609 -66.7607 -66.7437 -66.7436 -66.7436 -66.7433 -66.7307 -66.7305
   -66.6835 -66.6834 -66.6763 -66.6762 -66.6762 -66.6759 -66.6646 -66.6645
   -33.0045 -33.0045 -33.0044 -33.0043 -32.9854 -32.9854 -32.9852 -32.9850
   -32.9701 -32.9700 -32.9350 -32.9348 -32.9260 -32.9260 -32.9260 -32.9258
   -32.9199 -32.9199 -32.9042 -32.9041 -32.9041 -32.9039 -32.8564 -32.8563
   -32.7023 -32.7022 -32.6567 -32.6567 -32.6539 -32.6538 -32.6538 -32.6537
   -32.6447 -32.6446 -32.6445 -32.6444 -32.6233 -32.6232 -32.6159 -32.6158
   -32.6070 -32.6069 -32.5845 -32.5844 -32.5843 -32.5843 -32.5775 -32.5775
    14.1152  14.1153  14.9610  14.9610  14.9611  14.9612  15.7211  15.7212
    16.8245  16.8247  16.8683  16.8684  16.8868  16.8869  16.8869  16.8870
    17.0249  17.0250  17.2549  17.2549  17.2550  17.2551  17.4310  17.4312
    17.4709  17.4710  17.5318  17.5318  17.5544  17.5544  17.6689  17.6690
    17.6690  17.6692  17.7746  17.7747  17.7747  17.7748  17.8403  17.8403
    17.8404  17.8404  17.8915  17.8916  17.9045  17.9045  18.2672  18.2672
    20.2457  20.2459  20.2664  20.2664  20.2665  20.2665  20.3943  20.3944
    20.3944  20.3945  20.4193  20.4195  20.4408  20.4409  20.5017  20.5019
    20.5240  20.5240  20.5303  20.5304  20.5304  20.5305  20.6139  20.6141
    20.6570  20.6570  20.8096  20.8097  21.0274  21.0274  21.0275  21.0275
    21.0421  21.0421  21.3199  21.3200  21.3200  21.3201  22.1628  22.1629
    26.7162  26.7163

          k = 0.3889-0.4991-0.5000 ( 11392 PWs)   bands (ev):

   -66.7530 -66.7528 -66.7528 -66.7526 -66.7377 -66.7375 -66.7374 -66.7373
   -66.6795 -66.6793 -66.6793 -66.6791 -66.6700 -66.6698 -66.6697 -66.6696
   -32.9895 -32.9895 -32.9893 -32.9892 -32.9851 -32.9850 -32.9849 -32.9848
   -32.9480 -32.9479 -32.9478 -32.9477 -32.9308 -32.9306 -32.9306 -32.9304
   -32.9264 -32.9264 -32.9262 -32.9261 -32.8913 -32.8911 -32.8910 -32.8910
   -32.6770 -32.6768 -32.6767 -32.6767 -32.6431 -32.6430 -32.6429 -32.6427
   -32.6367 -32.6366 -32.6365 -32.6365 -32.6186 -32.6184 -32.6183 -32.6183
   -32.6052 -32.6051 -32.6049 -32.6049 -32.5846 -32.5845 -32.5844 -32.5843
    14.5201  14.5202  14.5206  14.5207  15.3387  15.3389  15.3393  15.3393
    16.8890  16.8891  16.8894  16.8897  17.0899  17.0900  17.0902  17.0903
    17.1745  17.1745  17.1747  17.1748  17.1930  17.1932  17.1933  17.1934
    17.5840  17.5842  17.5843  17.5843  17.5996  17.5996  17.5997  17.5999
    17.6011  17.6011  17.6012  17.6013  17.7612  17.7613  17.7615  17.7615
    17.8207  17.8208  17.8208  17.8209  17.9702  17.9703  17.9703  17.9703
    20.3015  20.3015  20.3018  20.3018  20.3592  20.3593  20.3594  20.3595
    20.4438  20.4439  20.4440  20.4441  20.5122  20.5122  20.5124  20.5125
    20.5248  20.5249  20.5250  20.5250  20.5769  20.5770  20.5770  20.5771
    20.8460  20.8461  20.8462  20.8462  20.9568  20.9569  20.9569  20.9571
    21.0000  21.0000  21.0001  21.0002  21.7332  21.7332  21.7333  21.7334
    27.2700  27.2703

          k =-0.5000 0.0555-0.5000 ( 11380 PWs)   bands (ev):

   -66.7644 -66.7644 -66.7642 -66.7641 -66.7104 -66.7104 -66.7102 -66.7100
   -66.7016 -66.7015 -66.7014 -66.7012 -66.6635 -66.6635 -66.6633 -66.6631
   -33.0344 -33.0343 -33.0340 -33.0340 -33.0155 -33.0153 -33.0153 -33.0152
   -33.0090 -33.0088 -33.0088 -33.0087 -32.8463 -32.8462 -32.8461 -32.8459
   -32.8355 -32.8354 -32.8353 -32.8353 -32.8045 -32.8045 -32.8042 -32.8042
   -32.7615 -32.7615 -32.7612 -32.7612 -32.7463 -32.7463 -32.7461 -32.7461
   -32.6367 -32.6365 -32.6364 -32.6361 -32.6036 -32.6034 -32.6033 -32.6033
   -32.5994 -32.5992 -32.5992 -32.5991 -32.5430 -32.5430 -32.5427 -32.5427
    13.8429  13.8432  13.8433  13.8437  16.2833  16.2836  16.2836  16.2839
    16.3827  16.3828  16.3829  16.3832  16.4920  16.4923  16.4923  16.4925
    16.9979  16.9981  16.9982  16.9987  17.3304  17.3306  17.3307  17.3309
    17.3773  17.3776  17.3776  17.3778  17.9192  17.9194  17.9195  17.9195
    17.9339  17.9339  17.9340  17.9341  18.0204  18.0204  18.0204  18.0206
    18.3719  18.3719  18.3721  18.3721  18.9691  18.9692  18.9692  18.9692
    19.8427  19.8428  19.8429  19.8430  20.0940  20.0942  20.0942  20.0943
    20.1454  20.1454  20.1455  20.1457  20.2319  20.2320  20.2320  20.2323
    20.2326  20.2327  20.2328  20.2330  20.4942  20.4942  20.4944  20.4947
    20.7559  20.7559  20.7560  20.7561  20.8136  20.8136  20.8137  20.8138
    21.6588  21.6589  21.6590  21.6590  23.2751  23.2752  23.2752  23.2754
    24.0398  24.0399

          k =-0.5000 0.1664-0.5000 ( 11344 PWs)   bands (ev):

   -66.7624 -66.7624 -66.7622 -66.7621 -66.7195 -66.7194 -66.7193 -66.7191
   -66.6934 -66.6933 -66.6931 -66.6930 -66.6646 -66.6645 -66.6643 -66.6642
   -33.0266 -33.0265 -33.0262 -33.0262 -33.0135 -33.0133 -33.0133 -33.0132
   -32.9942 -32.9941 -32.9940 -32.9940 -32.8690 -32.8688 -32.8688 -32.8686
   -32.8470 -32.8470 -32.8467 -32.8467 -32.8462 -32.8462 -32.8460 -32.8460
   -32.7265 -32.7265 -32.7263 -32.7263 -32.7193 -32.7193 -32.7190 -32.7190
   -32.6328 -32.6326 -32.6326 -32.6323 -32.6110 -32.6108 -32.6108 -32.6107
   -32.5984 -32.5982 -32.5981 -32.5980 -32.5502 -32.5502 -32.5499 -32.5498
    13.9623  13.9627  13.9628  13.9632  16.0423  16.0426  16.0427  16.0430
    16.4743  16.4744  16.4745  16.4748  16.7058  16.7060  16.7061  16.7062
    17.0159  17.0161  17.0162  17.0167  17.2879  17.2881  17.2882  17.2885
    17.4339  17.4341  17.4341  17.4343  17.7737  17.7737  17.7738  17.7739
    17.8880  17.8883  17.8883  17.8883  17.9752  17.9752  17.9753  17.9755
    18.2309  18.2309  18.2311  18.2311  18.6887  18.6888  18.6888  18.6888
    20.0769  20.0769  20.0770  20.0771  20.1613  20.1613  20.1614  20.1616
    20.2626  20.2626  20.2627  20.2630  20.2747  20.2749  20.2749  20.2751
    20.2989  20.2990  20.2990  20.2991  20.4859  20.4860  20.4862  20.4864
    20.6886  20.6887  20.6888  20.6889  20.8583  20.8583  20.8584  20.8584
    21.5152  21.5152  21.5153  21.5153  22.6639  22.6639  22.6639  22.6641
    24.9739  24.9740

          k =-0.5000 0.2773-0.5000 ( 11380 PWs)   bands (ev):

   -66.7585 -66.7584 -66.7582 -66.7581 -66.7288 -66.7288 -66.7286 -66.7284
   -66.6860 -66.6859 -66.6857 -66.6856 -66.6667 -66.6667 -66.6665 -66.6663
   -33.0113 -33.0113 -33.0110 -33.0110 -33.0032 -33.0031 -33.0031 -33.0030
   -32.9737 -32.9735 -32.9735 -32.9734 -32.8998 -32.8997 -32.8996 -32.8995
   -32.8880 -32.8880 -32.8877 -32.8877 -32.8655 -32.8655 -32.8653 -32.8653
   -32.7015 -32.7014 -32.7013 -32.7013 -32.6797 -32.6797 -32.6794 -32.6794
   -32.6263 -32.6261 -32.6260 -32.6258 -32.6219 -32.6217 -32.6217 -32.6216
   -32.6006 -32.6004 -32.6004 -32.6003 -32.5642 -32.5642 -32.5638 -32.5638
    14.1939  14.1942  14.1943  14.1947  15.7280  15.7284  15.7285  15.7288
    16.6487  16.6488  16.6489  16.6492  16.9416  16.9418  16.9418  16.9420
    17.0493  17.0496  17.0496  17.0501  17.2441  17.2444  17.2444  17.2448
    17.5017  17.5019  17.5020  17.5021  17.6405  17.6405  17.6406  17.6406
    17.8083  17.8084  17.8084  17.8086  17.8302  17.8305  17.8305  17.8305
    18.0265  18.0265  18.0266  18.0267  18.3298  18.3299  18.3299  18.3299
    20.2234  20.2235  20.2235  20.2238  20.3078  20.3078  20.3079  20.3082
    20.3436  20.3436  20.3437  20.3437  20.3727  20.3728  20.3729  20.3730
    20.4689  20.4689  20.4691  20.4694  20.6005  20.6007  20.6007  20.6008
    20.6061  20.6062  20.6063  20.6064  20.8732  20.8732  20.8733  20.8733
    21.2774  21.2774  21.2776  21.2776  22.1651  22.1652  22.1652  22.1654
    26.0610  26.0612

          k =-0.5000 0.3882-0.5000 ( 11392 PWs)   bands (ev):

   -66.7529 -66.7529 -66.7527 -66.7526 -66.7377 -66.7376 -66.7374 -66.7373
   -66.6795 -66.6795 -66.6793 -66.6791 -66.6699 -66.6698 -66.6697 -66.6695
   -32.9890 -32.9889 -32.9886 -32.9886 -32.9853 -32.9852 -32.9851 -32.9850
   -32.9479 -32.9478 -32.9477 -32.9477 -32.9314 -32.9313 -32.9312 -32.9311
   -32.9261 -32.9260 -32.9257 -32.9257 -32.8913 -32.8912 -32.8911 -32.8911
   -32.6770 -32.6769 -32.6768 -32.6768 -32.6434 -32.6433 -32.6430 -32.6430
   -32.6365 -32.6364 -32.6363 -32.6363 -32.6188 -32.6185 -32.6185 -32.6183
   -32.6048 -32.6046 -32.6046 -32.6044 -32.5850 -32.5849 -32.5846 -32.5846
    14.5212  14.5216  14.5217  14.5221  15.3378  15.3382  15.3383  15.3387
    16.8863  16.8865  16.8866  16.8869  17.0942  17.0944  17.0945  17.0950
    17.1739  17.1741  17.1742  17.1744  17.1964  17.1966  17.1967  17.1971
    17.5812  17.5814  17.5815  17.5815  17.5965  17.5965  17.5966  17.5968
    17.6051  17.6051  17.6052  17.6052  17.7535  17.7538  17.7538  17.7538
    17.8265  17.8266  17.8267  17.8267  17.9687  17.9688  17.9688  17.9689
    20.3074  20.3075  20.3075  20.3078  20.3575  20.3576  20.3577  20.3580
    20.4412  20.4413  20.4414  20.4417  20.5098  20.5099  20.5100  20.5102
    20.5314  20.5316  20.5316  20.5317  20.5718  20.5718  20.5719  20.5719
    20.8379  20.8379  20.8380  20.8380  20.9561  20.9562  20.9562  20.9563
    21.0060  21.0061  21.0062  21.0062  21.7339  21.7339  21.7339  21.7341
    27.2507  27.2510

          k =-0.5000-0.4991-0.5000 ( 11320 PWs)   bands (ev):

   -66.7460 -66.7459 -66.7458 -66.7458 -66.7458 -66.7456 -66.7454 -66.7454
   -66.6741 -66.6740 -66.6740 -66.6739 -66.6739 -66.6737 -66.6736 -66.6735
   -32.9606 -32.9604 -32.9604 -32.9603 -32.9603 -32.9602 -32.9602 -32.9601
   -32.9597 -32.9597 -32.9596 -32.9595 -32.9595 -32.9595 -32.9591 -32.9591
   -32.9198 -32.9197 -32.9196 -32.9196 -32.9195 -32.9194 -32.9194 -32.9193
   -32.6547 -32.6545 -32.6544 -32.6544 -32.6544 -32.6542 -32.6542 -32.6542
   -32.6117 -32.6117 -32.6116 -32.6116 -32.6115 -32.6115 -32.6115 -32.6112
   -32.6112 -32.6111 -32.6110 -32.6109 -32.6109 -32.6109 -32.6109 -32.6107
    14.9167  14.9170  14.9172  14.9172  14.9173  14.9174  14.9177  14.9178
    17.1398  17.1398  17.1399  17.1400  17.1400  17.1401  17.1403  17.1404
    17.1452  17.1453  17.1454  17.1455  17.1455  17.1456  17.1458  17.1462
    17.6533  17.6533  17.6533  17.6533  17.6534  17.6534  17.6534  17.6535
    17.6673  17.6675  17.6676  17.6677  17.6677  17.6677  17.6677  17.6678
    17.6750  17.6751  17.6751  17.6752  17.6752  17.6752  17.6753  17.6755
    20.4034  20.4035  20.4036  20.4036  20.4036  20.4038  20.4038  20.4041
    20.4063  20.4065  20.4065  20.4066  20.4066  20.4067  20.4068  20.4069
    20.7390  20.7392  20.7392  20.7392  20.7392  20.7393  20.7394  20.7395
    20.7480  20.7483  20.7483  20.7483  20.7483  20.7484  20.7484  20.7484
    21.3356  21.3357  21.3358  21.3358  21.3358  21.3358  21.3358  21.3361
    28.4247  28.4281

     the Fermi energy is    20.4716 ev

!    total energy              =   -5267.70794358 Ry
     Harris-Foulkes estimate   =   -5267.70794763 Ry
     estimated scf accuracy    <       0.00000581 Ry

     total all-electron energy =    -40728.452473 Ry

     The total energy is the sum of the following terms:

     one-electron contribution =   -1622.79571007 Ry
     hartree contribution      =     990.08389391 Ry
     xc contribution           =    -442.94641598 Ry
     ewald contribution        =   -2867.15921859 Ry
     one-center paw contrib.   =   -1324.75917052 Ry
     smearing contrib. (-TS)   =      -0.13132233 Ry

     convergence has been achieved in  13 iterations

     Forces acting on atoms (cartesian axes, Ry/au):

     atom    1 type  1   force =     0.00000000    0.00000000    0.00000000
     atom    2 type  1   force =     0.00005497   -0.00021252    0.00005497
     atom    3 type  1   force =     0.00000000    0.00000000    0.00000000
     atom    4 type  1   force =     0.00005497   -0.00021252   -0.00005497
     atom    5 type  1   force =     0.00000000   -0.00000000   -0.00000000
     atom    6 type  1   force =     0.00005497    0.00021252    0.00005497
     atom    7 type  1   force =     0.00000000    0.00000000    0.00000000
     atom    8 type  1   force =     0.00005497    0.00021252   -0.00005497
     atom    9 type  1   force =     0.00000000   -0.00000000    0.00000000
     atom   10 type  1   force =    -0.00005497   -0.00021252    0.00005497
     atom   11 type  1   force =     0.00000000    0.00000000    0.00000000
     atom   12 type  1   force =    -0.00005497   -0.00021252   -0.00005497
     atom   13 type  1   force =     0.00000000    0.00000000    0.00000000
     atom   14 type  1   force =    -0.00005497    0.00021252    0.00005497
     atom   15 type  1   force =     0.00000000    0.00000000    0.00000000
     atom   16 type  1   force =    -0.00005497    0.00021252   -0.00005497

     Total force =     0.000640     Total SCF correction =     0.003705
     SCF correction compared to forces is large: reduce conv_thr to get better values


     Computing stress (Cartesian axis) and pressure

          total   stress  (Ry/bohr**3)                   (kbar)     P=  -15.09
  -0.00011413   0.00000000   0.00000000        -16.79      0.00      0.00
   0.00000000  -0.00007954   0.00000000          0.00    -11.70      0.00
   0.00000000   0.00000000  -0.00011413          0.00      0.00    -16.79


     Writing output data file qEybzXXRznrkiznT.save/
 
     init_run     :      6.45s CPU      6.80s WALL (       1 calls)
     electrons    :    283.21s CPU    292.65s WALL (       1 calls)
     forces       :      2.33s CPU      2.57s WALL (       1 calls)
     stress       :      5.85s CPU      5.93s WALL (       1 calls)

     Called by init_run:
     wfcinit      :      6.14s CPU      6.40s WALL (       1 calls)
     potinit      :      0.14s CPU      0.16s WALL (       1 calls)
     hinit0       :      0.11s CPU      0.15s WALL (       1 calls)

     Called by electrons:
     c_bands      :    252.92s CPU    260.47s WALL (      14 calls)
     sum_band     :     28.87s CPU     30.43s WALL (      14 calls)
     v_of_rho     :      0.15s CPU      0.28s WALL (      14 calls)
     newd         :      0.19s CPU      0.25s WALL (      14 calls)
     PAW_pot      :      1.08s CPU      1.15s WALL (      14 calls)
     mix_rho      :      0.04s CPU      0.07s WALL (      14 calls)

     Called by c_bands:
     init_us_2    :      1.43s CPU      1.46s WALL (    2325 calls)
     cegterg      :    245.73s CPU    253.19s WALL (    1050 calls)

     Called by sum_band:
     sum_band:bec :      0.43s CPU      0.44s WALL (    1050 calls)
     addusdens    :      0.21s CPU      0.26s WALL (      14 calls)

     Called by *egterg:
     h_psi        :    112.24s CPU    116.85s WALL (    3162 calls)
     s_psi        :      5.99s CPU      6.04s WALL (    3162 calls)
     g_psi        :      0.24s CPU      0.24s WALL (    2037 calls)
     cdiaghg      :    104.28s CPU    104.67s WALL (    3012 calls)

     Called by h_psi:
     h_psi:pot    :    111.59s CPU    116.19s WALL (    3162 calls)
     h_psi:calbec :      8.97s CPU     10.44s WALL (    3162 calls)
     vloc_psi     :     96.62s CPU     99.70s WALL (    3162 calls)
     add_vuspsi   :      5.97s CPU      6.03s WALL (    3162 calls)

     General routines
     calbec       :     14.63s CPU     17.06s WALL (    4587 calls)
     fft          :      0.22s CPU      0.46s WALL (     207 calls)
     ffts         :      0.03s CPU      0.08s WALL (      28 calls)
     fftw         :    113.04s CPU    116.63s WALL (  871932 calls)
     interpolate  :      0.04s CPU      0.07s WALL (      14 calls)
 
     Parallel routines
     fft_scatt_xy :      7.73s CPU      7.97s WALL (  872167 calls)
     fft_scatt_yz :     75.94s CPU     78.66s WALL (  872167 calls)
 
     PWSCF        :  5m 3.25s CPU     5m21.45s WALL

 
   This run was terminated on:   7:25:17   5Sep2020            

=------------------------------------------------------------------------------=
   JOB DONE.
=------------------------------------------------------------------------------=
