--------------------------------------------------------------------------
WARNING: There was an error initializing an OpenFabrics device.

  Local host:   bear-pg0211u07b
  Local device: mlx5_0
--------------------------------------------------------------------------

     Program PWSCF v.6.3 starts on  5Sep2020 at  7:41:20 

     This program is part of the open-source Quantum ESPRESSO suite
     for quantum simulation of materials; please cite
         "P. Giannozzi et al., J. Phys.:Condens. Matter 21 395502 (2009);
         "P. Giannozzi et al., J. Phys.:Condens. Matter 29 465901 (2017);
          URL http://www.quantum-espresso.org", 
     in publications or presentations arising from this work. More details at
     http://www.quantum-espresso.org/quote

     Parallel version (MPI & OpenMP), running on      40 processor cores
     Number of MPI processes:                40
     Threads/MPI process:                     1

     MPI processes distributed on     1 nodes
     R & G space division:  proc/nbgrp/npool/nimage =      40
     Reading input from wd/ec/ec_2_008.in
Warning: card &IONS ignored
Warning: card ION_DYNAMICS = 'BFGS', ignored
Warning: card / ignored
Warning: card &CELL ignored
Warning: card CELL_DYNAMICS = 'BFGS', ignored
Warning: card CELL_FACTOR = 2.0, ignored
Warning: card PRESS = 0.0, ignored
Warning: card / ignored

     Current dimensions of program PWSCF are:
     Max number of different atomic species (ntypx) = 10
     Max number of k-points (npk) =  40000
     Max angular momentum in pseudopotentials (lmaxx) =  3
               file Fe.pbe-spn-kjpaw_psl.1.0.0.UPF: wavefunction(s)  3P 3D renormalized

     Subspace diagonalization in iterative solution of the eigenvalue problem:
     a serial algorithm will be used

 
     Parallelization info
     --------------------
     sticks:   dense  smooth     PW     G-vecs:    dense   smooth      PW
     Min          92      61     17                 4240     2277     339
     Max          93      62     18                 4245     2282     343
     Sum        3709    2445    681               169741    91143   13613
 


     bravais-lattice index     =            0
     lattice parameter (alat)  =      10.3915  a.u.
     unit-cell volume          =    1127.0065 (a.u.)^3
     number of atoms/cell      =           16
     number of atomic types    =            1
     number of electrons       =       256.00
     number of Kohn-Sham states=          154
     kinetic-energy cutoff     =      71.0000  Ry
     charge density cutoff     =     430.0000  Ry
     convergence threshold     =      5.0E-05
     mixing beta               =       0.1000
     number of iterations used =           10  plain     mixing
     Exchange-correlation      = SLA PW PBX PBC ( 1  4  3  4 0 0)

     celldm(1)=  10.391466  celldm(2)=   0.000000  celldm(3)=   0.000000
     celldm(4)=   0.000000  celldm(5)=   0.000000  celldm(6)=   0.000000

     crystal axes: (cart. coord. in units of alat)
               a(1) = (   1.000000   0.000000   0.000000 )  
               a(2) = (   0.000000   1.004375   0.000000 )  
               a(3) = (   0.000000   0.000000   1.000000 )  

     reciprocal axes: (cart. coord. in units 2 pi/alat)
               b(1) = (  1.000000  0.000000  0.000000 )  
               b(2) = (  0.000000  0.995644  0.000000 )  
               b(3) = (  0.000000  0.000000  1.000000 )  


     PseudoPot. # 1 for Fe read from file:
     /rds/homes/b/bxp912/pp/Fe.pbe-spn-kjpaw_psl.1.0.0.UPF
     MD5 check sum: 42f43b795421b414b0dc916aa790dbcb
     Pseudo is Projector augmented-wave + core cor, Zval = 16.0
     Generated using "atomic" code by A. Dal Corso v.6.3
     Shape of augmentation charge: PSQ
     Using radial grid of 1191 points,  6 beta functions with: 
                l(1) =   0
                l(2) =   0
                l(3) =   1
                l(4) =   1
                l(5) =   2
                l(6) =   2
     Q(r) pseudized with 0 coefficients 


     atomic species   valence    mass     pseudopotential
        Fe            16.00    55.84500     Fe( 1.00)

     16 Sym. Ops., with inversion, found



   Cartesian axes

     site n.     atom                  positions (alat units)
         1           Fe  tau(   1) = (   0.0000000   0.0000000   0.0000000  )
         2           Fe  tau(   2) = (   0.2500089   0.2511027   0.2500089  )
         3           Fe  tau(   3) = (   0.0000000   0.0000000   0.4999995  )
         4           Fe  tau(   4) = (   0.2500089   0.2511027   0.7499911  )
         5           Fe  tau(   5) = (   0.0000000   0.5021876   0.0000000  )
         6           Fe  tau(   6) = (   0.2500089   0.7532724   0.2500089  )
         7           Fe  tau(   7) = (   0.0000000   0.5021876   0.4999995  )
         8           Fe  tau(   8) = (   0.2500089   0.7532724   0.7499911  )
         9           Fe  tau(   9) = (   0.5000001   0.0000000   0.0000000  )
        10           Fe  tau(  10) = (   0.7499912   0.2511027   0.2500089  )
        11           Fe  tau(  11) = (   0.5000001   0.0000000   0.4999995  )
        12           Fe  tau(  12) = (   0.7499912   0.2511027   0.7499911  )
        13           Fe  tau(  13) = (   0.5000001   0.5021876   0.0000000  )
        14           Fe  tau(  14) = (   0.7499912   0.7532724   0.2500089  )
        15           Fe  tau(  15) = (   0.5000001   0.5021876   0.4999995  )
        16           Fe  tau(  16) = (   0.7499912   0.7532724   0.7499911  )

     number of k points=    75  Marzari-Vanderbilt smearing, width (Ry)=  0.0400
                       cart. coord. in units 2pi/alat
        k(    1) = (   0.0555556   0.0553136   0.0555556), wk =   0.0219479
        k(    2) = (   0.0555556   0.0553136   0.1666667), wk =   0.0438957
        k(    3) = (   0.0555556   0.0553136   0.2777778), wk =   0.0438957
        k(    4) = (   0.0555556   0.0553136   0.3888889), wk =   0.0438957
        k(    5) = (   0.0555556   0.0553136  -0.5000000), wk =   0.0219479
        k(    6) = (   0.0555556   0.1659407   0.0555556), wk =   0.0219479
        k(    7) = (   0.0555556   0.1659407   0.1666667), wk =   0.0438957
        k(    8) = (   0.0555556   0.1659407   0.2777778), wk =   0.0438957
        k(    9) = (   0.0555556   0.1659407   0.3888889), wk =   0.0438957
        k(   10) = (   0.0555556   0.1659407  -0.5000000), wk =   0.0219479
        k(   11) = (   0.0555556   0.2765678   0.0555556), wk =   0.0219479
        k(   12) = (   0.0555556   0.2765678   0.1666667), wk =   0.0438957
        k(   13) = (   0.0555556   0.2765678   0.2777778), wk =   0.0438957
        k(   14) = (   0.0555556   0.2765678   0.3888889), wk =   0.0438957
        k(   15) = (   0.0555556   0.2765678  -0.5000000), wk =   0.0219479
        k(   16) = (   0.0555556   0.3871949   0.0555556), wk =   0.0219479
        k(   17) = (   0.0555556   0.3871949   0.1666667), wk =   0.0438957
        k(   18) = (   0.0555556   0.3871949   0.2777778), wk =   0.0438957
        k(   19) = (   0.0555556   0.3871949   0.3888889), wk =   0.0438957
        k(   20) = (   0.0555556   0.3871949  -0.5000000), wk =   0.0219479
        k(   21) = (   0.0555556  -0.4978220   0.0555556), wk =   0.0109739
        k(   22) = (   0.0555556  -0.4978220   0.1666667), wk =   0.0219479
        k(   23) = (   0.0555556  -0.4978220   0.2777778), wk =   0.0219479
        k(   24) = (   0.0555556  -0.4978220   0.3888889), wk =   0.0219479
        k(   25) = (   0.0555556  -0.4978220  -0.5000000), wk =   0.0109739
        k(   26) = (   0.1666667   0.0553136   0.1666667), wk =   0.0219479
        k(   27) = (   0.1666667   0.0553136   0.2777778), wk =   0.0438957
        k(   28) = (   0.1666667   0.0553136   0.3888889), wk =   0.0438957
        k(   29) = (   0.1666667   0.0553136  -0.5000000), wk =   0.0219479
        k(   30) = (   0.1666667   0.1659407   0.1666667), wk =   0.0219479
        k(   31) = (   0.1666667   0.1659407   0.2777778), wk =   0.0438957
        k(   32) = (   0.1666667   0.1659407   0.3888889), wk =   0.0438957
        k(   33) = (   0.1666667   0.1659407  -0.5000000), wk =   0.0219479
        k(   34) = (   0.1666667   0.2765678   0.1666667), wk =   0.0219479
        k(   35) = (   0.1666667   0.2765678   0.2777778), wk =   0.0438957
        k(   36) = (   0.1666667   0.2765678   0.3888889), wk =   0.0438957
        k(   37) = (   0.1666667   0.2765678  -0.5000000), wk =   0.0219479
        k(   38) = (   0.1666667   0.3871949   0.1666667), wk =   0.0219479
        k(   39) = (   0.1666667   0.3871949   0.2777778), wk =   0.0438957
        k(   40) = (   0.1666667   0.3871949   0.3888889), wk =   0.0438957
        k(   41) = (   0.1666667   0.3871949  -0.5000000), wk =   0.0219479
        k(   42) = (   0.1666667  -0.4978220   0.1666667), wk =   0.0109739
        k(   43) = (   0.1666667  -0.4978220   0.2777778), wk =   0.0219479
        k(   44) = (   0.1666667  -0.4978220   0.3888889), wk =   0.0219479
        k(   45) = (   0.1666667  -0.4978220  -0.5000000), wk =   0.0109739
        k(   46) = (   0.2777778   0.0553136   0.2777778), wk =   0.0219479
        k(   47) = (   0.2777778   0.0553136   0.3888889), wk =   0.0438957
        k(   48) = (   0.2777778   0.0553136  -0.5000000), wk =   0.0219479
        k(   49) = (   0.2777778   0.1659407   0.2777778), wk =   0.0219479
        k(   50) = (   0.2777778   0.1659407   0.3888889), wk =   0.0438957
        k(   51) = (   0.2777778   0.1659407  -0.5000000), wk =   0.0219479
        k(   52) = (   0.2777778   0.2765678   0.2777778), wk =   0.0219479
        k(   53) = (   0.2777778   0.2765678   0.3888889), wk =   0.0438957
        k(   54) = (   0.2777778   0.2765678  -0.5000000), wk =   0.0219479
        k(   55) = (   0.2777778   0.3871949   0.2777778), wk =   0.0219479
        k(   56) = (   0.2777778   0.3871949   0.3888889), wk =   0.0438957
        k(   57) = (   0.2777778   0.3871949  -0.5000000), wk =   0.0219479
        k(   58) = (   0.2777778  -0.4978220   0.2777778), wk =   0.0109739
        k(   59) = (   0.2777778  -0.4978220   0.3888889), wk =   0.0219479
        k(   60) = (   0.2777778  -0.4978220  -0.5000000), wk =   0.0109739
        k(   61) = (   0.3888889   0.0553136   0.3888889), wk =   0.0219479
        k(   62) = (   0.3888889   0.0553136  -0.5000000), wk =   0.0219479
        k(   63) = (   0.3888889   0.1659407   0.3888889), wk =   0.0219479
        k(   64) = (   0.3888889   0.1659407  -0.5000000), wk =   0.0219479
        k(   65) = (   0.3888889   0.2765678   0.3888889), wk =   0.0219479
        k(   66) = (   0.3888889   0.2765678  -0.5000000), wk =   0.0219479
        k(   67) = (   0.3888889   0.3871949   0.3888889), wk =   0.0219479
        k(   68) = (   0.3888889   0.3871949  -0.5000000), wk =   0.0219479
        k(   69) = (   0.3888889  -0.4978220   0.3888889), wk =   0.0109739
        k(   70) = (   0.3888889  -0.4978220  -0.5000000), wk =   0.0109739
        k(   71) = (  -0.5000000   0.0553136  -0.5000000), wk =   0.0054870
        k(   72) = (  -0.5000000   0.1659407  -0.5000000), wk =   0.0054870
        k(   73) = (  -0.5000000   0.2765678  -0.5000000), wk =   0.0054870
        k(   74) = (  -0.5000000   0.3871949  -0.5000000), wk =   0.0054870
        k(   75) = (  -0.5000000  -0.4978220  -0.5000000), wk =   0.0027435

     Dense  grid:   169741 G-vectors     FFT dimensions: (  72,  72,  72)

     Smooth grid:    91143 G-vectors     FFT dimensions: (  60,  60,  60)

     Estimated max dynamical RAM per process >      83.49 MB

     Estimated total dynamical RAM >       3.26 GB

     Check: negative/imaginary core charge=   -0.000006    0.000000

     Initial potential from superposition of free atoms

     starting charge  255.99300, renormalised to  256.00000
     Starting wfcs are  160 randomized atomic wfcs
     Checking if some PAW data can be deallocated... 

     total cpu time spent up to now is        7.5 secs

     Self-consistent Calculation

     iteration #  1     ecut=    71.00 Ry     beta= 0.10
     Davidson diagonalization with overlap
     ethr =  1.00E-02,  avg # of iterations =  3.3

     Threshold (ethr) on eigenvalues was too large:
     Diagonalizing with lowered threshold

     Davidson diagonalization with overlap
     ethr =  2.51E-04,  avg # of iterations =  3.2

     total cpu time spent up to now is       62.0 secs

     total energy              =   -5267.75316388 Ry
     Harris-Foulkes estimate   =   -5267.86796862 Ry
     estimated scf accuracy    <       0.72761206 Ry

     iteration #  2     ecut=    71.00 Ry     beta= 0.10
     Davidson diagonalization with overlap
     ethr =  2.84E-04,  avg # of iterations =  1.0

     total cpu time spent up to now is       78.4 secs

     total energy              =   -5267.61976620 Ry
     Harris-Foulkes estimate   =   -5267.76826051 Ry
     estimated scf accuracy    <       0.36029792 Ry

     iteration #  3     ecut=    71.00 Ry     beta= 0.10
     Davidson diagonalization with overlap
     ethr =  1.41E-04,  avg # of iterations =  3.3

     total cpu time spent up to now is      109.4 secs

     total energy              =   -5267.70097656 Ry
     Harris-Foulkes estimate   =   -5267.72285298 Ry
     estimated scf accuracy    <       0.51549431 Ry

     iteration #  4     ecut=    71.00 Ry     beta= 0.10
     Davidson diagonalization with overlap
     ethr =  1.41E-04,  avg # of iterations =  1.0

     total cpu time spent up to now is      126.4 secs

     total energy              =   -5267.70645843 Ry
     Harris-Foulkes estimate   =   -5267.71257380 Ry
     estimated scf accuracy    <       0.02954433 Ry

     iteration #  5     ecut=    71.00 Ry     beta= 0.10
     Davidson diagonalization with overlap
     ethr =  1.15E-05,  avg # of iterations =  2.1

     total cpu time spent up to now is      148.1 secs

     total energy              =   -5267.70651203 Ry
     Harris-Foulkes estimate   =   -5267.70874451 Ry
     estimated scf accuracy    <       0.02278714 Ry

     iteration #  6     ecut=    71.00 Ry     beta= 0.10
     Davidson diagonalization with overlap
     ethr =  8.90E-06,  avg # of iterations =  2.8

     total cpu time spent up to now is      173.5 secs

     total energy              =   -5267.70893669 Ry
     Harris-Foulkes estimate   =   -5267.70892609 Ry
     estimated scf accuracy    <       0.01175026 Ry

     iteration #  7     ecut=    71.00 Ry     beta= 0.10
     Davidson diagonalization with overlap
     ethr =  4.59E-06,  avg # of iterations =  1.0

     total cpu time spent up to now is      190.1 secs

     total energy              =   -5267.70821913 Ry
     Harris-Foulkes estimate   =   -5267.70933883 Ry
     estimated scf accuracy    <       0.01346675 Ry

     iteration #  8     ecut=    71.00 Ry     beta= 0.10
     Davidson diagonalization with overlap
     ethr =  4.59E-06,  avg # of iterations =  1.0

     total cpu time spent up to now is      206.6 secs

     total energy              =   -5267.70870444 Ry
     Harris-Foulkes estimate   =   -5267.70890164 Ry
     estimated scf accuracy    <       0.00406826 Ry

     iteration #  9     ecut=    71.00 Ry     beta= 0.10
     Davidson diagonalization with overlap
     ethr =  1.59E-06,  avg # of iterations =  2.3

     total cpu time spent up to now is      227.8 secs

     total energy              =   -5267.70887685 Ry
     Harris-Foulkes estimate   =   -5267.70889345 Ry
     estimated scf accuracy    <       0.00047336 Ry

     iteration # 10     ecut=    71.00 Ry     beta= 0.10
     Davidson diagonalization with overlap
     ethr =  1.85E-07,  avg # of iterations =  2.5

     total cpu time spent up to now is      249.8 secs

     total energy              =   -5267.70887874 Ry
     Harris-Foulkes estimate   =   -5267.70889795 Ry
     estimated scf accuracy    <       0.00025025 Ry

     iteration # 11     ecut=    71.00 Ry     beta= 0.10
     Davidson diagonalization with overlap
     ethr =  9.78E-08,  avg # of iterations =  1.0

     total cpu time spent up to now is      266.1 secs

     total energy              =   -5267.70887154 Ry
     Harris-Foulkes estimate   =   -5267.70889014 Ry
     estimated scf accuracy    <       0.00016805 Ry

     iteration # 12     ecut=    71.00 Ry     beta= 0.10
     Davidson diagonalization with overlap
     ethr =  6.56E-08,  avg # of iterations =  1.0

     total cpu time spent up to now is      282.5 secs

     total energy              =   -5267.70886936 Ry
     Harris-Foulkes estimate   =   -5267.70887825 Ry
     estimated scf accuracy    <       0.00014534 Ry

     iteration # 13     ecut=    71.00 Ry     beta= 0.10
     Davidson diagonalization with overlap
     ethr =  5.68E-08,  avg # of iterations =  1.4

     total cpu time spent up to now is      300.4 secs

     End of self-consistent calculation

          k = 0.0556 0.0553 0.0556 ( 11340 PWs)   bands (ev):

   -66.8795 -66.7818 -66.7815 -66.7812 -66.7655 -66.7653 -66.7649 -66.7645
   -66.7641 -66.7640 -66.7639 -66.7636 -66.7633 -66.7564 -66.7563 -66.6812
   -33.1736 -33.1735 -33.1727 -33.1705 -33.1705 -33.1697 -33.0100 -33.0055
   -33.0005 -32.9320 -32.9294 -32.9293 -32.9283 -32.9080 -32.9072 -32.8946
   -32.8946 -32.8931 -32.8576 -32.8568 -32.8329 -32.8177 -32.8176 -32.8162
   -32.8060 -32.8059 -32.8049 -32.7942 -32.7915 -32.7915 -32.7910 -32.7884
   -32.7883 -32.7821 -32.7821 -32.7808 -32.7711 -32.7710 -32.7699 -32.6086
   -32.6079 -32.6064 -32.6063 -32.6050 -32.6034 -32.6033 -32.6020 -32.6017
    11.3833  15.2459  15.2723  15.2723  15.3942  15.3957  15.3957  15.4202
    15.4218  15.4219  15.6618  15.6733  15.7589  15.7861  15.7861  17.1521
    17.2275  17.2376  17.2415  17.2451  17.2647  17.2648  17.2785  17.2786
    17.3750  17.3893  17.4287  17.6788  17.6889  17.6889  18.0700  18.0822
    18.0822  18.5497  18.5651  18.6116  18.8780  18.8782  18.8958  18.9851
    18.9853  18.9987  19.0685  19.0685  19.0881  19.1660  19.1662  19.1832
    19.9115  19.9115  19.9236  20.1266  20.1266  20.1512  20.1617  20.1618
    20.1709  20.2918  20.2919  20.2956  20.2957  20.3227  20.3259  20.3273
    20.3544  20.5734  20.5734  20.5962  20.5962  20.6096  20.6103  20.6369
    20.6371  20.6541  20.6543  21.1219  21.1219  21.1488  21.3562  21.3744
    21.4194  21.4196  21.4322  21.4373  21.8447  21.8586  21.8587  21.8657
    21.9032  21.9281

          k = 0.0556 0.0553 0.1667 ( 11369 PWs)   bands (ev):

   -66.8760 -66.7989 -66.7810 -66.7806 -66.7674 -66.7669 -66.7649 -66.7643
   -66.7638 -66.7634 -66.7629 -66.7624 -66.7570 -66.7567 -66.7474 -66.6838
   -33.1657 -33.1647 -33.1644 -33.1617 -33.1566 -33.1559 -33.0104 -33.0022
   -32.9910 -32.9685 -32.9599 -32.9594 -32.9579 -32.9571 -32.9264 -32.9255
   -32.8919 -32.8644 -32.8544 -32.8532 -32.8407 -32.8185 -32.8161 -32.8081
   -32.7979 -32.7976 -32.7953 -32.7951 -32.7939 -32.7884 -32.7856 -32.7835
   -32.7813 -32.7775 -32.7770 -32.7474 -32.7439 -32.7433 -32.7373 -32.6234
   -32.6173 -32.6160 -32.6143 -32.6115 -32.6080 -32.6077 -32.6064 -32.6045
    11.5213  14.6399  15.3041  15.3290  15.4050  15.4053  15.4849  15.4859
    15.4966  15.5214  15.7263  15.7364  15.8042  15.8296  16.1223  17.0456
    17.1540  17.1676  17.2460  17.2584  17.2781  17.2796  17.2977  17.3150
    17.3194  17.3562  17.5649  17.5766  17.6347  17.6431  17.9732  17.9827
    18.4328  18.5284  18.5629  18.6553  18.6667  18.6825  18.7312  18.8348
    18.8627  18.8935  19.1712  19.1723  19.2860  19.2897  19.3028  19.4048
    19.5960  19.6174  19.6671  19.8856  19.8888  19.9123  20.0434  20.1403
    20.1512  20.2306  20.2644  20.2713  20.3104  20.3150  20.3405  20.3478
    20.3632  20.3839  20.3921  20.4104  20.5984  20.6227  20.6228  20.6430
    20.6432  20.8118  20.9203  20.9417  21.1040  21.1816  21.2938  21.3840
    21.4276  21.4287  21.4570  21.4765  21.7628  21.7686  21.8917  21.9480
    22.0191  22.0379

          k = 0.0556 0.0553 0.2778 ( 11375 PWs)   bands (ev):

   -66.8693 -66.8161 -66.7796 -66.7791 -66.7698 -66.7693 -66.7639 -66.7638
   -66.7633 -66.7626 -66.7623 -66.7620 -66.7581 -66.7575 -66.7320 -66.6888
   -33.1473 -33.1467 -33.1465 -33.1445 -33.1327 -33.1321 -33.0109 -33.0101
   -33.0046 -33.0011 -33.0009 -32.9897 -32.9795 -32.9766 -32.9700 -32.9696
   -32.8874 -32.8766 -32.8744 -32.8592 -32.8168 -32.8140 -32.8103 -32.8087
   -32.8042 -32.8020 -32.7992 -32.7863 -32.7838 -32.7838 -32.7814 -32.7620
   -32.7544 -32.7428 -32.7421 -32.7146 -32.7112 -32.7103 -32.7053 -32.6492
   -32.6325 -32.6310 -32.6296 -32.6280 -32.6193 -32.6173 -32.6159 -32.6142
    11.7931  13.9621  15.3946  15.4164  15.4408  15.4428  15.5826  15.5833
    15.6904  15.7122  15.8476  15.8587  15.8597  15.8802  16.2676  16.8860
    16.9268  16.9329  17.1146  17.1640  17.2123  17.2228  17.3908  17.4269
    17.4591  17.4953  17.6258  17.6340  17.8150  17.8368  17.9054  17.9137
    18.3650  18.3940  18.5131  18.5258  18.5557  18.5559  18.5797  18.6292
    18.7563  19.0325  19.0341  19.0542  19.2485  19.2709  19.4253  19.4337
    19.4356  19.4544  19.4646  19.4698  19.5001  19.5814  19.6927  20.1289
    20.1327  20.1638  20.2294  20.2624  20.3535  20.3670  20.4198  20.4435
    20.4515  20.5830  20.5839  20.6040  20.6354  20.6372  20.6498  20.6767
    20.6824  20.6849  20.8919  20.9180  21.0431  21.1117  21.1333  21.3567
    21.4015  21.4422  21.5136  21.5238  21.6358  21.6426  21.9769  22.0294
    22.1466  22.1762

          k = 0.0556 0.0553 0.3889 ( 11382 PWs)   bands (ev):

   -66.8595 -66.8323 -66.7775 -66.7770 -66.7724 -66.7718 -66.7632 -66.7628
   -66.7626 -66.7623 -66.7619 -66.7613 -66.7595 -66.7587 -66.7181 -66.6964
   -33.1210 -33.1197 -33.1195 -33.1188 -33.0997 -33.0992 -33.0510 -33.0487
   -33.0439 -33.0437 -33.0159 -33.0157 -33.0095 -32.9946 -32.9712 -32.9575
   -32.9192 -32.9056 -32.8600 -32.8481 -32.8243 -32.8180 -32.8138 -32.8109
   -32.8060 -32.8033 -32.7849 -32.7840 -32.7825 -32.7813 -32.7656 -32.7199
   -32.7157 -32.7089 -32.7079 -32.6848 -32.6825 -32.6804 -32.6793 -32.6762
   -32.6530 -32.6521 -32.6519 -32.6516 -32.6365 -32.6324 -32.6313 -32.6300
    12.1904  13.3004  15.4732  15.4830  15.4886  15.4899  15.6979  15.7016
    15.8674  15.8823  15.9607  15.9775  15.9979  16.0475  16.2574  16.5885
    16.6129  16.6207  17.1113  17.1285  17.1718  17.1804  17.5608  17.5958
    17.6546  17.6897  17.7440  17.7538  17.9442  17.9448  18.1103  18.1299
    18.1393  18.1604  18.2176  18.2482  18.5050  18.5076  18.5233  18.5503
    18.5517  18.5799  18.6788  18.6986  18.8803  18.9839  18.9875  19.2237
    19.3438  19.6579  19.6713  19.6851  19.7002  19.8999  19.9196  20.0016
    20.0193  20.0285  20.0998  20.1278  20.4057  20.4145  20.5029  20.5275
    20.5299  20.5942  20.6114  20.6279  20.6336  20.6451  20.7218  20.7347
    20.7454  20.7491  20.8721  20.9648  20.9670  21.1452  21.1600  21.2335
    21.4069  21.4122  21.4242  21.4601  21.5140  21.5291  22.0809  22.1283
    22.2058  22.2422

          k = 0.0556 0.0553-0.5000 ( 11380 PWs)   bands (ev):

   -66.8471 -66.8468 -66.7751 -66.7749 -66.7746 -66.7744 -66.7628 -66.7626
   -66.7623 -66.7621 -66.7612 -66.7610 -66.7601 -66.7599 -66.7063 -66.7061
   -33.0882 -33.0880 -33.0879 -33.0878 -33.0843 -33.0842 -33.0838 -33.0838
   -33.0602 -33.0601 -33.0597 -33.0596 -33.0044 -33.0042 -32.9475 -32.9473
   -32.9338 -32.9337 -32.8423 -32.8421 -32.8337 -32.8335 -32.8103 -32.8100
   -32.8074 -32.8072 -32.7844 -32.7841 -32.7818 -32.7816 -32.7218 -32.7216
   -32.6829 -32.6827 -32.6813 -32.6811 -32.6787 -32.6787 -32.6776 -32.6774
   -32.6587 -32.6585 -32.6535 -32.6535 -32.6526 -32.6525 -32.6509 -32.6507
    12.6995  12.7000  15.5026  15.5029  15.5135  15.5137  15.8053  15.8057
    15.8138  15.8140  16.1488  16.1491  16.2821  16.2825  16.2904  16.2907
    16.2926  16.2931  17.1343  17.1345  17.1435  17.1437  17.7776  17.7777
    17.8103  17.8104  17.8776  17.8778  17.9040  17.9041  18.0962  18.0964
    18.1041  18.1044  18.2520  18.2523  18.2672  18.2674  18.5181  18.5182
    18.5313  18.5315  18.5451  18.5453  18.5581  18.5583  19.0369  19.0372
    19.6528  19.6531  19.8412  19.8414  19.8621  19.8622  19.9160  19.9161
    19.9380  19.9380  20.2448  20.2450  20.3698  20.3700  20.4656  20.4658
    20.4707  20.4710  20.6082  20.6084  20.6195  20.6197  20.6340  20.6342
    21.0017  21.0017  21.0048  21.0049  21.0691  21.0694  21.2151  21.2152
    21.2166  21.2166  21.4526  21.4528  21.4807  21.4810  22.1711  22.1714
    22.2131  22.2134

          k = 0.0556 0.1659 0.0556 ( 11349 PWs)   bands (ev):

   -66.8760 -66.7993 -66.7807 -66.7805 -66.7675 -66.7672 -66.7644 -66.7639
   -66.7637 -66.7630 -66.7629 -66.7627 -66.7570 -66.7566 -66.7478 -66.6838
   -33.1657 -33.1656 -33.1636 -33.1610 -33.1568 -33.1567 -33.0130 -32.9992
   -32.9908 -32.9688 -32.9608 -32.9607 -32.9575 -32.9574 -32.9271 -32.9271
   -32.8907 -32.8631 -32.8529 -32.8516 -32.8395 -32.8161 -32.8160 -32.8091
   -32.7999 -32.7962 -32.7957 -32.7952 -32.7951 -32.7857 -32.7856 -32.7812
   -32.7811 -32.7789 -32.7789 -32.7464 -32.7451 -32.7449 -32.7365 -32.6238
   -32.6159 -32.6159 -32.6156 -32.6133 -32.6075 -32.6066 -32.6065 -32.6046
    11.5201  14.6161  15.3279  15.3279  15.4056  15.4057  15.4863  15.4863
    15.4939  15.5185  15.7234  15.7376  15.8285  15.8285  16.0959  17.0399
    17.1526  17.1534  17.2106  17.2232  17.2688  17.2907  17.3145  17.3146
    17.3558  17.3559  17.5794  17.5920  17.6430  17.6430  17.9820  17.9820
    18.4227  18.5354  18.5459  18.6765  18.6767  18.6792  18.7451  18.8549
    18.8551  18.8987  19.1509  19.1509  19.2659  19.2660  19.3233  19.4241
    19.5935  19.5936  19.6820  19.8815  19.8816  19.9123  20.0750  20.1414
    20.1415  20.2362  20.2364  20.2497  20.3235  20.3236  20.3459  20.3718
    20.3819  20.3843  20.3844  20.4165  20.6123  20.6184  20.6187  20.6519
    20.6523  20.8303  20.9195  20.9195  21.0718  21.1849  21.3005  21.4242
    21.4269  21.4270  21.4586  21.4587  21.7621  21.7622  21.9466  21.9467
    22.0201  22.0202

          k = 0.0556 0.1659 0.1667 ( 11375 PWs)   bands (ev):

   -66.8727 -66.7981 -66.7976 -66.7799 -66.7723 -66.7668 -66.7664 -66.7636
   -66.7624 -66.7620 -66.7589 -66.7579 -66.7567 -66.7481 -66.7477 -66.6863
   -33.1636 -33.1571 -33.1561 -33.1489 -33.1482 -33.1373 -33.0190 -32.9961
   -32.9920 -32.9873 -32.9867 -32.9796 -32.9760 -32.9719 -32.9479 -32.9018
   -32.8876 -32.8862 -32.8527 -32.8508 -32.8506 -32.8231 -32.8130 -32.8108
   -32.8049 -32.8044 -32.8021 -32.7935 -32.7912 -32.7894 -32.7866 -32.7770
   -32.7678 -32.7560 -32.7477 -32.7475 -32.7250 -32.7127 -32.7111 -32.6448
   -32.6310 -32.6235 -32.6220 -32.6157 -32.6143 -32.6125 -32.6034 -32.6022
    11.6564  14.6927  14.7146  15.3477  15.3908  15.5063  15.5082  15.5823
    15.5849  15.5962  15.7885  15.7986  15.8809  16.1392  16.1630  16.9437
    17.0545  17.2320  17.2584  17.2809  17.2869  17.2929  17.2955  17.3298
    17.3366  17.3467  17.4603  17.5574  17.5824  17.5987  17.8758  18.2500
    18.2549  18.4777  18.5316  18.5409  18.5454  18.5796  18.7234  18.7760
    19.0743  19.0835  19.1294  19.1404  19.1756  19.2436  19.3426  19.4359
    19.4436  19.4599  19.4678  19.6324  19.6608  19.7824  19.8990  19.9104
    20.1278  20.2435  20.2569  20.2849  20.3146  20.3182  20.3391  20.3429
    20.3554  20.5263  20.5722  20.6041  20.6044  20.6223  20.6280  20.6404
    20.6419  20.7347  20.7485  20.9559  21.0584  21.0590  21.0750  21.0897
    21.1955  21.4521  21.4570  21.5835  21.6535  22.0208  22.3280  22.3381
    22.5106  22.6288

          k = 0.0556 0.1659 0.2778 ( 11391 PWs)   bands (ev):

   -66.8661 -66.8143 -66.7956 -66.7784 -66.7774 -66.7688 -66.7658 -66.7631
   -66.7617 -66.7616 -66.7592 -66.7574 -66.7557 -66.7487 -66.7327 -66.6911
   -33.1514 -33.1401 -33.1389 -33.1338 -33.1261 -33.1082 -33.0250 -33.0245
   -33.0217 -33.0104 -33.0084 -33.0070 -32.9840 -32.9816 -32.9569 -32.9317
   -32.8909 -32.8840 -32.8491 -32.8465 -32.8463 -32.8438 -32.8256 -32.8150
   -32.8147 -32.8097 -32.8014 -32.7920 -32.7895 -32.7753 -32.7693 -32.7522
   -32.7498 -32.7359 -32.7276 -32.7157 -32.6996 -32.6826 -32.6811 -32.6749
   -32.6514 -32.6358 -32.6344 -32.6295 -32.6236 -32.6232 -32.6064 -32.6060
    11.9250  14.0551  14.8282  15.2977  15.4901  15.5456  15.6803  15.7051
    15.7334  15.7734  15.9107  15.9178  15.9479  16.1791  16.3152  16.8286
    16.9093  16.9403  17.1762  17.2544  17.2628  17.2842  17.3199  17.3630
    17.4202  17.4223  17.5422  17.6251  17.7128  17.7778  17.7793  18.1201
    18.2863  18.3696  18.3994  18.4235  18.4542  18.4898  18.5144  18.7055
    18.7633  18.9052  18.9480  19.1024  19.1398  19.2172  19.2369  19.2500
    19.3344  19.4317  19.4582  19.5067  19.5394  19.6635  19.6800  20.0045
    20.1444  20.1866  20.2135  20.2619  20.2654  20.3000  20.3359  20.3878
    20.5524  20.5636  20.5650  20.6329  20.6379  20.6567  20.6582  20.6665
    20.7240  20.8289  20.8484  20.8678  20.8814  20.9029  20.9521  21.0314
    21.1802  21.3827  21.4364  21.5246  21.6496  22.1593  22.1762  22.7416
    22.7861  22.9359

          k = 0.0556 0.1659 0.3889 ( 11371 PWs)   bands (ev):

   -66.8565 -66.8301 -66.7920 -66.7826 -66.7763 -66.7713 -66.7643 -66.7625
   -66.7616 -66.7609 -66.7605 -66.7583 -66.7530 -66.7496 -66.7193 -66.6984
   -33.1294 -33.1155 -33.1134 -33.1119 -33.0958 -33.0709 -33.0636 -33.0537
   -33.0478 -33.0459 -33.0274 -33.0204 -33.0194 -32.9802 -32.9660 -32.9342
   -32.9151 -32.8780 -32.8727 -32.8410 -32.8404 -32.8325 -32.8240 -32.8238
   -32.8151 -32.8143 -32.7986 -32.7911 -32.7904 -32.7626 -32.7529 -32.7394
   -32.7144 -32.7116 -32.7046 -32.6996 -32.6867 -32.6764 -32.6747 -32.6559
   -32.6538 -32.6531 -32.6526 -32.6516 -32.6401 -32.6356 -32.6168 -32.6157
    12.3171  13.4082  14.9880  15.2331  15.5780  15.5913  15.7981  15.8882
    15.9672  15.9794  16.0330  16.0598  16.1004  16.1495  16.3128  16.6197
    16.6216  16.6365  17.1470  17.1896  17.2084  17.2318  17.4878  17.5141
    17.5611  17.5864  17.6082  17.7528  17.8414  17.9754  17.9984  18.0602
    18.1727  18.1803  18.2397  18.2469  18.3867  18.3880  18.4348  18.4636
    18.4680  18.4960  18.5901  18.7086  18.7719  18.7722  19.0599  19.4415
    19.4798  19.6351  19.6360  19.7018  19.7061  19.7128  19.8761  19.9642
    19.9713  20.0536  20.1260  20.1448  20.3179  20.3612  20.3833  20.4700
    20.5025  20.5076  20.5215  20.6292  20.6343  20.6384  20.6444  20.7067
    20.7168  20.7551  20.7762  20.9148  20.9250  20.9929  21.0535  21.1541
    21.1662  21.1666  21.3583  21.5543  21.6415  21.9947  22.3393  22.6717
    22.9670  23.1275

          k = 0.0556 0.1659-0.5000 ( 11380 PWs)   bands (ev):

   -66.8445 -66.8443 -66.7877 -66.7875 -66.7740 -66.7738 -66.7628 -66.7626
   -66.7620 -66.7618 -66.7596 -66.7593 -66.7512 -66.7509 -66.7079 -66.7077
   -33.0997 -33.0996 -33.0849 -33.0847 -33.0843 -33.0841 -33.0813 -33.0813
   -33.0595 -33.0594 -33.0274 -33.0273 -33.0261 -33.0260 -32.9428 -32.9426
   -32.9079 -32.9078 -32.8529 -32.8527 -32.8329 -32.8327 -32.8288 -32.8286
   -32.8202 -32.8199 -32.7909 -32.7906 -32.7572 -32.7570 -32.7537 -32.7536
   -32.7062 -32.7061 -32.6805 -32.6803 -32.6765 -32.6763 -32.6744 -32.6744
   -32.6613 -32.6611 -32.6530 -32.6530 -32.6339 -32.6337 -32.6316 -32.6315
    12.8183  12.8188  15.1312  15.1315  15.6121  15.6124  15.9077  15.9080
    16.0389  16.0393  16.2087  16.2091  16.3035  16.3038  16.3325  16.3329
    16.3366  16.3371  17.1669  17.1670  17.1908  17.1909  17.6784  17.6786
    17.7033  17.7035  17.7521  17.7521  17.7971  17.7974  18.1334  18.1334
    18.1624  18.1627  18.2340  18.2342  18.3402  18.3405  18.3574  18.3576
    18.3731  18.3732  18.3994  18.3996  18.4800  18.4801  19.2393  19.2395
    19.7337  19.7340  19.7504  19.7506  19.8897  19.8897  19.9368  19.9369
    19.9571  19.9572  19.9688  19.9689  20.2995  20.2997  20.4314  20.4317
    20.4435  20.4438  20.5773  20.5775  20.6283  20.6285  20.6657  20.6658
    20.7714  20.7714  20.8826  20.8827  20.9776  20.9777  21.0690  21.0691
    21.2269  21.2272  21.3890  21.3890  21.8065  21.8067  22.5244  22.5246
    23.1083  23.1086

          k = 0.0556 0.2766 0.0556 ( 11374 PWs)   bands (ev):

   -66.8694 -66.8165 -66.7793 -66.7791 -66.7698 -66.7696 -66.7636 -66.7634
   -66.7633 -66.7625 -66.7622 -66.7621 -66.7580 -66.7574 -66.7324 -66.6889
   -33.1476 -33.1475 -33.1460 -33.1439 -33.1331 -33.1330 -33.0137 -33.0104
   -33.0047 -33.0024 -33.0023 -32.9867 -32.9799 -32.9759 -32.9711 -32.9711
   -32.8854 -32.8760 -32.8732 -32.8584 -32.8139 -32.8138 -32.8107 -32.8092
   -32.8060 -32.7991 -32.7991 -32.7838 -32.7837 -32.7811 -32.7811 -32.7632
   -32.7556 -32.7439 -32.7439 -32.7139 -32.7120 -32.7119 -32.7046 -32.6490
   -32.6314 -32.6314 -32.6310 -32.6294 -32.6191 -32.6161 -32.6160 -32.6139
    11.7895  13.9421  15.4136  15.4136  15.4421  15.4421  15.5839  15.5839
    15.6855  15.7071  15.8373  15.8648  15.8775  15.8776  16.2431  16.8733
    16.9177  16.9230  17.1072  17.1541  17.1808  17.1913  17.4257  17.4259
    17.4940  17.4942  17.6332  17.6333  17.8345  17.8562  17.9127  17.9127
    18.3892  18.3894  18.5174  18.5409  18.5499  18.5501  18.5846  18.6358
    18.7742  19.0194  19.0346  19.0347  19.2490  19.2490  19.4091  19.4091
    19.4471  19.4471  19.4529  19.4816  19.5290  19.6015  19.7127  20.1060
    20.1372  20.1373  20.2346  20.2347  20.3810  20.3953  20.4360  20.4443
    20.4444  20.5830  20.5844  20.6177  20.6469  20.6489  20.6531  20.6763
    20.6764  20.7002  20.8716  20.9257  21.0536  21.1181  21.1182  21.3525
    21.4398  21.4399  21.5152  21.5153  21.6350  21.6351  22.0251  22.0251
    22.1541  22.1541

          k = 0.0556 0.2766 0.1667 ( 11384 PWs)   bands (ev):

   -66.8662 -66.8147 -66.7952 -66.7785 -66.7774 -66.7691 -66.7654 -66.7631
   -66.7620 -66.7612 -66.7592 -66.7573 -66.7556 -66.7483 -66.7331 -66.6912
   -33.1515 -33.1400 -33.1392 -33.1332 -33.1269 -33.1086 -33.0260 -33.0251
   -33.0218 -33.0111 -33.0084 -33.0066 -32.9834 -32.9822 -32.9563 -32.9332
   -32.8906 -32.8839 -32.8488 -32.8463 -32.8444 -32.8427 -32.8240 -32.8169
   -32.8146 -32.8074 -32.8031 -32.7897 -32.7882 -32.7770 -32.7691 -32.7531
   -32.7494 -32.7366 -32.7278 -32.7159 -32.6998 -32.6823 -32.6812 -32.6746
   -32.6516 -32.6357 -32.6348 -32.6309 -32.6236 -32.6220 -32.6065 -32.6057
    11.9227  14.0367  14.8460  15.2987  15.4884  15.5460  15.6820  15.7011
    15.7342  15.7686  15.9010  15.9238  15.9464  16.1971  16.2929  16.8219
    16.9011  16.9372  17.1666  17.2238  17.2523  17.2541  17.3257  17.3956
    17.4196  17.4544  17.5421  17.6243  17.7286  17.7803  17.7932  18.1245
    18.2829  18.3819  18.3984  18.4209  18.4607  18.5032  18.5157  18.7062
    18.7570  18.9110  18.9285  19.0806  19.1641  19.2385  19.2443  19.2470
    19.3446  19.4211  19.4443  19.4940  19.5221  19.6758  19.7031  20.0066
    20.1282  20.1606  20.2053  20.2337  20.2659  20.3259  20.3640  20.4002
    20.5526  20.5653  20.5674  20.6378  20.6436  20.6601  20.6682  20.6718
    20.7237  20.8423  20.8480  20.8521  20.8720  20.8981  20.9585  21.0602
    21.1691  21.3813  21.4353  21.5230  21.6494  22.1566  22.1667  22.7248
    22.8450  22.9450

          k = 0.0556 0.2766 0.2778 ( 11377 PWs)   bands (ev):

   -66.8600 -66.8112 -66.8109 -66.7853 -66.7770 -66.7679 -66.7676 -66.7627
   -66.7613 -66.7609 -66.7607 -66.7576 -66.7496 -66.7347 -66.7343 -66.6957
   -33.1451 -33.1252 -33.1244 -33.1151 -33.1142 -33.0748 -33.0417 -33.0410
   -33.0379 -33.0376 -33.0281 -33.0250 -33.0029 -32.9723 -32.9321 -32.8917
   -32.8896 -32.8886 -32.8779 -32.8777 -32.8442 -32.8334 -32.8298 -32.8239
   -32.8219 -32.8103 -32.8087 -32.8016 -32.7999 -32.7953 -32.7558 -32.7290
   -32.7199 -32.7196 -32.7134 -32.7101 -32.7070 -32.6832 -32.6763 -32.6559
   -32.6547 -32.6433 -32.6423 -32.6351 -32.6341 -32.6338 -32.6034 -32.6026
    12.1844  14.2136  14.2288  15.1367  15.6122  15.7426  15.7451  15.8647
    15.8685  15.8944  16.0081  16.0485  16.0501  16.3389  16.3558  16.7630
    16.8218  17.0135  17.0168  17.2302  17.3018  17.3146  17.3430  17.3593
    17.3865  17.4452  17.4736  17.6435  17.6678  17.7670  17.8132  18.1803
    18.1805  18.2786  18.2972  18.2998  18.3190  18.3196  18.3759  18.4813
    18.7241  18.7436  18.7855  18.8076  18.9451  19.0071  19.0136  19.0854
    19.5125  19.5143  19.5749  19.6137  19.6545  19.6709  19.8734  19.9628
    19.9714  20.1266  20.2105  20.2341  20.2373  20.2560  20.2822  20.3311
    20.3706  20.5210  20.5227  20.5312  20.6351  20.6452  20.6776  20.7281
    20.7410  20.7470  20.7937  20.8014  20.8201  20.9235  20.9328  21.1003
    21.1041  21.1421  21.4879  21.6783  21.6975  22.3894  22.7958  22.8042
    23.3979  23.4109

          k = 0.0556 0.2766 0.3889 ( 11380 PWs)   bands (ev):

   -66.8508 -66.8258 -66.8063 -66.7929 -66.7750 -66.7701 -66.7664 -66.7626
   -66.7620 -66.7611 -66.7603 -66.7583 -66.7445 -66.7371 -66.7218 -66.7024
   -33.1292 -33.1044 -33.1031 -33.0984 -33.0890 -33.0752 -33.0575 -33.0512
   -33.0507 -33.0498 -33.0468 -33.0341 -33.0300 -32.9551 -32.9383 -32.9071
   -32.9048 -32.8802 -32.8691 -32.8443 -32.8436 -32.8430 -32.8413 -32.8374
   -32.8371 -32.8308 -32.8131 -32.8012 -32.7994 -32.7723 -32.7514 -32.7441
   -32.7260 -32.7050 -32.7008 -32.6925 -32.6908 -32.6866 -32.6669 -32.6547
   -32.6544 -32.6516 -32.6492 -32.6424 -32.6338 -32.6323 -32.6064 -32.6062
    12.5652  13.6152  14.4473  14.9384  15.7329  15.7864  15.9794  16.0198
    16.0567  16.1113  16.1211  16.1426  16.2339  16.3103  16.3682  16.6316
    16.6348  16.7248  17.2133  17.2152  17.2576  17.2814  17.3105  17.4347
    17.4380  17.4750  17.5735  17.5845  17.8191  17.9095  17.9161  17.9496
    18.0602  18.1441  18.1667  18.2136  18.2387  18.2549  18.3488  18.3602
    18.3909  18.4386  18.4421  18.4548  18.5889  18.6714  19.2813  19.2984
    19.6584  19.6722  19.7256  19.7612  19.7694  19.7710  19.7806  19.8613
    19.9772  20.0284  20.1082  20.1494  20.1533  20.2798  20.2831  20.3085
    20.4189  20.4353  20.4515  20.4559  20.5577  20.6403  20.6531  20.6618
    20.6809  20.7349  20.7615  20.7784  20.7928  20.8658  20.8817  20.9543
    21.2720  21.3344  21.4762  21.6316  21.9495  22.5321  22.6771  23.2310
    23.4702  24.0459

          k = 0.0556 0.2766-0.5000 ( 11382 PWs)   bands (ev):

   -66.8393 -66.8391 -66.8001 -66.7999 -66.7728 -66.7725 -66.7646 -66.7644
   -66.7616 -66.7613 -66.7594 -66.7592 -66.7405 -66.7403 -66.7113 -66.7110
   -33.1056 -33.1054 -33.0787 -33.0787 -33.0786 -33.0784 -33.0775 -33.0774
   -33.0599 -33.0599 -33.0513 -33.0512 -32.9876 -32.9874 -32.9333 -32.9331
   -32.8749 -32.8748 -32.8621 -32.8620 -32.8577 -32.8575 -32.8359 -32.8357
   -32.8266 -32.8265 -32.8011 -32.8009 -32.7966 -32.7965 -32.7375 -32.7374
   -32.7342 -32.7340 -32.6744 -32.6741 -32.6707 -32.6705 -32.6691 -32.6690
   -32.6688 -32.6686 -32.6532 -32.6531 -32.6170 -32.6168 -32.6158 -32.6157
    13.0495  13.0501  14.7012  14.7017  15.7945  15.7948  16.0793  16.0795
    16.2043  16.2046  16.2782  16.2786  16.3355  16.3358  16.3995  16.3998
    16.4612  16.4615  17.2301  17.2302  17.2548  17.2550  17.5080  17.5083
    17.5282  17.5286  17.5350  17.5352  17.7460  17.7461  18.1011  18.1013
    18.1389  18.1391  18.1449  18.1451  18.1691  18.1693  18.1859  18.1860
    18.3458  18.3460  18.3473  18.3473  18.4031  18.4032  19.4947  19.4949
    19.6259  19.6259  19.6868  19.6870  19.8614  19.8616  19.9535  19.9535
    19.9722  19.9723  19.9918  19.9920  20.1322  20.1323  20.3678  20.3680
    20.3797  20.3799  20.5218  20.5220  20.5641  20.5641  20.6533  20.6535
    20.6707  20.6709  20.7007  20.7009  20.7977  20.7979  20.9247  20.9249
    21.4009  21.4011  21.5146  21.5147  22.2399  22.2400  22.9722  22.9724
    24.1641  24.1644

          k = 0.0556 0.3872 0.0556 ( 11391 PWs)   bands (ev):

   -66.8597 -66.8326 -66.7773 -66.7771 -66.7723 -66.7720 -66.7630 -66.7629
   -66.7624 -66.7623 -66.7621 -66.7610 -66.7594 -66.7585 -66.7185 -66.6965
   -33.1204 -33.1202 -33.1202 -33.1193 -33.1005 -33.1004 -33.0509 -33.0486
   -33.0454 -33.0453 -33.0172 -33.0171 -33.0120 -32.9963 -32.9684 -32.9563
   -32.9169 -32.9044 -32.8598 -32.8478 -32.8258 -32.8195 -32.8108 -32.8107
   -32.8031 -32.8030 -32.7823 -32.7822 -32.7812 -32.7811 -32.7644 -32.7213
   -32.7171 -32.7094 -32.7094 -32.6843 -32.6822 -32.6806 -32.6805 -32.6756
   -32.6535 -32.6535 -32.6523 -32.6523 -32.6362 -32.6316 -32.6315 -32.6297
    12.1835  13.2849  15.4859  15.4859  15.4862  15.4862  15.7008  15.7009
    15.8792  15.8793  15.9529  15.9695  15.9831  16.0520  16.2355  16.5878
    16.5996  16.6071  17.0973  17.1142  17.1452  17.1540  17.5937  17.5939
    17.6873  17.6875  17.7509  17.7510  17.9497  17.9498  18.1288  18.1290
    18.1621  18.1830  18.2443  18.2444  18.5094  18.5094  18.5125  18.5403
    18.5647  18.5732  18.6841  18.6842  18.9002  19.0104  19.0147  19.2428
    19.3241  19.6475  19.6475  19.6736  19.6736  19.8969  19.9184  20.0030
    20.0032  20.0388  20.0992  20.0992  20.4278  20.4371  20.5127  20.5356
    20.5386  20.6064  20.6246  20.6402  20.6463  20.6594  20.7260  20.7363
    20.7452  20.7453  20.8728  20.9628  20.9630  21.1535  21.1536  21.2305
    21.4070  21.4071  21.4550  21.4551  21.5194  21.5194  22.1198  22.1199
    22.2232  22.2232

          k = 0.0556 0.3872 0.1667 ( 11375 PWs)   bands (ev):

   -66.8567 -66.8304 -66.7917 -66.7825 -66.7765 -66.7716 -66.7640 -66.7626
   -66.7619 -66.7607 -66.7603 -66.7581 -66.7529 -66.7493 -66.7197 -66.6985
   -33.1299 -33.1149 -33.1146 -33.1115 -33.0968 -33.0713 -33.0648 -33.0536
   -33.0476 -33.0471 -33.0282 -33.0215 -33.0198 -32.9813 -32.9655 -32.9330
   -32.9148 -32.8766 -32.8729 -32.8408 -32.8403 -32.8341 -32.8239 -32.8216
   -32.8156 -32.8125 -32.7974 -32.7888 -32.7885 -32.7625 -32.7526 -32.7407
   -32.7155 -32.7112 -32.7054 -32.6998 -32.6868 -32.6770 -32.6748 -32.6549
   -32.6546 -32.6538 -32.6530 -32.6524 -32.6402 -32.6349 -32.6162 -32.6160
    12.3114  13.3942  15.0006  15.2366  15.5751  15.5901  15.7985  15.8906
    15.9652  15.9725  16.0256  16.0458  16.1060  16.1603  16.2925  16.6111
    16.6198  16.6255  17.1331  17.1757  17.1828  17.2070  17.4938  17.5437
    17.5597  17.6084  17.6142  17.7594  17.8390  17.9737  18.0196  18.0806
    18.1772  18.1916  18.2432  18.2646  18.3831  18.3853  18.4304  18.4557
    18.4735  18.5004  18.5758  18.7137  18.7963  18.7977  19.0692  19.4521
    19.4688  19.6269  19.6453  19.6831  19.6855  19.7029  19.8772  19.9458
    19.9916  20.0297  20.0988  20.1395  20.3245  20.3826  20.4070  20.4786
    20.5111  20.5170  20.5175  20.6358  20.6427  20.6506  20.6522  20.6981
    20.7278  20.7548  20.7903  20.9132  20.9202  21.0170  21.0554  21.1516
    21.1595  21.1627  21.3576  21.5531  21.6374  21.9862  22.3330  22.6576
    23.0150  23.1498

          k = 0.0556 0.3872 0.2778 ( 11387 PWs)   bands (ev):

   -66.8509 -66.8260 -66.8060 -66.7928 -66.7751 -66.7704 -66.7661 -66.7625
   -66.7621 -66.7613 -66.7601 -66.7583 -66.7445 -66.7368 -66.7221 -66.7025
   -33.1297 -33.1040 -33.1037 -33.0978 -33.0898 -33.0758 -33.0575 -33.0519
   -33.0506 -33.0495 -33.0469 -33.0343 -33.0305 -32.9550 -32.9392 -32.9071
   -32.9042 -32.8806 -32.8689 -32.8444 -32.8429 -32.8426 -32.8417 -32.8375
   -32.8360 -32.8288 -32.8143 -32.7997 -32.7985 -32.7734 -32.7510 -32.7440
   -32.7258 -32.7055 -32.7014 -32.6928 -32.6913 -32.6865 -32.6668 -32.6553
   -32.6539 -32.6526 -32.6493 -32.6418 -32.6332 -32.6329 -32.6063 -32.6060
    12.5619  13.6039  14.4581  14.9408  15.7317  15.7871  15.9817  16.0148
    16.0582  16.1108  16.1150  16.1367  16.2350  16.3200  16.3536  16.6257
    16.6289  16.7238  17.2041  17.2176  17.2477  17.2584  17.2890  17.4386
    17.4587  17.4959  17.5775  17.5838  17.8340  17.9100  17.9295  17.9482
    18.0600  18.1483  18.1663  18.2212  18.2375  18.2563  18.3377  18.3650
    18.3762  18.4449  18.4601  18.4741  18.5915  18.6672  19.2850  19.3045
    19.6497  19.6659  19.7336  19.7590  19.7612  19.7662  19.7710  19.8760
    19.9800  20.0179  20.0879  20.1264  20.1477  20.2745  20.3021  20.3297
    20.4242  20.4415  20.4573  20.4626  20.5681  20.6423  20.6446  20.6646
    20.6851  20.7516  20.7613  20.7854  20.7899  20.8648  20.8796  20.9487
    21.2743  21.3313  21.4764  21.6304  21.9472  22.5253  22.6737  23.2208
    23.4764  24.1033

          k = 0.0556 0.3872 0.3889 ( 11376 PWs)   bands (ev):

   -66.8425 -66.8197 -66.8195 -66.8027 -66.7733 -66.7687 -66.7685 -66.7645
   -66.7615 -66.7605 -66.7603 -66.7588 -66.7371 -66.7259 -66.7256 -66.7084
   -33.1200 -33.0895 -33.0889 -33.0808 -33.0802 -33.0786 -33.0781 -33.0634
   -33.0629 -33.0606 -33.0596 -33.0444 -32.9903 -32.9395 -32.8956 -32.8954
   -32.8924 -32.8918 -32.8780 -32.8731 -32.8635 -32.8494 -32.8481 -32.8471
   -32.8328 -32.8135 -32.8124 -32.8070 -32.8066 -32.8060 -32.7961 -32.7368
   -32.7274 -32.7016 -32.7014 -32.6838 -32.6775 -32.6744 -32.6628 -32.6601
   -32.6588 -32.6581 -32.6530 -32.6525 -32.6167 -32.6162 -32.6029 -32.6026
    12.9241  13.8956  13.9033  14.6013  15.9059  16.0489  16.0516  16.1983
    16.2176  16.2217  16.2344  16.2488  16.3570  16.3646  16.4329  16.5449
    16.6034  16.9378  16.9404  17.2546  17.2705  17.3356  17.3465  17.3578
    17.3639  17.3716  17.4541  17.5717  17.6627  17.7678  17.8782  17.9618
    17.9623  18.0460  18.1121  18.1225  18.1312  18.1453  18.1672  18.1779
    18.3009  18.3021  18.3137  18.3868  18.4243  18.9493  18.9525  19.5198
    19.6195  19.6916  19.7523  19.7599  19.8709  19.8720  19.8952  19.9039
    20.0219  20.0265  20.0530  20.1363  20.1751  20.1851  20.1895  20.1928
    20.2089  20.3761  20.3801  20.3981  20.4832  20.5732  20.5815  20.6057
    20.6583  20.6890  20.7210  20.7229  20.7591  20.8125  20.8161  20.8387
    21.4569  21.4589  21.5359  21.6416  22.3219  23.0691  23.1029  23.1072
    23.8329  23.8395

          k = 0.0556 0.3872-0.5000 ( 11404 PWs)   bands (ev):

   -66.8320 -66.8318 -66.8120 -66.8117 -66.7710 -66.7708 -66.7668 -66.7666
   -66.7609 -66.7607 -66.7597 -66.7595 -66.7310 -66.7307 -66.7163 -66.7161
   -33.1025 -33.1024 -33.0741 -33.0741 -33.0739 -33.0738 -33.0735 -33.0735
   -33.0718 -33.0716 -33.0616 -33.0615 -32.9424 -32.9422 -32.9194 -32.9192
   -32.8809 -32.8807 -32.8662 -32.8661 -32.8515 -32.8514 -32.8443 -32.8441
   -32.8402 -32.8401 -32.8246 -32.8245 -32.8118 -32.8116 -32.7707 -32.7706
   -32.7133 -32.7131 -32.6804 -32.6802 -32.6670 -32.6668 -32.6664 -32.6662
   -32.6651 -32.6650 -32.6554 -32.6553 -32.6065 -32.6063 -32.6061 -32.6059
    13.3797  13.3802  14.2402  14.2407  16.0242  16.0245  16.2858  16.2860
    16.3010  16.3014  16.3220  16.3224  16.3329  16.3332  16.4595  16.4597
    16.6740  16.6744  17.2340  17.2343  17.2859  17.2859  17.2895  17.2895
    17.3470  17.3473  17.4024  17.4026  17.7912  17.7913  17.9005  17.9007
    17.9882  17.9885  17.9996  17.9997  18.0179  18.0180  18.0604  18.0606
    18.3173  18.3174  18.3386  18.3387  18.6169  18.6170  19.2700  19.2700
    19.6906  19.6908  19.7658  19.7659  19.9398  19.9400  19.9903  19.9905
    20.0419  20.0420  20.0519  20.0520  20.0566  20.0567  20.2769  20.2771
    20.2840  20.2841  20.3191  20.3192  20.4592  20.4594  20.5034  20.5037
    20.6824  20.6825  20.7328  20.7330  20.7472  20.7474  20.8279  20.8281
    21.5280  21.5281  21.5840  21.5841  22.7173  22.7175  23.4707  23.4709
    23.6940  23.6942

          k = 0.0556-0.4978 0.0556 ( 11376 PWs)   bands (ev):

   -66.8473 -66.8471 -66.7749 -66.7748 -66.7748 -66.7745 -66.7626 -66.7626
   -66.7625 -66.7622 -66.7609 -66.7607 -66.7599 -66.7597 -66.7065 -66.7064
   -33.0880 -33.0877 -33.0876 -33.0874 -33.0854 -33.0853 -33.0853 -33.0853
   -33.0612 -33.0611 -33.0611 -33.0611 -33.0063 -33.0062 -32.9450 -32.9448
   -32.9326 -32.9324 -32.8428 -32.8427 -32.8340 -32.8339 -32.8072 -32.8072
   -32.8071 -32.8070 -32.7817 -32.7816 -32.7815 -32.7814 -32.7210 -32.7209
   -32.6843 -32.6842 -32.6826 -32.6825 -32.6787 -32.6786 -32.6786 -32.6785
   -32.6581 -32.6579 -32.6533 -32.6533 -32.6532 -32.6532 -32.6505 -32.6504
    12.6887  12.6888  15.5098  15.5099  15.5099  15.5099  15.8117  15.8117
    15.8118  15.8118  16.1305  16.1306  16.2713  16.2714  16.2795  16.2796
    16.2949  16.2951  17.1137  17.1138  17.1230  17.1231  17.8073  17.8073
    17.8074  17.8075  17.9015  17.9015  17.9016  17.9017  18.1024  18.1024
    18.1025  18.1025  18.2598  18.2599  18.2599  18.2600  18.5260  18.5260
    18.5505  18.5506  18.5567  18.5567  18.5702  18.5702  19.0572  19.0575
    19.6312  19.6314  19.8375  19.8375  19.8376  19.8377  19.9097  19.9098
    19.9098  19.9099  20.2608  20.2608  20.3875  20.3875  20.4816  20.4818
    20.4872  20.4874  20.6095  20.6096  20.6324  20.6325  20.6476  20.6477
    21.0030  21.0030  21.0031  21.0032  21.0678  21.0679  21.2133  21.2133
    21.2134  21.2135  21.4724  21.4724  21.4724  21.4725  22.1996  22.1996
    22.1997  22.1997

          k = 0.0556-0.4978 0.1667 ( 11376 PWs)   bands (ev):

   -66.8447 -66.8444 -66.7874 -66.7872 -66.7742 -66.7740 -66.7626 -66.7624
   -66.7622 -66.7620 -66.7593 -66.7591 -66.7509 -66.7507 -66.7081 -66.7080
   -33.1004 -33.1003 -33.0845 -33.0843 -33.0839 -33.0837 -33.0828 -33.0828
   -33.0608 -33.0608 -33.0283 -33.0283 -33.0266 -33.0266 -32.9424 -32.9422
   -32.9063 -32.9061 -32.8534 -32.8533 -32.8327 -32.8325 -32.8291 -32.8290
   -32.8177 -32.8176 -32.7886 -32.7884 -32.7569 -32.7567 -32.7528 -32.7528
   -32.7070 -32.7070 -32.6817 -32.6816 -32.6774 -32.6773 -32.6743 -32.6742
   -32.6614 -32.6612 -32.6528 -32.6528 -32.6329 -32.6329 -32.6323 -32.6323
    12.8088  12.8089  15.1386  15.1387  15.6095  15.6096  15.9066  15.9067
    16.0446  16.0446  16.1916  16.1917  16.2941  16.2942  16.3228  16.3229
    16.3399  16.3401  17.1472  17.1473  17.1718  17.1719  17.7008  17.7009
    17.7165  17.7166  17.7499  17.7500  17.8014  17.8015  18.1314  18.1315
    18.1670  18.1671  18.2295  18.2296  18.3465  18.3466  18.3697  18.3698
    18.3816  18.3816  18.4224  18.4224  18.4878  18.4879  19.2507  19.2509
    19.7168  19.7171  19.7479  19.7481  19.8678  19.8680  19.9122  19.9123
    19.9486  19.9487  19.9779  19.9779  20.3165  20.3166  20.4473  20.4475
    20.4610  20.4612  20.5783  20.5784  20.6358  20.6359  20.6752  20.6753
    20.7776  20.7777  20.8808  20.8808  20.9880  20.9880  21.0653  21.0653
    21.2273  21.2274  21.3866  21.3866  21.7999  21.7999  22.5140  22.5140
    23.1443  23.1443

          k = 0.0556-0.4978 0.2778 ( 11378 PWs)   bands (ev):

   -66.8395 -66.8393 -66.8000 -66.7998 -66.7729 -66.7727 -66.7645 -66.7643
   -66.7617 -66.7615 -66.7593 -66.7591 -66.7403 -66.7401 -66.7114 -66.7112
   -33.1060 -33.1060 -33.0785 -33.0785 -33.0784 -33.0783 -33.0782 -33.0781
   -33.0607 -33.0606 -33.0512 -33.0511 -32.9883 -32.9882 -32.9332 -32.9330
   -32.8738 -32.8737 -32.8628 -32.8627 -32.8576 -32.8574 -32.8340 -32.8339
   -32.8270 -32.8270 -32.7995 -32.7994 -32.7959 -32.7959 -32.7381 -32.7381
   -32.7341 -32.7339 -32.6752 -32.6751 -32.6714 -32.6713 -32.6691 -32.6689
   -32.6686 -32.6685 -32.6529 -32.6529 -32.6165 -32.6164 -32.6163 -32.6162
    13.0425  13.0427  14.7076  14.7077  15.7937  15.7938  16.0800  16.0800
    16.2089  16.2089  16.2676  16.2677  16.3287  16.3288  16.3920  16.3921
    16.4619  16.4621  17.2130  17.2131  17.2396  17.2397  17.5159  17.5160
    17.5317  17.5318  17.5497  17.5498  17.7446  17.7447  18.1211  18.1211
    18.1351  18.1351  18.1478  18.1479  18.1846  18.1848  18.1872  18.1872
    18.3451  18.3451  18.3488  18.3489  18.4077  18.4078  19.5008  19.5010
    19.6308  19.6308  19.6840  19.6842  19.8509  19.8511  19.9376  19.9377
    19.9546  19.9547  19.9851  19.9852  20.1434  20.1435  20.3806  20.3808
    20.3942  20.3944  20.5219  20.5221  20.5665  20.5666  20.6564  20.6565
    20.6793  20.6794  20.7057  20.7058  20.7967  20.7968  20.9220  20.9221
    21.4021  21.4022  21.5126  21.5126  22.2355  22.2355  22.9654  22.9655
    24.1681  24.1682

          k = 0.0556-0.4978 0.3889 ( 11390 PWs)   bands (ev):

   -66.8321 -66.8319 -66.8118 -66.8116 -66.7711 -66.7709 -66.7667 -66.7665
   -66.7610 -66.7608 -66.7596 -66.7595 -66.7308 -66.7307 -66.7163 -66.7161
   -33.1026 -33.1026 -33.0741 -33.0741 -33.0738 -33.0738 -33.0736 -33.0734
   -33.0714 -33.0712 -33.0621 -33.0620 -32.9424 -32.9423 -32.9194 -32.9192
   -32.8809 -32.8807 -32.8668 -32.8668 -32.8507 -32.8506 -32.8438 -32.8438
   -32.8396 -32.8396 -32.8249 -32.8249 -32.8111 -32.8110 -32.7710 -32.7710
   -32.7132 -32.7131 -32.6804 -32.6803 -32.6672 -32.6671 -32.6667 -32.6666
   -32.6647 -32.6647 -32.6550 -32.6550 -32.6064 -32.6063 -32.6061 -32.6059
    13.3761  13.3762  14.2441  14.2442  16.0248  16.0248  16.2876  16.2876
    16.3040  16.3040  16.3179  16.3180  16.3299  16.3300  16.4555  16.4556
    16.6732  16.6734  17.2359  17.2360  17.2784  17.2785  17.2794  17.2795
    17.3506  17.3507  17.4100  17.4101  17.7907  17.7908  17.9115  17.9115
    17.9958  17.9958  17.9967  17.9967  18.0178  18.0179  18.0600  18.0600
    18.3179  18.3179  18.3403  18.3403  18.6154  18.6154  19.2720  19.2721
    19.6882  19.6883  19.7683  19.7685  19.9448  19.9449  19.9865  19.9867
    20.0395  20.0396  20.0438  20.0440  20.0477  20.0479  20.2841  20.2843
    20.2921  20.2922  20.3175  20.3176  20.4582  20.4583  20.5100  20.5101
    20.6835  20.6836  20.7347  20.7348  20.7466  20.7467  20.8266  20.8266
    21.5289  21.5289  21.5830  21.5831  22.7151  22.7151  23.4674  23.4674
    23.6962  23.6963

          k = 0.0556-0.4978-0.5000 ( 11408 PWs)   bands (ev):

   -66.8228 -66.8226 -66.8226 -66.8224 -66.7691 -66.7689 -66.7689 -66.7687
   -66.7604 -66.7602 -66.7601 -66.7600 -66.7230 -66.7228 -66.7227 -66.7226
   -33.0917 -33.0916 -33.0915 -33.0914 -33.0721 -33.0720 -33.0719 -33.0718
   -33.0658 -33.0656 -33.0656 -33.0654 -32.9019 -32.9018 -32.9017 -32.9015
   -32.8936 -32.8935 -32.8935 -32.8934 -32.8627 -32.8627 -32.8625 -32.8624
   -32.8201 -32.8200 -32.8199 -32.8197 -32.8053 -32.8052 -32.8051 -32.8050
   -32.6954 -32.6952 -32.6951 -32.6950 -32.6643 -32.6642 -32.6641 -32.6641
   -32.6602 -32.6601 -32.6599 -32.6599 -32.6029 -32.6028 -32.6027 -32.6025
    13.7869  13.7871  13.7874  13.7875  16.2304  16.2304  16.2307  16.2307
    16.3350  16.3351  16.3353  16.3356  16.4386  16.4386  16.4388  16.4388
    16.9410  16.9411  16.9413  16.9415  17.2767  17.2769  17.2770  17.2770
    17.3247  17.3249  17.3250  17.3250  17.8831  17.8832  17.8832  17.8834
    17.8835  17.8837  17.8838  17.8839  17.9720  17.9721  17.9722  17.9724
    18.3080  18.3081  18.3082  18.3082  18.9282  18.9282  18.9282  18.9282
    19.7794  19.7795  19.7796  19.7797  20.0366  20.0366  20.0366  20.0367
    20.0687  20.0688  20.0690  20.0690  20.1666  20.1668  20.1668  20.1669
    20.1694  20.1695  20.1695  20.1697  20.4363  20.4364  20.4365  20.4366
    20.7123  20.7124  20.7124  20.7126  20.7699  20.7700  20.7701  20.7702
    21.5898  21.5899  21.5900  21.5901  23.2082  23.2083  23.2084  23.2085
    23.9775  23.9777

          k = 0.1667 0.0553 0.1667 ( 11380 PWs)   bands (ev):

   -66.8726 -66.7977 -66.7975 -66.7803 -66.7718 -66.7670 -66.7667 -66.7640
   -66.7626 -66.7624 -66.7586 -66.7580 -66.7568 -66.7477 -66.7475 -66.6863
   -33.1627 -33.1570 -33.1569 -33.1489 -33.1488 -33.1366 -33.0161 -33.0001
   -32.9919 -32.9866 -32.9863 -32.9786 -32.9752 -32.9719 -32.9467 -32.9025
   -32.8870 -32.8869 -32.8536 -32.8534 -32.8534 -32.8220 -32.8113 -32.8111
   -32.8080 -32.8022 -32.8021 -32.7913 -32.7912 -32.7889 -32.7857 -32.7795
   -32.7675 -32.7544 -32.7496 -32.7495 -32.7236 -32.7116 -32.7113 -32.6444
   -32.6324 -32.6222 -32.6222 -32.6142 -32.6142 -32.6128 -32.6047 -32.6019
    11.6576  14.7157  14.7157  15.3488  15.3683  15.5079  15.5079  15.5846
    15.5847  15.5947  15.7871  15.8018  15.8580  16.1640  16.1640  16.9488
    17.0628  17.2373  17.2872  17.2872  17.2932  17.2933  17.3005  17.3301
    17.3303  17.3571  17.4241  17.5450  17.5763  17.5842  17.8698  18.2579
    18.2579  18.4619  18.5210  18.5212  18.5558  18.5937  18.7372  18.7653
    19.0567  19.0567  19.1482  19.1484  19.1961  19.2523  19.3571  19.4369
    19.4369  19.4600  19.4602  19.6346  19.6346  19.8147  19.8972  19.8973
    20.1566  20.2543  20.2544  20.2692  20.3112  20.3113  20.3241  20.3326
    20.3711  20.5293  20.5837  20.6164  20.6167  20.6225  20.6226  20.6233
    20.6244  20.7308  20.7309  20.9528  21.0558  21.0558  21.0900  21.0901
    21.1898  21.4172  21.4562  21.5870  21.6623  21.9698  22.3280  22.3281
    22.5430  22.6979

          k = 0.1667 0.0553 0.2778 ( 11382 PWs)   bands (ev):

   -66.8661 -66.8143 -66.7951 -66.7789 -66.7770 -66.7692 -66.7658 -66.7635
   -66.7621 -66.7616 -66.7592 -66.7574 -66.7552 -66.7483 -66.7327 -66.6911
   -33.1503 -33.1399 -33.1396 -33.1336 -33.1266 -33.1077 -33.0247 -33.0224
   -33.0215 -33.0101 -33.0082 -33.0060 -32.9878 -32.9810 -32.9555 -32.9321
   -32.8911 -32.8870 -32.8497 -32.8495 -32.8447 -32.8432 -32.8237 -32.8176
   -32.8149 -32.8073 -32.8014 -32.7897 -32.7880 -32.7759 -32.7715 -32.7518
   -32.7516 -32.7357 -32.7264 -32.7173 -32.6985 -32.6819 -32.6816 -32.6745
   -32.6526 -32.6344 -32.6342 -32.6292 -32.6243 -32.6217 -32.6078 -32.6057
    11.9262  14.0562  14.8490  15.3016  15.4705  15.5450  15.6811  15.7051
    15.7332  15.7733  15.9033  15.9268  15.9287  16.1991  16.3158  16.8329
    16.9164  16.9411  17.1750  17.2550  17.2645  17.2850  17.3271  17.3850
    17.3970  17.4560  17.5377  17.5896  17.7084  17.7730  17.7759  18.1229
    18.2646  18.3882  18.3904  18.4050  18.4541  18.5084  18.5387  18.7243
    18.7342  18.8966  18.9271  19.0794  19.1399  19.2176  19.2621  19.2628
    19.3202  19.4443  19.4566  19.5104  19.5409  19.6609  19.6920  20.0320
    20.1540  20.1594  20.2034  20.2342  20.2967  20.3009  20.3388  20.3813
    20.5506  20.5713  20.5728  20.6203  20.6254  20.6503  20.6524  20.6813
    20.7198  20.8232  20.8492  20.8606  20.8679  20.8993  20.9496  21.0611
    21.1618  21.3837  21.4395  21.4914  21.6559  22.1149  22.1668  22.7198
    22.8509  22.9769

          k = 0.1667 0.0553 0.3889 ( 11368 PWs)   bands (ev):

   -66.8565 -66.8300 -66.7915 -66.7822 -66.7768 -66.7718 -66.7643 -66.7630
   -66.7620 -66.7609 -66.7606 -66.7583 -66.7526 -66.7491 -66.7193 -66.6984
   -33.1285 -33.1153 -33.1139 -33.1117 -33.0962 -33.0702 -33.0631 -33.0536
   -33.0476 -33.0461 -33.0257 -33.0205 -33.0183 -32.9802 -32.9695 -32.9326
   -32.9183 -32.8764 -32.8728 -32.8436 -32.8412 -32.8325 -32.8270 -32.8218
   -32.8145 -32.8126 -32.7980 -32.7890 -32.7886 -32.7648 -32.7550 -32.7401
   -32.7141 -32.7112 -32.7043 -32.6985 -32.6880 -32.6774 -32.6737 -32.6552
   -32.6546 -32.6524 -32.6517 -32.6514 -32.6409 -32.6344 -32.6171 -32.6163
    12.3183  13.4094  15.0052  15.2411  15.5631  15.5873  15.7961  15.8903
    15.9541  15.9798  16.0334  16.0555  16.1065  16.1621  16.3126  16.6214
    16.6242  16.6396  17.1467  17.1901  17.2090  17.2326  17.4985  17.5271
    17.5459  17.6055  17.6175  17.7572  17.8073  17.9478  17.9969  18.0584
    18.1815  18.1923  18.2566  18.2649  18.3638  18.3661  18.4039  18.4503
    18.4852  18.5200  18.5709  18.7296  18.7718  18.7719  19.0532  19.4367
    19.4879  19.6243  19.6466  19.6954  19.6969  19.7297  19.8998  19.9697
    19.9790  20.0317  20.1036  20.1710  20.3117  20.3646  20.3884  20.4681
    20.5086  20.5141  20.5157  20.6180  20.6244  20.6337  20.6391  20.7065
    20.7087  20.7436  20.7953  20.9031  20.9044  21.0191  21.0547  21.1494
    21.1537  21.1657  21.3610  21.5584  21.6175  21.9838  22.3020  22.6456
    23.0264  23.1755

          k = 0.1667 0.0553-0.5000 ( 11356 PWs)   bands (ev):

   -66.8444 -66.8442 -66.7872 -66.7870 -66.7744 -66.7742 -66.7628 -66.7626
   -66.7624 -66.7622 -66.7596 -66.7593 -66.7507 -66.7505 -66.7079 -66.7077
   -33.0987 -33.0987 -33.0846 -33.0844 -33.0842 -33.0840 -33.0816 -33.0815
   -33.0596 -33.0595 -33.0272 -33.0272 -33.0246 -33.0246 -32.9462 -32.9460
   -32.9061 -32.9060 -32.8529 -32.8528 -32.8361 -32.8358 -32.8289 -32.8287
   -32.8177 -32.8176 -32.7886 -32.7884 -32.7594 -32.7591 -32.7531 -32.7530
   -32.7070 -32.7070 -32.6802 -32.6800 -32.6761 -32.6759 -32.6731 -32.6730
   -32.6623 -32.6620 -32.6519 -32.6518 -32.6332 -32.6331 -32.6327 -32.6327
    12.8195  12.8200  15.1438  15.1441  15.6031  15.6035  15.9010  15.9014
    16.0453  16.0456  16.2072  16.2075  16.3048  16.3051  16.3336  16.3340
    16.3398  16.3404  17.1672  17.1674  17.1915  17.1916  17.7033  17.7035
    17.7195  17.7196  17.7197  17.7198  17.8089  17.8093  18.1033  18.1034
    18.1606  18.1607  18.2241  18.2242  18.3508  18.3509  18.3560  18.3562
    18.3570  18.3571  18.3986  18.3988  18.5034  18.5036  19.2342  19.2344
    19.7391  19.7394  19.7687  19.7687  19.8747  19.8749  19.9207  19.9209
    19.9605  19.9606  19.9785  19.9786  20.3036  20.3037  20.4364  20.4367
    20.4495  20.4498  20.5768  20.5770  20.6176  20.6178  20.6563  20.6565
    20.7776  20.7777  20.8635  20.8636  20.9914  20.9916  21.0548  21.0548
    21.2289  21.2291  21.3908  21.3908  21.7912  21.7913  22.4932  22.4934
    23.1622  23.1625

          k = 0.1667 0.1659 0.1667 ( 11365 PWs)   bands (ev):

   -66.8694 -66.7968 -66.7965 -66.7963 -66.7717 -66.7714 -66.7712 -66.7596
   -66.7588 -66.7585 -66.7582 -66.7561 -66.7483 -66.7480 -66.7478 -66.6886
   -33.1548 -33.1547 -33.1539 -33.1310 -33.1310 -33.1304 -33.0130 -33.0124
   -33.0093 -33.0039 -33.0037 -33.0033 -32.9564 -32.9508 -32.9505 -32.9100
   -32.9099 -32.9088 -32.8592 -32.8591 -32.8578 -32.8162 -32.8137 -32.8136
   -32.8056 -32.8042 -32.7877 -32.7876 -32.7862 -32.7838 -32.7814 -32.7813
   -32.7511 -32.7510 -32.7503 -32.7426 -32.6961 -32.6958 -32.6949 -32.6656
   -32.6361 -32.6347 -32.6346 -32.6128 -32.6112 -32.6112 -32.6081 -32.6079
    11.7914  14.7734  14.7942  14.7943  15.4545  15.4548  15.4548  15.6894
    15.6920  15.6920  15.8507  15.8617  16.1938  16.2162  16.2162  16.8640
    17.1649  17.1652  17.2569  17.2615  17.2615  17.2812  17.3154  17.3155
    17.3908  17.4245  17.4246  17.4377  17.5081  17.5275  18.1009  18.1048
    18.1049  18.4502  18.4527  18.4529  18.4666  18.4703  18.8831  18.8831
    18.8871  18.8964  19.0686  19.0686  19.0896  19.2541  19.2543  19.2544
    19.4622  19.4623  19.4913  19.5276  19.5277  19.5459  20.0979  20.0979
    20.1066  20.1644  20.1645  20.1914  20.2729  20.3014  20.3142  20.3143
    20.3441  20.5752  20.5752  20.5867  20.6020  20.6037  20.6164  20.6199
    20.6798  20.7298  20.7299  20.7305  21.0570  21.0863  21.0865  21.2850
    21.2851  21.3001  21.3117  21.3207  22.0317  22.0318  22.0375  22.7471
    22.8104  22.8105

          k = 0.1667 0.1659 0.2778 ( 11392 PWs)   bands (ev):

   -66.8630 -66.8126 -66.7944 -66.7939 -66.7767 -66.7763 -66.7703 -66.7616
   -66.7581 -66.7561 -66.7555 -66.7551 -66.7488 -66.7484 -66.7335 -66.6933
   -33.1429 -33.1419 -33.1373 -33.1189 -33.1040 -33.1034 -33.0343 -33.0313
   -33.0310 -33.0220 -33.0207 -32.9987 -32.9976 -32.9458 -32.9451 -32.9336
   -32.9278 -32.8943 -32.8671 -32.8612 -32.8591 -32.8299 -32.8281 -32.8253
   -32.8196 -32.8132 -32.7895 -32.7754 -32.7733 -32.7593 -32.7571 -32.7562
   -32.7545 -32.7533 -32.7175 -32.7171 -32.6969 -32.6739 -32.6728 -32.6696
   -32.6530 -32.6517 -32.6422 -32.6278 -32.6200 -32.6154 -32.6139 -32.6087
    12.0571  14.1515  14.9166  14.9354  15.4087  15.4112  15.6611  15.8264
    15.8280  15.8743  15.9703  15.9804  16.2541  16.2725  16.3770  16.7856
    16.9409  17.0071  17.1409  17.2683  17.2727  17.2768  17.3613  17.3633
    17.3770  17.3947  17.5372  17.5377  17.5703  17.7296  17.9588  17.9590
    18.2471  18.2695  18.2849  18.3583  18.3759  18.4428  18.6205  18.6354
    18.6375  18.6547  18.8631  19.0019  19.0180  19.0267  19.0387  19.0800
    19.3797  19.4779  19.4850  19.6238  19.6325  19.7787  19.8656  20.0549
    20.0788  20.1766  20.2312  20.2590  20.2853  20.3343  20.3466  20.3479
    20.3698  20.3725  20.5640  20.5650  20.5805  20.6053  20.6160  20.6190
    20.6326  20.8486  20.8944  20.8994  20.9259  20.9911  21.0640  21.0666
    21.0887  21.3644  21.3660  21.3797  21.7706  21.7735  22.6568  22.9515
    23.0090  23.4100

          k = 0.1667 0.1659 0.3889 ( 11392 PWs)   bands (ev):

   -66.8536 -66.8279 -66.7909 -66.7904 -66.7817 -66.7813 -66.7685 -66.7639
   -66.7574 -66.7562 -66.7530 -66.7526 -66.7497 -66.7493 -66.7205 -66.7003
   -33.1224 -33.1216 -33.1119 -33.1014 -33.0695 -33.0691 -33.0633 -33.0630
   -33.0574 -33.0409 -33.0299 -33.0297 -32.9873 -32.9870 -32.9799 -32.9267
   -32.9084 -32.9025 -32.8575 -32.8549 -32.8517 -32.8506 -32.8396 -32.8370
   -32.8224 -32.8137 -32.7990 -32.7683 -32.7663 -32.7580 -32.7565 -32.7347
   -32.7270 -32.7259 -32.7178 -32.6928 -32.6869 -32.6741 -32.6730 -32.6546
   -32.6528 -32.6517 -32.6511 -32.6466 -32.6374 -32.6228 -32.6213 -32.6155
    12.4444  13.5183  15.0865  15.1020  15.3450  15.3513  15.9510  15.9830
    15.9835  16.1220  16.1293  16.1478  16.2406  16.2517  16.3820  16.6400
    16.6406  16.6686  17.1502  17.2296  17.2634  17.2948  17.4049  17.4111
    17.4930  17.5246  17.7060  17.7345  17.8142  17.8301  17.8448  17.9912
    18.1511  18.1530  18.2232  18.2388  18.2995  18.3191  18.3299  18.3442
    18.3636  18.4111  18.5458  18.5654  18.5718  18.5878  19.2158  19.3354
    19.5810  19.6342  19.7253  19.7270  19.7272  19.7390  19.9399  19.9588
    19.9934  20.0098  20.0800  20.1391  20.1602  20.3165  20.3811  20.4379
    20.4933  20.5056  20.5876  20.6009  20.6016  20.6108  20.6445  20.6813
    20.6819  20.7025  20.7524  20.8048  21.0731  21.0816  21.1024  21.1163
    21.1304  21.3358  21.3367  21.3491  21.5162  21.5172  23.1902  23.2419
    23.3470  23.4998

          k = 0.1667 0.1659-0.5000 ( 11392 PWs)   bands (ev):

   -66.8419 -66.8417 -66.7867 -66.7864 -66.7862 -66.7860 -66.7664 -66.7661
   -66.7569 -66.7567 -66.7512 -66.7510 -66.7508 -66.7506 -66.7095 -66.7093
   -33.0951 -33.0949 -33.0944 -33.0944 -33.0805 -33.0803 -33.0795 -33.0793
   -33.0327 -33.0326 -33.0297 -33.0296 -33.0295 -33.0294 -32.9557 -32.9555
   -32.8806 -32.8805 -32.8769 -32.8768 -32.8500 -32.8497 -32.8470 -32.8468
   -32.8080 -32.8079 -32.7775 -32.7774 -32.7626 -32.7623 -32.7607 -32.7605
   -32.6989 -32.6989 -32.6978 -32.6977 -32.6815 -32.6813 -32.6719 -32.6717
   -32.6602 -32.6600 -32.6354 -32.6353 -32.6341 -32.6340 -32.6284 -32.6283
    12.9384  12.9390  15.2388  15.2392  15.2498  15.2502  16.1342  16.1345
    16.1389  16.1391  16.2804  16.2807  16.2986  16.2990  16.3719  16.3724
    16.3980  16.3983  17.1836  17.1838  17.2471  17.2472  17.6618  17.6619
    17.6648  17.6651  17.6654  17.6657  17.6893  17.6894  18.1182  18.1183
    18.1317  18.1318  18.1646  18.1648  18.2379  18.2381  18.2504  18.2506
    18.2850  18.2852  18.2918  18.2919  18.3741  18.3742  19.4148  19.4150
    19.6466  19.6466  19.8040  19.8043  19.8282  19.8283  19.8396  19.8397
    19.9561  19.9563  19.9725  19.9726  20.4071  20.4073  20.4126  20.4128
    20.4411  20.4414  20.5494  20.5496  20.5947  20.5949  20.6990  20.6991
    20.6993  20.6994  20.7195  20.7197  21.2302  21.2302  21.2407  21.2408
    21.2437  21.2439  21.2774  21.2774  21.2802  21.2803  23.3990  23.3992
    23.4450  23.4453

          k = 0.1667 0.2766 0.1667 ( 11394 PWs)   bands (ev):

   -66.8630 -66.8130 -66.7941 -66.7939 -66.7768 -66.7765 -66.7699 -66.7616
   -66.7577 -66.7560 -66.7555 -66.7553 -66.7486 -66.7484 -66.7339 -66.6934
   -33.1431 -33.1430 -33.1366 -33.1184 -33.1042 -33.1042 -33.0346 -33.0323
   -33.0321 -33.0241 -33.0207 -32.9977 -32.9963 -32.9462 -32.9462 -32.9336
   -32.9275 -32.8927 -32.8666 -32.8597 -32.8596 -32.8319 -32.8254 -32.8252
   -32.8184 -32.8126 -32.7910 -32.7734 -32.7733 -32.7606 -32.7574 -32.7573
   -32.7533 -32.7532 -32.7174 -32.7170 -32.6968 -32.6743 -32.6740 -32.6686
   -32.6519 -32.6519 -32.6436 -32.6288 -32.6197 -32.6142 -32.6141 -32.6085
    12.0547  14.1336  14.9336  14.9336  15.4096  15.4096  15.6585  15.8287
    15.8287  15.8694  15.9675  15.9796  16.2713  16.2714  16.3557  16.7797
    16.9386  16.9935  17.1337  17.2464  17.2714  17.2715  17.3340  17.3634
    17.3938  17.3940  17.5558  17.5689  17.5690  17.7473  17.9628  17.9628
    18.2457  18.2762  18.2764  18.3707  18.3891  18.4287  18.6322  18.6322
    18.6369  18.6369  18.8847  19.0031  19.0031  19.0443  19.0449  19.0930
    19.3712  19.4726  19.4727  19.6145  19.6146  19.7983  19.8759  20.0555
    20.0556  20.1565  20.2542  20.2550  20.2550  20.3515  20.3613  20.3626
    20.3705  20.3705  20.5601  20.5629  20.5918  20.6146  20.6268  20.6268
    20.6308  20.8295  20.8980  20.8981  20.9249  21.0071  21.0772  21.0880
    21.0881  21.3578  21.3688  21.3689  21.7688  21.7689  22.6633  23.0053
    23.0053  23.4176

          k = 0.1667 0.2766 0.2778 ( 11384 PWs)   bands (ev):

   -66.8569 -66.8095 -66.8092 -66.7916 -66.7843 -66.7750 -66.7747 -66.7643
   -66.7553 -66.7551 -66.7548 -66.7497 -66.7489 -66.7353 -66.7350 -66.6978
   -33.1365 -33.1266 -33.1256 -33.0960 -33.0954 -33.0732 -33.0468 -33.0450
   -33.0449 -33.0445 -33.0307 -33.0071 -32.9938 -32.9701 -32.9389 -32.9074
   -32.9048 -32.9039 -32.8940 -32.8934 -32.8711 -32.8469 -32.8447 -32.8433
   -32.7980 -32.7883 -32.7870 -32.7810 -32.7795 -32.7583 -32.7581 -32.7432
   -32.7330 -32.7304 -32.7205 -32.7204 -32.6987 -32.6730 -32.6621 -32.6551
   -32.6541 -32.6516 -32.6503 -32.6299 -32.6287 -32.6270 -32.6110 -32.6087
    12.3142  14.3151  14.3297  15.0908  15.2529  15.6226  15.6233  15.9875
    16.0026  16.0070  16.0773  16.1017  16.3757  16.4245  16.4415  16.7532
    16.9332  16.9915  16.9928  17.1969  17.2192  17.3195  17.3484  17.4114
    17.4273  17.4483  17.4503  17.4760  17.7189  17.7333  17.8051  18.0727
    18.0774  18.1667  18.2117  18.2234  18.2732  18.2962  18.3743  18.4431
    18.4994  18.5171  18.6449  18.6680  18.7159  18.7889  18.7952  19.2288
    19.5760  19.5787  19.6153  19.7352  19.8056  19.8236  19.9489  19.9964
    20.1427  20.1534  20.1592  20.1623  20.1662  20.2392  20.2756  20.3028
    20.3308  20.5295  20.5310  20.5337  20.5662  20.5988  20.6060  20.6101
    20.6257  20.7966  20.8131  20.9238  20.9513  21.0631  21.0666  21.0825
    21.0945  21.1799  21.3509  21.4514  21.4532  22.3158  22.3205  23.2761
    23.9911  24.0579

          k = 0.1667 0.2766 0.3889 ( 11388 PWs)   bands (ev):

   -66.8481 -66.8237 -66.8047 -66.7917 -66.7883 -66.7795 -66.7728 -66.7672
   -66.7549 -66.7547 -66.7526 -66.7497 -66.7448 -66.7376 -66.7230 -66.7042
   -33.1213 -33.1081 -33.1028 -33.0851 -33.0723 -33.0666 -33.0639 -33.0594
   -33.0502 -33.0412 -33.0389 -33.0351 -33.0008 -32.9777 -32.9474 -32.9260
   -32.9220 -32.8868 -32.8793 -32.8746 -32.8697 -32.8604 -32.8602 -32.8600
   -32.8192 -32.7962 -32.7870 -32.7734 -32.7706 -32.7627 -32.7553 -32.7455
   -32.7262 -32.7101 -32.7092 -32.6974 -32.6906 -32.6821 -32.6697 -32.6593
   -32.6504 -32.6502 -32.6432 -32.6338 -32.6336 -32.6332 -32.6134 -32.6115
    12.6913  13.7274  14.5551  15.0561  15.2800  15.5633  15.9233  16.1509
    16.1584  16.2183  16.2451  16.2755  16.4062  16.4077  16.4595  16.6522
    16.6810  16.7258  17.1769  17.2053  17.2805  17.2923  17.3267  17.3748
    17.4336  17.5528  17.5541  17.6015  17.6838  17.8348  17.8670  17.8857
    17.9916  18.0507  18.1195  18.1484  18.1771  18.2063  18.2218  18.2391
    18.2618  18.2984  18.3064  18.3252  18.4050  18.4966  19.0064  19.4387
    19.6335  19.7369  19.7991  19.8102  19.8138  19.8506  19.8655  19.9112
    20.0604  20.0618  20.0693  20.1589  20.1808  20.2507  20.3263  20.3910
    20.4442  20.4602  20.4664  20.5437  20.5970  20.5993  20.6353  20.6571
    20.6580  20.6723  20.6735  20.7698  20.8705  20.9833  21.1024  21.1574
    21.2104  21.2240  21.3589  21.3861  21.4443  21.9951  22.9237  23.5929
    24.0895  24.1949

          k = 0.1667 0.2766-0.5000 ( 11384 PWs)   bands (ev):

   -66.8369 -66.8367 -66.7987 -66.7985 -66.7843 -66.7841 -66.7702 -66.7700
   -66.7548 -66.7546 -66.7510 -66.7508 -66.7408 -66.7406 -66.7127 -66.7125
   -33.0991 -33.0990 -33.0864 -33.0863 -33.0730 -33.0728 -33.0723 -33.0722
   -33.0485 -33.0484 -33.0343 -33.0342 -32.9923 -32.9921 -32.9543 -32.9541
   -32.8969 -32.8967 -32.8754 -32.8752 -32.8703 -32.8701 -32.8494 -32.8493
   -32.8148 -32.8147 -32.7930 -32.7929 -32.7677 -32.7674 -32.7349 -32.7347
   -32.7251 -32.7250 -32.6879 -32.6878 -32.6779 -32.6777 -32.6688 -32.6686
   -32.6647 -32.6645 -32.6407 -32.6406 -32.6209 -32.6208 -32.6198 -32.6196
    13.1699  13.1704  14.8155  14.8159  15.4499  15.4502  16.2819  16.2823
    16.3010  16.3014  16.3114  16.3116  16.3644  16.3649  16.4845  16.4848
    16.4962  16.4965  17.2388  17.2389  17.3063  17.3064  17.4730  17.4733
    17.4857  17.4860  17.5661  17.5663  17.7044  17.7045  17.9041  17.9043
    18.0712  18.0713  18.0837  18.0839  18.0867  18.0869  18.1470  18.1471
    18.2040  18.2042  18.2164  18.2165  18.2726  18.2727  19.2941  19.2942
    19.6673  19.6675  19.8201  19.8202  19.9124  19.9127  19.9579  19.9580
    20.0029  20.0030  20.0093  20.0094  20.3595  20.3596  20.3615  20.3618
    20.3942  20.3944  20.5000  20.5003  20.5748  20.5750  20.5974  20.5976
    20.6885  20.6887  20.7346  20.7347  20.8850  20.8850  21.0544  21.0545
    21.3121  21.3122  21.3612  21.3613  21.6771  21.6772  23.5551  23.5554
    23.8895  23.8898

          k = 0.1667 0.3872 0.1667 ( 11385 PWs)   bands (ev):

   -66.8537 -66.8282 -66.7907 -66.7904 -66.7817 -66.7815 -66.7682 -66.7638
   -66.7572 -66.7561 -66.7530 -66.7528 -66.7496 -66.7493 -66.7208 -66.7004
   -33.1229 -33.1228 -33.1113 -33.1010 -33.0700 -33.0700 -33.0643 -33.0642
   -33.0574 -33.0407 -33.0315 -33.0306 -32.9882 -32.9881 -32.9776 -32.9249
   -32.9080 -32.9028 -32.8550 -32.8549 -32.8533 -32.8496 -32.8369 -32.8368
   -32.8215 -32.8131 -32.7999 -32.7663 -32.7662 -32.7563 -32.7563 -32.7345
   -32.7271 -32.7271 -32.7191 -32.6934 -32.6865 -32.6735 -32.6734 -32.6558
   -32.6528 -32.6526 -32.6525 -32.6456 -32.6371 -32.6219 -32.6218 -32.6151
    12.4388  13.5045  15.0984  15.0984  15.3480  15.3480  15.9452  15.9850
    15.9850  16.1143  16.1164  16.1524  16.2508  16.2509  16.3625  16.6303
    16.6403  16.6564  17.1368  17.2041  17.2494  17.2712  17.4073  17.4075
    17.5232  17.5233  17.7300  17.7302  17.8364  17.8466  17.8467  18.0113
    18.1502  18.1503  18.2293  18.2293  18.3163  18.3226  18.3311  18.3626
    18.3627  18.4007  18.5490  18.5491  18.5973  18.6098  19.2246  19.3474
    19.5667  19.6448  19.7133  19.7133  19.7196  19.7196  19.9387  19.9388
    19.9900  20.0007  20.0993  20.1316  20.1316  20.3336  20.4026  20.4475
    20.4965  20.5121  20.5985  20.6111  20.6112  20.6112  20.6578  20.6737
    20.7003  20.7003  20.7668  20.8203  21.0787  21.0788  21.0997  21.1283
    21.1284  21.3301  21.3411  21.3413  21.5130  21.5130  23.2333  23.2333
    23.3528  23.5193

          k = 0.1667 0.3872 0.2778 ( 11392 PWs)   bands (ev):

   -66.8481 -66.8239 -66.8044 -66.7917 -66.7884 -66.7798 -66.7725 -66.7672
   -66.7548 -66.7546 -66.7528 -66.7498 -66.7447 -66.7373 -66.7232 -66.7043
   -33.1216 -33.1092 -33.1021 -33.0846 -33.0729 -33.0676 -33.0648 -33.0594
   -33.0501 -33.0417 -33.0387 -33.0355 -33.0013 -32.9769 -32.9483 -32.9252
   -32.9224 -32.8870 -32.8790 -32.8733 -32.8713 -32.8604 -32.8593 -32.8581
   -32.8181 -32.7962 -32.7877 -32.7719 -32.7703 -32.7619 -32.7561 -32.7454
   -32.7261 -32.7108 -32.7091 -32.6977 -32.6906 -32.6825 -32.6690 -32.6602
   -32.6512 -32.6503 -32.6431 -32.6346 -32.6330 -32.6323 -32.6137 -32.6112
    12.6880  13.7163  14.5655  15.0583  15.2782  15.5618  15.9199  16.1523
    16.1618  16.2129  16.2382  16.2762  16.4067  16.4172  16.4443  16.6456
    16.6750  16.7264  17.1789  17.1924  17.2684  17.2781  17.3169  17.3555
    17.4595  17.5535  17.5688  17.6191  17.6924  17.8288  17.8803  17.8873
    17.9984  18.0491  18.1170  18.1434  18.1695  18.2079  18.2312  18.2473
    18.2812  18.2844  18.3238  18.3256  18.4059  18.4945  19.0130  19.4423
    19.6367  19.7277  19.7973  19.8008  19.8025  19.8440  19.8643  19.9184
    20.0459  20.0575  20.0768  20.1532  20.1577  20.2651  20.3482  20.3974
    20.4469  20.4631  20.4731  20.5565  20.5994  20.6028  20.6274  20.6557
    20.6638  20.6736  20.6804  20.7790  20.8814  20.9812  21.0942  21.1543
    21.2069  21.2275  21.3557  21.3848  21.4457  21.9913  22.9276  23.5884
    24.0745  24.1960

          k = 0.1667 0.3872 0.3889 ( 11391 PWs)   bands (ev):

   -66.8400 -66.8178 -66.8176 -66.8013 -66.7852 -66.7772 -66.7771 -66.7707
   -66.7537 -66.7529 -66.7527 -66.7504 -66.7376 -66.7268 -66.7266 -66.7100
   -33.1119 -33.0903 -33.0895 -33.0737 -33.0733 -33.0684 -33.0646 -33.0642
   -33.0609 -33.0557 -33.0487 -33.0197 -32.9945 -32.9639 -32.9231 -32.9168
   -32.9166 -32.9040 -32.9035 -32.8870 -32.8851 -32.8835 -32.8823 -32.8484
   -32.8127 -32.7888 -32.7865 -32.7857 -32.7791 -32.7783 -32.7675 -32.7269
   -32.7250 -32.6991 -32.6988 -32.6920 -32.6918 -32.6736 -32.6674 -32.6668
   -32.6567 -32.6499 -32.6491 -32.6487 -32.6208 -32.6202 -32.6103 -32.6092
    13.0480  14.0109  14.0184  14.7209  15.5035  15.8563  15.8573  16.2934
    16.3140  16.3859  16.3914  16.4534  16.4609  16.4702  16.4931  16.5429
    16.7008  16.9375  16.9388  17.2038  17.2643  17.3082  17.3633  17.3837
    17.3976  17.4070  17.5513  17.5622  17.5634  17.6329  17.8368  17.9222
    17.9233  17.9235  17.9837  18.0006  18.0601  18.0677  18.0819  18.1123
    18.1422  18.1644  18.1691  18.2532  18.2622  18.6853  18.6881  19.2760
    19.6861  19.8406  19.9057  19.9093  19.9373  19.9677  19.9763  19.9773
    20.0909  20.1516  20.1737  20.1841  20.2140  20.2167  20.2221  20.2383
    20.3766  20.3977  20.3982  20.4551  20.4824  20.5674  20.5736  20.6054
    20.6330  20.6339  20.6836  20.6924  20.8395  20.8963  20.9029  20.9219
    21.3359  21.3382  21.3980  21.4751  21.7373  22.5208  22.5232  23.6280
    23.9993  24.7157

          k = 0.1667 0.3872-0.5000 ( 11388 PWs)   bands (ev):

   -66.8298 -66.8296 -66.8103 -66.8100 -66.7814 -66.7812 -66.7742 -66.7740
   -66.7532 -66.7530 -66.7514 -66.7512 -66.7317 -66.7315 -66.7175 -66.7173
   -33.0952 -33.0951 -33.0772 -33.0771 -33.0686 -33.0685 -33.0673 -33.0672
   -33.0622 -33.0621 -33.0416 -33.0415 -32.9496 -32.9495 -32.9429 -32.9427
   -32.9072 -32.9071 -32.9018 -32.9016 -32.8911 -32.8910 -32.8582 -32.8581
   -32.8173 -32.8172 -32.7840 -32.7839 -32.7729 -32.7727 -32.7546 -32.7545
   -32.7116 -32.7114 -32.6779 -32.6778 -32.6758 -32.6756 -32.6696 -32.6694
   -32.6683 -32.6681 -32.6486 -32.6485 -32.6128 -32.6127 -32.6125 -32.6124
    13.5001  13.5006  14.3585  14.3590  15.7152  15.7155  16.1939  16.1943
    16.3970  16.3974  16.4099  16.4104  16.5206  16.5207  16.6074  16.6077
    16.6981  16.6984  17.2336  17.2339  17.2973  17.2976  17.3017  17.3018
    17.3153  17.3154  17.4634  17.4636  17.7154  17.7156  17.7574  17.7575
    17.8726  17.8728  17.9287  17.9290  17.9848  17.9849  18.0104  18.0107
    18.1692  18.1694  18.2059  18.2060  18.3935  18.3935  18.9500  18.9500
    19.8825  19.8826  19.9424  19.9425  20.0300  20.0302  20.0630  20.0632
    20.0896  20.0897  20.0934  20.0936  20.1974  20.1976  20.2974  20.2975
    20.3083  20.3085  20.4448  20.4450  20.4698  20.4700  20.5591  20.5591
    20.6176  20.6178  20.6656  20.6658  20.7647  20.7648  20.9050  20.9051
    21.3969  21.3970  21.4344  21.4345  22.1256  22.1258  23.0705  23.0707
    24.4007  24.4010

          k = 0.1667-0.4978 0.1667 ( 11416 PWs)   bands (ev):

   -66.8421 -66.8419 -66.7865 -66.7864 -66.7864 -66.7861 -66.7662 -66.7660
   -66.7567 -66.7565 -66.7511 -66.7510 -66.7510 -66.7507 -66.7097 -66.7096
   -33.0960 -33.0959 -33.0958 -33.0958 -33.0803 -33.0801 -33.0791 -33.0789
   -33.0339 -33.0339 -33.0306 -33.0305 -33.0305 -33.0305 -32.9537 -32.9534
   -32.8800 -32.8799 -32.8777 -32.8776 -32.8472 -32.8471 -32.8471 -32.8469
   -32.8084 -32.8083 -32.7769 -32.7769 -32.7606 -32.7606 -32.7605 -32.7604
   -32.6990 -32.6990 -32.6989 -32.6988 -32.6829 -32.6828 -32.6727 -32.6726
   -32.6598 -32.6596 -32.6350 -32.6350 -32.6348 -32.6348 -32.6280 -32.6279
    12.9291  12.9292  15.2457  15.2457  15.2458  15.2458  16.1393  16.1393
    16.1393  16.1394  16.2639  16.2639  16.2896  16.2897  16.3749  16.3751
    16.3879  16.3880  17.1637  17.1638  17.2292  17.2293  17.6632  17.6633
    17.6633  17.6634  17.6881  17.6881  17.6882  17.6883  18.1357  18.1358
    18.1358  18.1359  18.1887  18.1887  18.2405  18.2406  18.2406  18.2407
    18.3043  18.3044  18.3066  18.3066  18.3671  18.3672  19.4255  19.4257
    19.6567  19.6568  19.7859  19.7861  19.8225  19.8225  19.8226  19.8227
    19.9478  19.9478  19.9479  19.9479  20.4179  20.4181  20.4302  20.4302
[...]
   -32.9455 -32.9454 -32.9336 -32.9334 -32.9271 -32.9271 -32.8828 -32.8827
   -32.7892 -32.7891 -32.7471 -32.7470 -32.7364 -32.7363 -32.7341 -32.7341
   -32.7090 -32.7087 -32.6932 -32.6931 -32.6733 -32.6732 -32.6731 -32.6728
   -32.6700 -32.6697 -32.6445 -32.6443 -32.6266 -32.6266 -32.6242 -32.6242
    13.7368  13.7373  14.5948  14.5952  15.3349  15.3353  15.9851  15.9855
    16.5705  16.5708  16.5798  16.5801  16.7236  16.7239  16.7520  16.7525
    16.7878  16.7881  17.2389  17.2393  17.2615  17.2618  17.3434  17.3436
    17.3576  17.3577  17.5408  17.5410  17.5513  17.5514  17.6735  17.6737
    17.7264  17.7266  17.7606  17.7607  17.8720  17.8721  17.9041  17.9043
    17.9601  17.9601  18.0358  18.0359  18.0787  18.0788  18.5692  18.5692
    20.1062  20.1065  20.1186  20.1186  20.1370  20.1371  20.1428  20.1430
    20.1911  20.1912  20.2255  20.2256  20.3420  20.3423  20.3635  20.3637
    20.4135  20.4137  20.4391  20.4392  20.4834  20.4836  20.5252  20.5254
    20.5547  20.5549  20.7522  20.7523  20.8677  20.8678  20.9372  20.9372
    21.1919  21.1920  21.2134  21.2134  21.6573  21.6574  22.5531  22.5532
    25.4404  25.4407

          k = 0.3889 0.3872 0.3889 ( 11416 PWs)   bands (ev):

   -66.8280 -66.8088 -66.8087 -66.8085 -66.7944 -66.7942 -66.7941 -66.7833
   -66.7455 -66.7404 -66.7402 -66.7401 -66.7315 -66.7314 -66.7312 -66.7176
   -33.0724 -33.0723 -33.0714 -33.0587 -33.0583 -33.0580 -33.0404 -33.0207
   -33.0181 -33.0137 -33.0135 -33.0135 -33.0067 -33.0056 -32.9610 -32.9610
   -32.9595 -32.9528 -32.9526 -32.9524 -32.9460 -32.9444 -32.9441 -32.8760
   -32.7894 -32.7361 -32.7360 -32.7352 -32.7220 -32.7218 -32.7215 -32.7092
   -32.7083 -32.6966 -32.6964 -32.6964 -32.6947 -32.6941 -32.6940 -32.6756
   -32.6481 -32.6471 -32.6470 -32.6421 -32.6417 -32.6379 -32.6377 -32.6368
    13.6361  14.5421  14.5484  14.5484  15.2786  15.2786  15.2818  16.0630
    16.6426  16.6533  16.7145  16.7210  16.7210  16.8816  16.8906  16.8906
    16.9146  16.9146  16.9192  17.0058  17.3476  17.3613  17.4143  17.4310
    17.4858  17.5067  17.5069  17.5148  17.5149  17.5286  17.6031  17.6130
    17.6130  17.7251  17.7252  17.7401  17.7562  17.7597  17.7598  17.7913
    17.7914  17.8018  17.9334  17.9534  18.0454  18.0454  18.0469  18.5170
    20.0936  20.1013  20.1014  20.2331  20.2596  20.2618  20.2657  20.2657
    20.2663  20.2664  20.2764  20.2828  20.3250  20.3251  20.3420  20.4435
    20.4454  20.4736  20.4736  20.4741  20.4845  20.4953  20.4955  20.5639
    20.5831  20.8695  20.8882  20.8888  20.8889  20.8953  20.9617  20.9618
    20.9758  21.0020  21.0194  21.0195  21.6374  21.6384  21.6385  22.5694
    26.2845  26.3447

          k = 0.3889 0.3872-0.5000 ( 11410 PWs)   bands (ev):

   -66.8191 -66.8189 -66.8022 -66.8020 -66.8019 -66.8017 -66.7893 -66.7891
   -66.7426 -66.7424 -66.7355 -66.7353 -66.7352 -66.7351 -66.7239 -66.7236
   -33.0613 -33.0611 -33.0602 -33.0601 -33.0424 -33.0422 -33.0416 -33.0415
   -33.0269 -33.0268 -32.9930 -32.9928 -32.9832 -32.9831 -32.9831 -32.9829
   -32.9765 -32.9764 -32.9630 -32.9628 -32.9609 -32.9608 -32.9141 -32.9140
   -32.7617 -32.7616 -32.7164 -32.7163 -32.7136 -32.7135 -32.7131 -32.7129
   -32.7043 -32.7042 -32.7041 -32.7039 -32.6828 -32.6827 -32.6752 -32.6750
   -32.6666 -32.6664 -32.6448 -32.6448 -32.6439 -32.6438 -32.6380 -32.6380
    14.0660  14.0665  14.9064  14.9069  14.9114  14.9119  15.6681  15.6685
    16.7714  16.7719  16.8259  16.8262  16.8320  16.8322  16.8368  16.8371
    16.9798  16.9800  17.2055  17.2058  17.2127  17.2130  17.3832  17.3834
    17.4294  17.4295  17.4724  17.4727  17.4947  17.4949  17.6018  17.6020
    17.6168  17.6169  17.7264  17.7265  17.7345  17.7346  17.7840  17.7841
    17.7862  17.7863  17.8274  17.8276  17.8617  17.8618  18.2117  18.2118
    20.1910  20.1912  20.2024  20.2027  20.2139  20.2140  20.3281  20.3281
    20.3410  20.3411  20.3525  20.3527  20.3792  20.3795  20.4453  20.4455
    20.4616  20.4618  20.4623  20.4625  20.4685  20.4687  20.5494  20.5496
    20.5845  20.5846  20.7376  20.7377  20.9536  20.9536  20.9723  20.9724
    20.9880  20.9881  21.2543  21.2544  21.2576  21.2577  22.0955  22.0957
    26.6036  26.6039

          k = 0.3889-0.4978 0.3889 ( 11416 PWs)   bands (ev):

   -66.8192 -66.8190 -66.8021 -66.8020 -66.8020 -66.8017 -66.7892 -66.7890
   -66.7425 -66.7424 -66.7354 -66.7354 -66.7353 -66.7350 -66.7239 -66.7237
   -33.0614 -33.0613 -33.0612 -33.0611 -33.0427 -33.0427 -33.0415 -33.0413
   -33.0270 -33.0269 -32.9915 -32.9913 -32.9832 -32.9832 -32.9832 -32.9830
   -32.9776 -32.9776 -32.9615 -32.9614 -32.9613 -32.9612 -32.9141 -32.9141
   -32.7614 -32.7613 -32.7162 -32.7161 -32.7135 -32.7135 -32.7135 -32.7133
   -32.7041 -32.7040 -32.7039 -32.7038 -32.6831 -32.6830 -32.6759 -32.6758
   -32.6668 -32.6667 -32.6445 -32.6444 -32.6443 -32.6443 -32.6373 -32.6373
    14.0628  14.0629  14.9093  14.9093  14.9094  14.9095  15.6688  15.6689
    16.7785  16.7787  16.8152  16.8153  16.8392  16.8393  16.8393  16.8394
    16.9718  16.9718  17.2013  17.2014  17.2014  17.2015  17.3777  17.3778
    17.4140  17.4141  17.4851  17.4851  17.5082  17.5083  17.6223  17.6223
    17.6224  17.6225  17.7179  17.7180  17.7181  17.7181  17.7896  17.7897
    17.7897  17.7897  17.8447  17.8449  17.8481  17.8482  18.2141  18.2142
    20.1813  20.1815  20.2040  20.2040  20.2040  20.2040  20.3318  20.3319
    20.3319  20.3320  20.3608  20.3610  20.3792  20.3793  20.4365  20.4366
    20.4625  20.4626  20.4705  20.4705  20.4706  20.4706  20.5534  20.5536
    20.6008  20.6008  20.7525  20.7525  20.9642  20.9642  20.9643  20.9643
    20.9723  20.9723  21.2547  21.2548  21.2548  21.2549  22.0950  22.0951
    26.6445  26.6445

          k = 0.3889-0.4978-0.5000 ( 11424 PWs)   bands (ev):

   -66.8114 -66.8112 -66.8111 -66.8110 -66.7962 -66.7960 -66.7959 -66.7958
   -66.7386 -66.7384 -66.7384 -66.7382 -66.7292 -66.7290 -66.7289 -66.7288
   -33.0465 -33.0465 -33.0463 -33.0462 -33.0418 -33.0416 -33.0416 -33.0414
   -33.0050 -33.0048 -33.0048 -33.0047 -32.9876 -32.9874 -32.9874 -32.9872
   -32.9839 -32.9838 -32.9837 -32.9835 -32.9488 -32.9486 -32.9485 -32.9485
   -32.7363 -32.7361 -32.7360 -32.7360 -32.7026 -32.7025 -32.7024 -32.7022
   -32.6964 -32.6963 -32.6962 -32.6962 -32.6785 -32.6784 -32.6782 -32.6782
   -32.6653 -32.6652 -32.6650 -32.6650 -32.6445 -32.6444 -32.6443 -32.6441
    14.4679  14.4681  14.4684  14.4685  15.2868  15.2869  15.2872  15.2873
    16.8412  16.8413  16.8415  16.8418  17.0382  17.0383  17.0385  17.0386
    17.1231  17.1231  17.1233  17.1234  17.1423  17.1424  17.1426  17.1427
    17.5307  17.5309  17.5310  17.5310  17.5493  17.5494  17.5494  17.5497
    17.5511  17.5512  17.5513  17.5514  17.7121  17.7123  17.7124  17.7124
    17.7666  17.7667  17.7667  17.7668  17.9180  17.9180  17.9180  17.9181
    20.2379  20.2379  20.2381  20.2382  20.2986  20.2987  20.2988  20.2989
    20.3834  20.3835  20.3835  20.3837  20.4516  20.4516  20.4518  20.4519
    20.4599  20.4600  20.4601  20.4602  20.5170  20.5171  20.5172  20.5172
    20.7866  20.7867  20.7867  20.7868  20.8936  20.8936  20.8936  20.8938
    20.9338  20.9339  20.9340  20.9341  21.6667  21.6667  21.6668  21.6669
    27.2007  27.2009

          k =-0.5000 0.0553-0.5000 ( 11412 PWs)   bands (ev):

   -66.8226 -66.8225 -66.8223 -66.8221 -66.7693 -66.7693 -66.7691 -66.7689
   -66.7606 -66.7605 -66.7603 -66.7602 -66.7227 -66.7226 -66.7225 -66.7223
   -33.0900 -33.0899 -33.0896 -33.0896 -33.0718 -33.0716 -33.0716 -33.0715
   -33.0654 -33.0652 -33.0652 -33.0651 -32.9059 -32.9057 -32.9057 -32.9054
   -32.8931 -32.8931 -32.8929 -32.8929 -32.8626 -32.8626 -32.8622 -32.8622
   -32.8201 -32.8201 -32.8198 -32.8198 -32.8048 -32.8048 -32.8046 -32.8046
   -32.6969 -32.6967 -32.6966 -32.6963 -32.6633 -32.6631 -32.6631 -32.6630
   -32.6590 -32.6588 -32.6588 -32.6587 -32.6036 -32.6035 -32.6032 -32.6032
    13.7961  13.7964  13.7965  13.7969  16.2344  16.2346  16.2347  16.2349
    16.3356  16.3357  16.3358  16.3361  16.4441  16.4443  16.4443  16.4445
    16.9531  16.9533  16.9534  16.9539  17.2818  17.2820  17.2821  17.2823
    17.3277  17.3279  17.3279  17.3281  17.8565  17.8568  17.8568  17.8568
    17.8787  17.8787  17.8788  17.8789  17.9632  17.9632  17.9633  17.9635
    18.3235  18.3236  18.3237  18.3238  18.9037  18.9037  18.9038  18.9038
    19.7858  19.7858  19.7859  19.7860  20.0314  20.0317  20.0317  20.0317
    20.0957  20.0958  20.0958  20.0961  20.1732  20.1733  20.1734  20.1737
    20.1742  20.1742  20.1743  20.1745  20.4304  20.4305  20.4307  20.4309
    20.6809  20.6810  20.6811  20.6812  20.7384  20.7384  20.7385  20.7386
    21.5946  21.5947  21.5949  21.5949  23.2022  23.2022  23.2023  23.2025
    23.9614  23.9615

          k =-0.5000 0.1659-0.5000 ( 11388 PWs)   bands (ev):

   -66.8206 -66.8205 -66.8203 -66.8202 -66.7783 -66.7783 -66.7781 -66.7779
   -66.7524 -66.7524 -66.7522 -66.7520 -66.7238 -66.7237 -66.7235 -66.7233
   -33.0823 -33.0823 -33.0820 -33.0820 -33.0700 -33.0699 -33.0699 -33.0698
   -33.0509 -33.0508 -33.0507 -33.0507 -32.9280 -32.9278 -32.9278 -32.9276
   -32.9046 -32.9046 -32.9043 -32.9043 -32.9038 -32.9038 -32.9036 -32.9036
   -32.7856 -32.7855 -32.7854 -32.7854 -32.7784 -32.7784 -32.7781 -32.7781
   -32.6929 -32.6927 -32.6927 -32.6923 -32.6705 -32.6703 -32.6702 -32.6702
   -32.6580 -32.6577 -32.6577 -32.6576 -32.6107 -32.6106 -32.6103 -32.6103
    13.9148  13.9151  13.9153  13.9156  15.9914  15.9917  15.9918  15.9920
    16.4264  16.4265  16.4266  16.4269  16.6578  16.6580  16.6580  16.6582
    16.9708  16.9710  16.9711  16.9716  17.2400  17.2402  17.2402  17.2405
    17.3827  17.3830  17.3830  17.3831  17.7214  17.7214  17.7215  17.7216
    17.8261  17.8264  17.8264  17.8264  17.9176  17.9176  17.9177  17.9179
    18.1829  18.1829  18.1831  18.1831  18.6276  18.6277  18.6277  18.6277
    20.0157  20.0158  20.0159  20.0160  20.1090  20.1091  20.1091  20.1094
    20.2020  20.2020  20.2021  20.2024  20.2180  20.2181  20.2182  20.2184
    20.2377  20.2378  20.2378  20.2379  20.4222  20.4222  20.4224  20.4227
    20.6161  20.6162  20.6163  20.6164  20.7844  20.7844  20.7845  20.7845
    21.4524  21.4524  21.4526  21.4526  22.5947  22.5948  22.5948  22.5950
    24.8890  24.8892

          k =-0.5000 0.2766-0.5000 ( 11396 PWs)   bands (ev):

   -66.8167 -66.8167 -66.8165 -66.8163 -66.7875 -66.7874 -66.7872 -66.7871
   -66.7451 -66.7450 -66.7448 -66.7446 -66.7259 -66.7258 -66.7256 -66.7254
   -33.0672 -33.0671 -33.0668 -33.0668 -33.0599 -33.0597 -33.0597 -33.0596
   -33.0303 -33.0302 -33.0301 -33.0301 -32.9582 -32.9581 -32.9580 -32.9578
   -32.9452 -32.9452 -32.9448 -32.9448 -32.9232 -32.9231 -32.9230 -32.9230
   -32.7607 -32.7606 -32.7605 -32.7605 -32.7392 -32.7392 -32.7389 -32.7389
   -32.6863 -32.6861 -32.6861 -32.6858 -32.6814 -32.6812 -32.6811 -32.6811
   -32.6601 -32.6599 -32.6598 -32.6597 -32.6246 -32.6245 -32.6242 -32.6242
    14.1451  14.1454  14.1455  14.1459  15.6755  15.6758  15.6759  15.6762
    16.5993  16.5994  16.5995  16.5998  16.8927  16.8929  16.8930  16.8931
    17.0040  17.0042  17.0043  17.0048  17.1968  17.1970  17.1970  17.1974
    17.4491  17.4494  17.4494  17.4495  17.5913  17.5913  17.5915  17.5915
    17.7515  17.7515  17.7516  17.7518  17.7696  17.7699  17.7699  17.7699
    17.9791  17.9791  17.9792  17.9792  18.2725  18.2726  18.2726  18.2726
    20.1702  20.1703  20.1704  20.1706  20.2462  20.2462  20.2463  20.2466
    20.2794  20.2794  20.2795  20.2795  20.3167  20.3168  20.3168  20.3170
    20.4052  20.4052  20.4054  20.4057  20.5375  20.5375  20.5376  20.5377
    20.5377  20.5377  20.5378  20.5379  20.8011  20.8011  20.8012  20.8012
    21.2170  21.2171  21.2172  21.2172  22.0983  22.0984  22.0984  22.0986
    25.9701  25.9703

          k =-0.5000 0.3872-0.5000 ( 11428 PWs)   bands (ev):

   -66.8113 -66.8112 -66.8110 -66.8109 -66.7963 -66.7962 -66.7960 -66.7958
   -66.7387 -66.7386 -66.7384 -66.7382 -66.7291 -66.7290 -66.7288 -66.7286
   -33.0451 -33.0451 -33.0447 -33.0447 -33.0423 -33.0421 -33.0421 -33.0420
   -33.0049 -33.0048 -33.0047 -33.0047 -32.9893 -32.9891 -32.9891 -32.9889
   -32.9828 -32.9828 -32.9825 -32.9825 -32.9490 -32.9489 -32.9488 -32.9488
   -32.7363 -32.7362 -32.7361 -32.7361 -32.7030 -32.7030 -32.7027 -32.7027
   -32.6960 -32.6959 -32.6958 -32.6958 -32.6786 -32.6784 -32.6784 -32.6781
   -32.6646 -32.6644 -32.6644 -32.6642 -32.6453 -32.6453 -32.6449 -32.6449
    14.4707  14.4710  14.4712  14.4715  15.2848  15.2851  15.2853  15.2856
    16.8348  16.8350  16.8350  16.8353  17.0484  17.0486  17.0487  17.0491
    17.1226  17.1228  17.1228  17.1230  17.1495  17.1497  17.1498  17.1501
    17.5266  17.5269  17.5269  17.5270  17.5422  17.5422  17.5423  17.5425
    17.5578  17.5578  17.5580  17.5580  17.6947  17.6950  17.6950  17.6950
    17.7798  17.7798  17.7799  17.7799  17.9145  17.9145  17.9145  17.9146
    20.2515  20.2516  20.2517  20.2520  20.2950  20.2950  20.2952  20.2955
    20.3777  20.3777  20.3779  20.3781  20.4456  20.4457  20.4458  20.4461
    20.4754  20.4756  20.4756  20.4757  20.5052  20.5052  20.5053  20.5053
    20.7676  20.7676  20.7677  20.7677  20.8918  20.8919  20.8919  20.8920
    20.9478  20.9479  20.9480  20.9480  21.6683  21.6684  21.6684  21.6685
    27.1555  27.1558

          k =-0.5000-0.4978-0.5000 ( 11392 PWs)   bands (ev):

   -66.8044 -66.8043 -66.8042 -66.8042 -66.8042 -66.8040 -66.8038 -66.8038
   -66.7334 -66.7333 -66.7332 -66.7332 -66.7332 -66.7329 -66.7328 -66.7328
   -33.0184 -33.0182 -33.0181 -33.0180 -33.0180 -33.0180 -33.0179 -33.0178
   -33.0164 -33.0163 -33.0163 -33.0162 -33.0161 -33.0161 -33.0158 -33.0158
   -32.9770 -32.9769 -32.9767 -32.9767 -32.9767 -32.9765 -32.9765 -32.9765
   -32.7145 -32.7144 -32.7143 -32.7143 -32.7143 -32.7141 -32.7141 -32.7140
   -32.6716 -32.6716 -32.6715 -32.6715 -32.6714 -32.6714 -32.6711 -32.6711
   -32.6710 -32.6707 -32.6706 -32.6705 -32.6705 -32.6705 -32.6705 -32.6703
    14.8646  14.8649  14.8651  14.8651  14.8652  14.8653  14.8655  14.8656
    17.0861  17.0862  17.0862  17.0863  17.0863  17.0864  17.0865  17.0867
    17.0989  17.0989  17.0990  17.0991  17.0992  17.0992  17.0994  17.0998
    17.6012  17.6012  17.6012  17.6012  17.6013  17.6013  17.6013  17.6014
    17.6107  17.6109  17.6111  17.6111  17.6111  17.6111  17.6112  17.6112
    17.6286  17.6287  17.6287  17.6287  17.6288  17.6288  17.6289  17.6291
    20.3403  20.3403  20.3405  20.3405  20.3405  20.3407  20.3407  20.3410
    20.3468  20.3470  20.3470  20.3470  20.3471  20.3472  20.3473  20.3474
    20.6702  20.6704  20.6704  20.6704  20.6704  20.6705  20.6706  20.6707
    20.6906  20.6909  20.6909  20.6909  20.6909  20.6909  20.6910  20.6910
    21.2709  21.2710  21.2710  21.2710  21.2710  21.2710  21.2711  21.2713
    28.3273  28.3281

     the Fermi energy is    20.4101 ev

!    total energy              =   -5267.70887087 Ry
     Harris-Foulkes estimate   =   -5267.70887500 Ry
     estimated scf accuracy    <       0.00000596 Ry

     total all-electron energy =    -40728.453400 Ry

     The total energy is the sum of the following terms:

     one-electron contribution =   -1626.53940597 Ry
     hartree contribution      =     991.41170529 Ry
     xc contribution           =    -442.91250185 Ry
     ewald contribution        =   -2864.77755975 Ry
     one-center paw contrib.   =   -1324.75912624 Ry
     smearing contrib. (-TS)   =      -0.13198235 Ry

     convergence has been achieved in  13 iterations

     Forces acting on atoms (cartesian axes, Ry/au):

     atom    1 type  1   force =     0.00000000   -0.00000000    0.00000000
     atom    2 type  1   force =     0.00005485   -0.00019169    0.00005485
     atom    3 type  1   force =     0.00000000    0.00000000    0.00000000
     atom    4 type  1   force =     0.00005485   -0.00019169   -0.00005485
     atom    5 type  1   force =     0.00000000   -0.00000000    0.00000000
     atom    6 type  1   force =     0.00005485    0.00019169    0.00005485
     atom    7 type  1   force =     0.00000000   -0.00000000    0.00000000
     atom    8 type  1   force =     0.00005485    0.00019169   -0.00005485
     atom    9 type  1   force =     0.00000000    0.00000000    0.00000000
     atom   10 type  1   force =    -0.00005485   -0.00019169    0.00005485
     atom   11 type  1   force =     0.00000000    0.00000000    0.00000000
     atom   12 type  1   force =    -0.00005485   -0.00019169   -0.00005485
     atom   13 type  1   force =     0.00000000    0.00000000    0.00000000
     atom   14 type  1   force =    -0.00005485    0.00019169    0.00005485
     atom   15 type  1   force =     0.00000000   -0.00000000    0.00000000
     atom   16 type  1   force =    -0.00005485    0.00019169   -0.00005485

     Total force =     0.000585     Total SCF correction =     0.003616
     SCF correction compared to forces is large: reduce conv_thr to get better values


     Computing stress (Cartesian axis) and pressure

          total   stress  (Ry/bohr**3)                   (kbar)     P=  -20.40
  -0.00016363   0.00000000   0.00000000        -24.07      0.00      0.00
   0.00000000  -0.00008877   0.00000000          0.00    -13.06      0.00
   0.00000000   0.00000000  -0.00016363          0.00      0.00    -24.07


     Writing output data file ONsbUFFtyDvgpmDT.save/
 
     init_run     :      6.49s CPU      6.79s WALL (       1 calls)
     electrons    :    283.14s CPU    292.90s WALL (       1 calls)
     forces       :      2.35s CPU      2.58s WALL (       1 calls)
     stress       :      5.96s CPU      6.04s WALL (       1 calls)

     Called by init_run:
     wfcinit      :      6.12s CPU      6.38s WALL (       1 calls)
     potinit      :      0.13s CPU      0.15s WALL (       1 calls)
     hinit0       :      0.16s CPU      0.17s WALL (       1 calls)

     Called by electrons:
     c_bands      :    253.04s CPU    260.87s WALL (      14 calls)
     sum_band     :     28.69s CPU     30.25s WALL (      14 calls)
     v_of_rho     :      0.26s CPU      0.40s WALL (      14 calls)
     newd         :      0.19s CPU      0.25s WALL (      14 calls)
     PAW_pot      :      0.96s CPU      1.04s WALL (      14 calls)
     mix_rho      :      0.06s CPU      0.10s WALL (      14 calls)

     Called by c_bands:
     init_us_2    :      1.46s CPU      1.50s WALL (    2325 calls)
     cegterg      :    245.84s CPU    253.59s WALL (    1050 calls)

     Called by sum_band:
     sum_band:bec :      0.42s CPU      0.43s WALL (    1050 calls)
     addusdens    :      0.20s CPU      0.26s WALL (      14 calls)

     Called by *egterg:
     h_psi        :    112.96s CPU    117.75s WALL (    3144 calls)
     s_psi        :      6.01s CPU      6.05s WALL (    3144 calls)
     g_psi        :      0.24s CPU      0.24s WALL (    2019 calls)
     cdiaghg      :    103.70s CPU    104.06s WALL (    2994 calls)

     Called by h_psi:
     h_psi:pot    :    112.33s CPU    117.11s WALL (    3144 calls)
     h_psi:calbec :      9.06s CPU     10.60s WALL (    3144 calls)
     vloc_psi     :     97.15s CPU    100.35s WALL (    3144 calls)
     add_vuspsi   :      6.09s CPU      6.14s WALL (    3144 calls)

     General routines
     calbec       :     14.59s CPU     17.07s WALL (    4569 calls)
     fft          :      0.30s CPU      0.56s WALL (     207 calls)
     ffts         :      0.02s CPU      0.08s WALL (      28 calls)
     fftw         :    113.33s CPU    117.04s WALL (  871736 calls)
     interpolate  :      0.02s CPU      0.05s WALL (      14 calls)
 
     Parallel routines
     fft_scatt_xy :      7.56s CPU      7.79s WALL (  871971 calls)
     fft_scatt_yz :     75.97s CPU     78.77s WALL (  871971 calls)
 
     PWSCF        :  5m 3.26s CPU     5m21.39s WALL

 
   This run was terminated on:   7:46:41   5Sep2020            

=------------------------------------------------------------------------------=
   JOB DONE.
=------------------------------------------------------------------------------=
