--------------------------------------------------------------------------
WARNING: There was an error initializing an OpenFabrics device.

  Local host:   bear-pg0211u07b
  Local device: mlx5_0
--------------------------------------------------------------------------

     Program PWSCF v.6.3 starts on  5Sep2020 at  7:35:59 

     This program is part of the open-source Quantum ESPRESSO suite
     for quantum simulation of materials; please cite
         "P. Giannozzi et al., J. Phys.:Condens. Matter 21 395502 (2009);
         "P. Giannozzi et al., J. Phys.:Condens. Matter 29 465901 (2017);
          URL http://www.quantum-espresso.org", 
     in publications or presentations arising from this work. More details at
     http://www.quantum-espresso.org/quote

     Parallel version (MPI & OpenMP), running on      40 processor cores
     Number of MPI processes:                40
     Threads/MPI process:                     1

     MPI processes distributed on     1 nodes
     R & G space division:  proc/nbgrp/npool/nimage =      40
     Reading input from wd/ec/ec_2_007.in
Warning: card &IONS ignored
Warning: card ION_DYNAMICS = 'BFGS', ignored
Warning: card / ignored
Warning: card &CELL ignored
Warning: card CELL_DYNAMICS = 'BFGS', ignored
Warning: card CELL_FACTOR = 2.0, ignored
Warning: card PRESS = 0.0, ignored
Warning: card / ignored

     Current dimensions of program PWSCF are:
     Max number of different atomic species (ntypx) = 10
     Max number of k-points (npk) =  40000
     Max angular momentum in pseudopotentials (lmaxx) =  3
               file Fe.pbe-spn-kjpaw_psl.1.0.0.UPF: wavefunction(s)  3P 3D renormalized

     Subspace diagonalization in iterative solution of the eigenvalue problem:
     a serial algorithm will be used

 
     Parallelization info
     --------------------
     sticks:   dense  smooth     PW     G-vecs:    dense   smooth      PW
     Min          92      61     17                 4238     2275     339
     Max          93      62     18                 4245     2280     343
     Sum        3709    2445    681               169661    91079   13613
 


     bravais-lattice index     =            0
     lattice parameter (alat)  =      10.3915  a.u.
     unit-cell volume          =    1126.3052 (a.u.)^3
     number of atoms/cell      =           16
     number of atomic types    =            1
     number of electrons       =       256.00
     number of Kohn-Sham states=          154
     kinetic-energy cutoff     =      71.0000  Ry
     charge density cutoff     =     430.0000  Ry
     convergence threshold     =      5.0E-05
     mixing beta               =       0.1000
     number of iterations used =           10  plain     mixing
     Exchange-correlation      = SLA PW PBX PBC ( 1  4  3  4 0 0)

     celldm(1)=  10.391466  celldm(2)=   0.000000  celldm(3)=   0.000000
     celldm(4)=   0.000000  celldm(5)=   0.000000  celldm(6)=   0.000000

     crystal axes: (cart. coord. in units of alat)
               a(1) = (   1.000000   0.000000   0.000000 )  
               a(2) = (   0.000000   1.003750   0.000000 )  
               a(3) = (   0.000000   0.000000   1.000000 )  

     reciprocal axes: (cart. coord. in units 2 pi/alat)
               b(1) = (  1.000000  0.000000  0.000000 )  
               b(2) = (  0.000000  0.996264  0.000000 )  
               b(3) = (  0.000000  0.000000  1.000000 )  


     PseudoPot. # 1 for Fe read from file:
     /rds/homes/b/bxp912/pp/Fe.pbe-spn-kjpaw_psl.1.0.0.UPF
     MD5 check sum: 42f43b795421b414b0dc916aa790dbcb
     Pseudo is Projector augmented-wave + core cor, Zval = 16.0
     Generated using "atomic" code by A. Dal Corso v.6.3
     Shape of augmentation charge: PSQ
     Using radial grid of 1191 points,  6 beta functions with: 
                l(1) =   0
                l(2) =   0
                l(3) =   1
                l(4) =   1
                l(5) =   2
                l(6) =   2
     Q(r) pseudized with 0 coefficients 


     atomic species   valence    mass     pseudopotential
        Fe            16.00    55.84500     Fe( 1.00)

     16 Sym. Ops., with inversion, found



   Cartesian axes

     site n.     atom                  positions (alat units)
         1           Fe  tau(   1) = (   0.0000000   0.0000000   0.0000000  )
         2           Fe  tau(   2) = (   0.2500089   0.2509464   0.2500089  )
         3           Fe  tau(   3) = (   0.0000000   0.0000000   0.4999995  )
         4           Fe  tau(   4) = (   0.2500089   0.2509464   0.7499911  )
         5           Fe  tau(   5) = (   0.0000000   0.5018751   0.0000000  )
         6           Fe  tau(   6) = (   0.2500089   0.7528037   0.2500089  )
         7           Fe  tau(   7) = (   0.0000000   0.5018751   0.4999995  )
         8           Fe  tau(   8) = (   0.2500089   0.7528037   0.7499911  )
         9           Fe  tau(   9) = (   0.5000001   0.0000000   0.0000000  )
        10           Fe  tau(  10) = (   0.7499912   0.2509464   0.2500089  )
        11           Fe  tau(  11) = (   0.5000001   0.0000000   0.4999995  )
        12           Fe  tau(  12) = (   0.7499912   0.2509464   0.7499911  )
        13           Fe  tau(  13) = (   0.5000001   0.5018751   0.0000000  )
        14           Fe  tau(  14) = (   0.7499912   0.7528037   0.2500089  )
        15           Fe  tau(  15) = (   0.5000001   0.5018751   0.4999995  )
        16           Fe  tau(  16) = (   0.7499912   0.7528037   0.7499911  )

     number of k points=    75  Marzari-Vanderbilt smearing, width (Ry)=  0.0400
                       cart. coord. in units 2pi/alat
        k(    1) = (   0.0555556   0.0553480   0.0555556), wk =   0.0219479
        k(    2) = (   0.0555556   0.0553480   0.1666667), wk =   0.0438957
        k(    3) = (   0.0555556   0.0553480   0.2777778), wk =   0.0438957
        k(    4) = (   0.0555556   0.0553480   0.3888889), wk =   0.0438957
        k(    5) = (   0.0555556   0.0553480  -0.5000000), wk =   0.0219479
        k(    6) = (   0.0555556   0.1660440   0.0555556), wk =   0.0219479
        k(    7) = (   0.0555556   0.1660440   0.1666667), wk =   0.0438957
        k(    8) = (   0.0555556   0.1660440   0.2777778), wk =   0.0438957
        k(    9) = (   0.0555556   0.1660440   0.3888889), wk =   0.0438957
        k(   10) = (   0.0555556   0.1660440  -0.5000000), wk =   0.0219479
        k(   11) = (   0.0555556   0.2767400   0.0555556), wk =   0.0219479
        k(   12) = (   0.0555556   0.2767400   0.1666667), wk =   0.0438957
        k(   13) = (   0.0555556   0.2767400   0.2777778), wk =   0.0438957
        k(   14) = (   0.0555556   0.2767400   0.3888889), wk =   0.0438957
        k(   15) = (   0.0555556   0.2767400  -0.5000000), wk =   0.0219479
        k(   16) = (   0.0555556   0.3874360   0.0555556), wk =   0.0219479
        k(   17) = (   0.0555556   0.3874360   0.1666667), wk =   0.0438957
        k(   18) = (   0.0555556   0.3874360   0.2777778), wk =   0.0438957
        k(   19) = (   0.0555556   0.3874360   0.3888889), wk =   0.0438957
        k(   20) = (   0.0555556   0.3874360  -0.5000000), wk =   0.0219479
        k(   21) = (   0.0555556  -0.4981320   0.0555556), wk =   0.0109739
        k(   22) = (   0.0555556  -0.4981320   0.1666667), wk =   0.0219479
        k(   23) = (   0.0555556  -0.4981320   0.2777778), wk =   0.0219479
        k(   24) = (   0.0555556  -0.4981320   0.3888889), wk =   0.0219479
        k(   25) = (   0.0555556  -0.4981320  -0.5000000), wk =   0.0109739
        k(   26) = (   0.1666667   0.0553480   0.1666667), wk =   0.0219479
        k(   27) = (   0.1666667   0.0553480   0.2777778), wk =   0.0438957
        k(   28) = (   0.1666667   0.0553480   0.3888889), wk =   0.0438957
        k(   29) = (   0.1666667   0.0553480  -0.5000000), wk =   0.0219479
        k(   30) = (   0.1666667   0.1660440   0.1666667), wk =   0.0219479
        k(   31) = (   0.1666667   0.1660440   0.2777778), wk =   0.0438957
        k(   32) = (   0.1666667   0.1660440   0.3888889), wk =   0.0438957
        k(   33) = (   0.1666667   0.1660440  -0.5000000), wk =   0.0219479
        k(   34) = (   0.1666667   0.2767400   0.1666667), wk =   0.0219479
        k(   35) = (   0.1666667   0.2767400   0.2777778), wk =   0.0438957
        k(   36) = (   0.1666667   0.2767400   0.3888889), wk =   0.0438957
        k(   37) = (   0.1666667   0.2767400  -0.5000000), wk =   0.0219479
        k(   38) = (   0.1666667   0.3874360   0.1666667), wk =   0.0219479
        k(   39) = (   0.1666667   0.3874360   0.2777778), wk =   0.0438957
        k(   40) = (   0.1666667   0.3874360   0.3888889), wk =   0.0438957
        k(   41) = (   0.1666667   0.3874360  -0.5000000), wk =   0.0219479
        k(   42) = (   0.1666667  -0.4981320   0.1666667), wk =   0.0109739
        k(   43) = (   0.1666667  -0.4981320   0.2777778), wk =   0.0219479
        k(   44) = (   0.1666667  -0.4981320   0.3888889), wk =   0.0219479
        k(   45) = (   0.1666667  -0.4981320  -0.5000000), wk =   0.0109739
        k(   46) = (   0.2777778   0.0553480   0.2777778), wk =   0.0219479
        k(   47) = (   0.2777778   0.0553480   0.3888889), wk =   0.0438957
        k(   48) = (   0.2777778   0.0553480  -0.5000000), wk =   0.0219479
        k(   49) = (   0.2777778   0.1660440   0.2777778), wk =   0.0219479
        k(   50) = (   0.2777778   0.1660440   0.3888889), wk =   0.0438957
        k(   51) = (   0.2777778   0.1660440  -0.5000000), wk =   0.0219479
        k(   52) = (   0.2777778   0.2767400   0.2777778), wk =   0.0219479
        k(   53) = (   0.2777778   0.2767400   0.3888889), wk =   0.0438957
        k(   54) = (   0.2777778   0.2767400  -0.5000000), wk =   0.0219479
        k(   55) = (   0.2777778   0.3874360   0.2777778), wk =   0.0219479
        k(   56) = (   0.2777778   0.3874360   0.3888889), wk =   0.0438957
        k(   57) = (   0.2777778   0.3874360  -0.5000000), wk =   0.0219479
        k(   58) = (   0.2777778  -0.4981320   0.2777778), wk =   0.0109739
        k(   59) = (   0.2777778  -0.4981320   0.3888889), wk =   0.0219479
        k(   60) = (   0.2777778  -0.4981320  -0.5000000), wk =   0.0109739
        k(   61) = (   0.3888889   0.0553480   0.3888889), wk =   0.0219479
        k(   62) = (   0.3888889   0.0553480  -0.5000000), wk =   0.0219479
        k(   63) = (   0.3888889   0.1660440   0.3888889), wk =   0.0219479
        k(   64) = (   0.3888889   0.1660440  -0.5000000), wk =   0.0219479
        k(   65) = (   0.3888889   0.2767400   0.3888889), wk =   0.0219479
        k(   66) = (   0.3888889   0.2767400  -0.5000000), wk =   0.0219479
        k(   67) = (   0.3888889   0.3874360   0.3888889), wk =   0.0219479
        k(   68) = (   0.3888889   0.3874360  -0.5000000), wk =   0.0219479
        k(   69) = (   0.3888889  -0.4981320   0.3888889), wk =   0.0109739
        k(   70) = (   0.3888889  -0.4981320  -0.5000000), wk =   0.0109739
        k(   71) = (  -0.5000000   0.0553480  -0.5000000), wk =   0.0054870
        k(   72) = (  -0.5000000   0.1660440  -0.5000000), wk =   0.0054870
        k(   73) = (  -0.5000000   0.2767400  -0.5000000), wk =   0.0054870
        k(   74) = (  -0.5000000   0.3874360  -0.5000000), wk =   0.0054870
        k(   75) = (  -0.5000000  -0.4981320  -0.5000000), wk =   0.0027435

     Dense  grid:   169661 G-vectors     FFT dimensions: (  72,  72,  72)

     Smooth grid:    91079 G-vectors     FFT dimensions: (  60,  60,  60)

     Estimated max dynamical RAM per process >      83.49 MB

     Estimated total dynamical RAM >       3.26 GB

     Check: negative/imaginary core charge=   -0.000006    0.000000

     Initial potential from superposition of free atoms

     starting charge  255.99300, renormalised to  256.00000
     Starting wfcs are  160 randomized atomic wfcs
     Checking if some PAW data can be deallocated... 

     total cpu time spent up to now is        7.6 secs

     Self-consistent Calculation

     iteration #  1     ecut=    71.00 Ry     beta= 0.10
     Davidson diagonalization with overlap
     ethr =  1.00E-02,  avg # of iterations =  3.3

     Threshold (ethr) on eigenvalues was too large:
     Diagonalizing with lowered threshold

     Davidson diagonalization with overlap
     ethr =  2.51E-04,  avg # of iterations =  3.2

     total cpu time spent up to now is       61.9 secs

     total energy              =   -5267.75306226 Ry
     Harris-Foulkes estimate   =   -5267.86797186 Ry
     estimated scf accuracy    <       0.72829779 Ry

     iteration #  2     ecut=    71.00 Ry     beta= 0.10
     Davidson diagonalization with overlap
     ethr =  2.84E-04,  avg # of iterations =  1.0

     total cpu time spent up to now is       78.3 secs

     total energy              =   -5267.61938208 Ry
     Harris-Foulkes estimate   =   -5267.76814098 Ry
     estimated scf accuracy    <       0.36072807 Ry

     iteration #  3     ecut=    71.00 Ry     beta= 0.10
     Davidson diagonalization with overlap
     ethr =  1.41E-04,  avg # of iterations =  3.2

     total cpu time spent up to now is      109.5 secs

     total energy              =   -5267.70078448 Ry
     Harris-Foulkes estimate   =   -5267.72256537 Ry
     estimated scf accuracy    <       0.51235890 Ry

     iteration #  4     ecut=    71.00 Ry     beta= 0.10
     Davidson diagonalization with overlap
     ethr =  1.41E-04,  avg # of iterations =  1.0

     total cpu time spent up to now is      125.9 secs

     total energy              =   -5267.70619658 Ry
     Harris-Foulkes estimate   =   -5267.71232939 Ry
     estimated scf accuracy    <       0.02952164 Ry

     iteration #  5     ecut=    71.00 Ry     beta= 0.10
     Davidson diagonalization with overlap
     ethr =  1.15E-05,  avg # of iterations =  2.1

     total cpu time spent up to now is      147.0 secs

     total energy              =   -5267.70628006 Ry
     Harris-Foulkes estimate   =   -5267.70849358 Ry
     estimated scf accuracy    <       0.02276448 Ry

     iteration #  6     ecut=    71.00 Ry     beta= 0.10
     Davidson diagonalization with overlap
     ethr =  8.89E-06,  avg # of iterations =  2.9

     total cpu time spent up to now is      172.8 secs

     total energy              =   -5267.70867676 Ry
     Harris-Foulkes estimate   =   -5267.70868615 Ry
     estimated scf accuracy    <       0.01177080 Ry

     iteration #  7     ecut=    71.00 Ry     beta= 0.10
     Davidson diagonalization with overlap
     ethr =  4.60E-06,  avg # of iterations =  1.0

     total cpu time spent up to now is      189.3 secs

     total energy              =   -5267.70797616 Ry
     Harris-Foulkes estimate   =   -5267.70908286 Ry
     estimated scf accuracy    <       0.01343809 Ry

     iteration #  8     ecut=    71.00 Ry     beta= 0.10
     Davidson diagonalization with overlap
     ethr =  4.60E-06,  avg # of iterations =  1.0

     total cpu time spent up to now is      205.9 secs

     total energy              =   -5267.70846251 Ry
     Harris-Foulkes estimate   =   -5267.70865404 Ry
     estimated scf accuracy    <       0.00398255 Ry

     iteration #  9     ecut=    71.00 Ry     beta= 0.10
     Davidson diagonalization with overlap
     ethr =  1.56E-06,  avg # of iterations =  2.3

     total cpu time spent up to now is      227.0 secs

     total energy              =   -5267.70863041 Ry
     Harris-Foulkes estimate   =   -5267.70864710 Ry
     estimated scf accuracy    <       0.00047417 Ry

     iteration # 10     ecut=    71.00 Ry     beta= 0.10
     Davidson diagonalization with overlap
     ethr =  1.85E-07,  avg # of iterations =  2.5

     total cpu time spent up to now is      248.8 secs

     total energy              =   -5267.70863188 Ry
     Harris-Foulkes estimate   =   -5267.70865114 Ry
     estimated scf accuracy    <       0.00024897 Ry

     iteration # 11     ecut=    71.00 Ry     beta= 0.10
     Davidson diagonalization with overlap
     ethr =  9.73E-08,  avg # of iterations =  1.0

     total cpu time spent up to now is      265.3 secs

     total energy              =   -5267.70862427 Ry
     Harris-Foulkes estimate   =   -5267.70864333 Ry
     estimated scf accuracy    <       0.00016956 Ry

     iteration # 12     ecut=    71.00 Ry     beta= 0.10
     Davidson diagonalization with overlap
     ethr =  6.62E-08,  avg # of iterations =  1.0

     total cpu time spent up to now is      281.6 secs

     total energy              =   -5267.70862282 Ry
     Harris-Foulkes estimate   =   -5267.70863120 Ry
     estimated scf accuracy    <       0.00014035 Ry

     iteration # 13     ecut=    71.00 Ry     beta= 0.10
     Davidson diagonalization with overlap
     ethr =  5.48E-08,  avg # of iterations =  1.3

     total cpu time spent up to now is      299.3 secs

     End of self-consistent calculation

          k = 0.0556 0.0553 0.0556 ( 11330 PWs)   bands (ev):

   -66.8652 -66.7672 -66.7669 -66.7667 -66.7509 -66.7507 -66.7503 -66.7498
   -66.7495 -66.7494 -66.7493 -66.7490 -66.7488 -66.7418 -66.7417 -66.6663
   -33.1598 -33.1597 -33.1589 -33.1567 -33.1566 -33.1559 -32.9954 -32.9916
   -32.9865 -32.9177 -32.9151 -32.9149 -32.9141 -32.8936 -32.8930 -32.8802
   -32.8801 -32.8789 -32.8431 -32.8422 -32.8184 -32.8030 -32.8029 -32.8018
   -32.7914 -32.7913 -32.7905 -32.7792 -32.7770 -32.7770 -32.7761 -32.7739
   -32.7738 -32.7674 -32.7674 -32.7662 -32.7565 -32.7563 -32.7554 -32.5936
   -32.5928 -32.5915 -32.5914 -32.5898 -32.5884 -32.5883 -32.5870 -32.5868
    11.3950  15.2613  15.2839  15.2839  15.4058  15.4071  15.4071  15.4318
    15.4332  15.4333  15.6736  15.6835  15.7742  15.7975  15.7976  17.1648
    17.2435  17.2510  17.2573  17.2574  17.2754  17.2755  17.2893  17.2894
    17.3888  17.4012  17.4417  17.6924  17.7011  17.7011  18.0842  18.0946
    18.0946  18.5647  18.5786  18.6240  18.8931  18.8933  18.9082  18.9995
    18.9996  19.0113  19.0838  19.0839  19.1005  19.1807  19.1809  19.1957
    19.9269  19.9269  19.9373  20.1429  20.1430  20.1640  20.1772  20.1773
    20.1850  20.3089  20.3090  20.3122  20.3124  20.3381  20.3397  20.3401
    20.3674  20.5906  20.5907  20.6121  20.6121  20.6223  20.6238  20.6537
    20.6539  20.6684  20.6686  21.1390  21.1390  21.1621  21.3724  21.3951
    21.4337  21.4338  21.4488  21.4532  21.8671  21.8755  21.8757  21.8817
    21.9172  21.9450

          k = 0.0556 0.0553 0.1667 ( 11359 PWs)   bands (ev):

   -66.8616 -66.7844 -66.7665 -66.7661 -66.7528 -66.7524 -66.7502 -66.7496
   -66.7492 -66.7488 -66.7483 -66.7478 -66.7424 -66.7421 -66.7328 -66.6690
   -33.1518 -33.1510 -33.1506 -33.1478 -33.1428 -33.1422 -32.9962 -32.9878
   -32.9769 -32.9543 -32.9457 -32.9452 -32.9436 -32.9428 -32.9121 -32.9113
   -32.8775 -32.8500 -32.8399 -32.8386 -32.8262 -32.8037 -32.8016 -32.7936
   -32.7832 -32.7830 -32.7808 -32.7806 -32.7793 -32.7735 -32.7712 -32.7687
   -32.7668 -32.7629 -32.7625 -32.7325 -32.7293 -32.7288 -32.7225 -32.6084
   -32.6022 -32.6011 -32.5994 -32.5966 -32.5929 -32.5926 -32.5915 -32.5895
    11.5330  14.6516  15.3192  15.3406  15.4166  15.4169  15.4965  15.4974
    15.5080  15.5328  15.7382  15.7466  15.8193  15.8411  16.1336  17.0579
    17.1666  17.1796  17.2568  17.2692  17.2919  17.2941  17.3096  17.3257
    17.3354  17.3670  17.5787  17.5904  17.6481  17.6553  17.9870  17.9951
    18.4458  18.5432  18.5754  18.6713  18.6807  18.6947  18.7458  18.8511
    18.8749  18.9075  19.1844  19.1854  19.2995  19.3027  19.3184  19.4199
    19.6116  19.6300  19.6824  19.9018  19.9046  19.9247  20.0600  20.1559
    20.1652  20.2476  20.2767  20.2859  20.3281  20.3318  20.3574  20.3602
    20.3789  20.3996  20.4066  20.4259  20.6144  20.6389  20.6391  20.6580
    20.6583  20.8282  20.9370  20.9554  21.1186  21.1978  21.3102  21.4045
    21.4419  21.4448  21.4742  21.4910  21.7796  21.7845  21.9138  21.9621
    22.0367  22.0527

          k = 0.0556 0.0553 0.2778 ( 11369 PWs)   bands (ev):

   -66.8549 -66.8016 -66.7650 -66.7646 -66.7552 -66.7547 -66.7493 -66.7491
   -66.7487 -66.7479 -66.7477 -66.7474 -66.7435 -66.7429 -66.7173 -66.6740
   -33.1334 -33.1328 -33.1327 -33.1306 -33.1188 -33.1183 -32.9969 -32.9960
   -32.9905 -32.9870 -32.9867 -32.9753 -32.9653 -32.9624 -32.9559 -32.9555
   -32.8728 -32.8622 -32.8599 -32.8447 -32.8019 -32.7996 -32.7957 -32.7942
   -32.7897 -32.7870 -32.7848 -32.7714 -32.7693 -32.7689 -32.7668 -32.7474
   -32.7398 -32.7281 -32.7275 -32.6998 -32.6965 -32.6957 -32.6905 -32.6342
   -32.6174 -32.6162 -32.6148 -32.6132 -32.6043 -32.6022 -32.6010 -32.5991
    11.8048  13.9738  15.4093  15.4280  15.4527  15.4544  15.5944  15.5949
    15.7018  15.7237  15.8587  15.8707  15.8733  15.8917  16.2787  16.8978
    16.9386  16.9447  17.1268  17.1761  17.2233  17.2338  17.4068  17.4377
    17.4751  17.5062  17.6392  17.6463  17.8293  17.8511  17.9191  17.9262
    18.3810  18.4059  18.5279  18.5421  18.5677  18.5682  18.5942  18.6426
    18.7710  19.0457  19.0493  19.0666  19.2640  19.2833  19.4393  19.4466
    19.4508  19.4703  19.4785  19.4830  19.5162  19.5971  19.7081  20.1429
    20.1495  20.1763  20.2464  20.2747  20.3702  20.3839  20.4357  20.4593
    20.4661  20.5988  20.5998  20.6200  20.6511  20.6529  20.6654  20.6926
    20.6974  20.7011  20.9067  20.9341  21.0594  21.1290  21.1475  21.3726
    21.4217  21.4565  21.5305  21.5393  21.6525  21.6583  21.9985  22.0436
    22.1650  22.1904

          k = 0.0556 0.0553 0.3889 ( 11374 PWs)   bands (ev):

   -66.8451 -66.8179 -66.7629 -66.7625 -66.7577 -66.7573 -66.7486 -66.7482
   -66.7480 -66.7477 -66.7473 -66.7467 -66.7449 -66.7440 -66.7034 -66.6816
   -33.1070 -33.1058 -33.1056 -33.1050 -33.0858 -33.0853 -33.0369 -33.0346
   -33.0299 -33.0297 -33.0018 -33.0016 -32.9954 -32.9805 -32.9567 -32.9432
   -32.9047 -32.8913 -32.8456 -32.8337 -32.8098 -32.8035 -32.7990 -32.7965
   -32.7910 -32.7888 -32.7701 -32.7690 -32.7679 -32.7668 -32.7509 -32.7053
   -32.7010 -32.6941 -32.6933 -32.6700 -32.6676 -32.6656 -32.6646 -32.6612
   -32.6380 -32.6372 -32.6371 -32.6369 -32.6216 -32.6174 -32.6162 -32.6151
    12.2022  13.3122  15.4872  15.4954  15.5002  15.5015  15.7101  15.7132
    15.8811  15.8939  15.9722  15.9890  16.0087  16.0590  16.2684  16.6002
    16.6246  16.6324  17.1231  17.1404  17.1830  17.1917  17.5768  17.6069
    17.6707  17.7008  17.7578  17.7662  17.9578  17.9582  18.1253  18.1421
    18.1540  18.1751  18.2337  18.2599  18.5199  18.5223  18.5356  18.5639
    18.5659  18.5920  18.6941  18.7110  18.8952  18.9995  19.0031  19.2388
    19.3570  19.6726  19.6841  19.7000  19.7129  19.9157  19.9333  20.0179
    20.0350  20.0411  20.1163  20.1402  20.4223  20.4312  20.5187  20.5435
    20.5460  20.6104  20.6273  20.6437  20.6495  20.6612  20.7381  20.7499
    20.7611  20.7644  20.8878  20.9806  20.9826  21.1623  21.1750  21.2494
    21.4234  21.4280  21.4437  21.4745  21.5313  21.5443  22.1019  22.1425
    22.2251  22.2564

          k = 0.0556 0.0553-0.5000 ( 11372 PWs)   bands (ev):

   -66.8327 -66.8325 -66.7605 -66.7603 -66.7600 -66.7598 -66.7482 -66.7480
   -66.7477 -66.7475 -66.7466 -66.7464 -66.7455 -66.7453 -66.6916 -66.6914
   -33.0742 -33.0741 -33.0740 -33.0738 -33.0703 -33.0702 -33.0699 -33.0699
   -33.0462 -33.0461 -33.0456 -33.0456 -32.9903 -32.9902 -32.9330 -32.9328
   -32.9195 -32.9194 -32.8278 -32.8277 -32.8192 -32.8190 -32.7954 -32.7951
   -32.7929 -32.7927 -32.7693 -32.7690 -32.7673 -32.7671 -32.7070 -32.7069
   -32.6682 -32.6680 -32.6666 -32.6663 -32.6638 -32.6638 -32.6628 -32.6627
   -32.6438 -32.6436 -32.6385 -32.6385 -32.6379 -32.6377 -32.6360 -32.6358
    12.7112  12.7117  15.5157  15.5161  15.5251  15.5254  15.8182  15.8185
    15.8254  15.8257  16.1596  16.1599  16.2937  16.2941  16.3019  16.3023
    16.3041  16.3046  17.1458  17.1460  17.1550  17.1551  17.7935  17.7936
    17.8216  17.8216  17.8932  17.8933  17.9158  17.9160  18.1101  18.1104
    18.1169  18.1172  18.2667  18.2670  18.2798  18.2800  18.5330  18.5332
    18.5464  18.5466  18.5603  18.5605  18.5704  18.5706  19.0519  19.0522
    19.6663  19.6666  19.8568  19.8570  19.8748  19.8748  19.9316  19.9317
    19.9506  19.9506  20.2608  20.2609  20.3859  20.3860  20.4819  20.4822
    20.4871  20.4874  20.6237  20.6239  20.6354  20.6356  20.6499  20.6501
    21.0178  21.0178  21.0205  21.0206  21.0850  21.0852  21.2312  21.2313
    21.2324  21.2325  21.4711  21.4713  21.4954  21.4956  22.1914  22.1916
    22.2274  22.2276

          k = 0.0556 0.1660 0.0556 ( 11347 PWs)   bands (ev):

   -66.8617 -66.7848 -66.7662 -66.7659 -66.7528 -66.7526 -66.7499 -66.7493
   -66.7491 -66.7483 -66.7483 -66.7481 -66.7424 -66.7420 -66.7332 -66.6690
   -33.1518 -33.1518 -33.1498 -33.1472 -33.1429 -33.1429 -32.9985 -32.9853
   -32.9767 -32.9546 -32.9465 -32.9463 -32.9432 -32.9431 -32.9127 -32.9127
   -32.8764 -32.8488 -32.8385 -32.8372 -32.8252 -32.8016 -32.8016 -32.7944
   -32.7850 -32.7814 -32.7811 -32.7807 -32.7806 -32.7712 -32.7712 -32.7667
   -32.7666 -32.7641 -32.7641 -32.7318 -32.7303 -32.7301 -32.7219 -32.6088
   -32.6010 -32.6010 -32.6006 -32.5982 -32.5925 -32.5917 -32.5916 -32.5896
    11.5319  14.6312  15.3396  15.3397  15.4172  15.4172  15.4977  15.4977
    15.5057  15.5303  15.7354  15.7479  15.8401  15.8401  16.1109  17.0530
    17.1661  17.1667  17.2264  17.2390  17.2826  17.3036  17.3253  17.3254
    17.3666  17.3668  17.5911  17.6037  17.6552  17.6553  17.9945  17.9946
    18.4370  18.5491  18.5610  18.6895  18.6898  18.6914  18.7577  18.8682
    18.8684  18.9120  19.1670  19.1670  19.2823  19.2823  19.3358  19.4366
    19.6095  19.6095  19.6952  19.8983  19.8983  19.9247  20.0871  20.1569
    20.1569  20.2525  20.2526  20.2670  20.3393  20.3395  20.3583  20.3842
    20.3952  20.3999  20.4000  20.4312  20.6264  20.6348  20.6351  20.6662
    20.6666  20.8442  20.9363  20.9363  21.0909  21.2006  21.3160  21.4408
    21.4413  21.4414  21.4756  21.4756  21.7789  21.7790  21.9609  21.9610
    22.0374  22.0375

          k = 0.0556 0.1660 0.1667 ( 11363 PWs)   bands (ev):

   -66.8584 -66.7835 -66.7831 -66.7653 -66.7577 -66.7522 -66.7518 -66.7490
   -66.7478 -66.7474 -66.7443 -66.7433 -66.7421 -66.7334 -66.7330 -66.6715
   -33.1497 -33.1432 -33.1423 -33.1350 -33.1344 -33.1234 -33.0046 -32.9820
   -32.9778 -32.9730 -32.9722 -32.9653 -32.9618 -32.9577 -32.9336 -32.8875
   -32.8731 -32.8719 -32.8383 -32.8364 -32.8362 -32.8084 -32.7983 -32.7963
   -32.7904 -32.7896 -32.7877 -32.7786 -32.7767 -32.7748 -32.7720 -32.7625
   -32.7532 -32.7411 -32.7331 -32.7329 -32.7102 -32.6977 -32.6964 -32.6299
   -32.6161 -32.6083 -32.6072 -32.6006 -32.5994 -32.5975 -32.5884 -32.5872
    11.6683  14.7077  14.7264  15.3594  15.4025  15.5181  15.5197  15.5942
    15.5964  15.6077  15.8004  15.8091  15.8926  16.1541  16.1744  16.9564
    17.0675  17.2450  17.2742  17.2938  17.2990  17.3037  17.3114  17.3407
    17.3474  17.3601  17.4712  17.5699  17.5948  17.6111  17.8884  18.2639
    18.2681  18.4908  18.5465  18.5538  18.5577  18.5940  18.7379  18.7892
    19.0880  19.0959  19.1450  19.1543  19.1909  19.2582  19.3576  19.4516
    19.4599  19.4723  19.4809  19.6487  19.6731  19.7990  19.9142  19.9240
    20.1442  20.2601  20.2734  20.2974  20.3312  20.3337  20.3555  20.3562
    20.3692  20.5420  20.5881  20.6204  20.6207  20.6381  20.6430  20.6550
    20.6565  20.7507  20.7626  20.9715  21.0754  21.0774  21.0894  21.1044
    21.2113  21.4686  21.4715  21.6001  21.6704  22.0353  22.3453  22.3540
    22.5288  22.6527

          k = 0.0556 0.1660 0.2778 ( 11378 PWs)   bands (ev):

   -66.8518 -66.7998 -66.7810 -66.7639 -66.7629 -66.7542 -66.7511 -66.7485
   -66.7470 -66.7470 -66.7446 -66.7427 -66.7410 -66.7340 -66.7181 -66.6763
   -33.1373 -33.1261 -33.1251 -33.1199 -33.1122 -33.0943 -33.0109 -33.0103
   -33.0076 -32.9963 -32.9942 -32.9927 -32.9699 -32.9674 -32.9425 -32.9175
   -32.8764 -32.8697 -32.8347 -32.8322 -32.8315 -32.8292 -32.8108 -32.8005
   -32.8003 -32.7949 -32.7869 -32.7771 -32.7748 -32.7608 -32.7547 -32.7376
   -32.7351 -32.7212 -32.7128 -32.7010 -32.6848 -32.6676 -32.6664 -32.6600
   -32.6366 -32.6208 -32.6195 -32.6145 -32.6087 -32.6081 -32.5914 -32.5910
    11.9369  14.0670  14.8428  15.3099  15.5019  15.5573  15.6922  15.7167
    15.7452  15.7849  15.9213  15.9295  15.9596  16.1933  16.3265  16.8409
    16.9217  16.9523  17.1883  17.2655  17.2751  17.2954  17.3329  17.3788
    17.4311  17.4381  17.5547  17.6362  17.7266  17.7916  17.7921  18.1337
    18.2984  18.3846  18.4127  18.4361  18.4677  18.5050  18.5292  18.7203
    18.7755  18.9190  18.9602  19.1147  19.1554  19.2331  19.2528  19.2647
    19.3486  19.4462  19.4718  19.5207  19.5532  19.6786  19.6965  20.0209
    20.1593  20.1993  20.2278  20.2745  20.2822  20.3165  20.3529  20.4033
    20.5678  20.5797  20.5811  20.6479  20.6529  20.6722  20.6738  20.6829
    20.7394  20.8450  20.8644  20.8827  20.8957  20.9182  20.9682  21.0502
    21.1948  21.3989  21.4528  21.5394  21.6665  22.1740  22.1922  22.7568
    22.8094  22.9554

          k = 0.0556 0.1660 0.3889 ( 11361 PWs)   bands (ev):

   -66.8422 -66.8157 -66.7774 -66.7680 -66.7618 -66.7567 -66.7497 -66.7479
   -66.7471 -66.7463 -66.7459 -66.7436 -66.7384 -66.7349 -66.7046 -66.6836
   -33.1155 -33.1014 -33.0996 -33.0980 -33.0819 -33.0568 -33.0496 -33.0397
   -33.0337 -33.0319 -33.0133 -33.0063 -33.0052 -32.9660 -32.9519 -32.9197
   -32.9009 -32.8634 -32.8583 -32.8264 -32.8260 -32.8180 -32.8096 -32.8091
   -32.8003 -32.7999 -32.7839 -32.7763 -32.7756 -32.7481 -32.7383 -32.7247
   -32.6997 -32.6967 -32.6898 -32.6848 -32.6720 -32.6616 -32.6598 -32.6410
   -32.6389 -32.6381 -32.6377 -32.6368 -32.6252 -32.6206 -32.6017 -32.6007
    12.3290  13.4201  15.0021  15.2458  15.5897  15.6031  15.8099  15.9002
    15.9790  15.9910  16.0447  16.0704  16.1123  16.1629  16.3239  16.6316
    16.6335  16.6485  17.1589  17.2016  17.2197  17.2433  17.5013  17.5298
    17.5722  17.6019  17.6210  17.7662  17.8527  17.9872  18.0129  18.0746
    18.1867  18.1948  18.2542  18.2620  18.3991  18.4002  18.4467  18.4786
    18.4803  18.5109  18.6025  18.7241  18.7873  18.7875  19.0741  19.4562
    19.4939  19.6497  19.6507  19.7152  19.7193  19.7279  19.8921  19.9785
    19.9876  20.0664  20.1387  20.1610  20.3332  20.3778  20.4001  20.4857
    20.5188  20.5240  20.5365  20.6444  20.6497  20.6545  20.6597  20.7218
    20.7325  20.7703  20.7934  20.9300  20.9395  21.0112  21.0695  21.1700
    21.1811  21.1824  21.3746  21.5708  21.6567  22.0105  22.3542  22.6869
    22.9896  23.1481

          k = 0.0556 0.1660-0.5000 ( 11376 PWs)   bands (ev):

   -66.8301 -66.8299 -66.7731 -66.7729 -66.7594 -66.7592 -66.7482 -66.7479
   -66.7474 -66.7472 -66.7449 -66.7447 -66.7365 -66.7363 -66.6932 -66.6930
   -33.0857 -33.0856 -33.0709 -33.0707 -33.0703 -33.0701 -33.0674 -33.0673
   -33.0455 -33.0455 -33.0134 -33.0132 -33.0119 -33.0118 -32.9287 -32.9284
   -32.8934 -32.8932 -32.8384 -32.8383 -32.8185 -32.8183 -32.8143 -32.8141
   -32.8054 -32.8052 -32.7761 -32.7758 -32.7427 -32.7425 -32.7389 -32.7388
   -32.6915 -32.6914 -32.6658 -32.6655 -32.6618 -32.6615 -32.6595 -32.6594
   -32.6465 -32.6463 -32.6381 -32.6380 -32.6188 -32.6186 -32.6168 -32.6167
    12.8302  12.8307  15.1445  15.1449  15.6239  15.6242  15.9195  15.9198
    16.0515  16.0519  16.2195  16.2199  16.3152  16.3156  16.3442  16.3446
    16.3485  16.3489  17.1784  17.1786  17.2024  17.2026  17.6935  17.6937
    17.7177  17.7179  17.7633  17.7634  17.8109  17.8113  18.1451  18.1451
    18.1759  18.1762  18.2468  18.2470  18.3549  18.3552  18.3724  18.3726
    18.3854  18.3855  18.4143  18.4145  18.4950  18.4952  19.2539  19.2540
    19.7479  19.7481  19.7659  19.7661  19.9027  19.9028  19.9498  19.9498
    19.9726  19.9727  19.9838  19.9838  20.3157  20.3159  20.4479  20.4481
    20.4601  20.4604  20.5928  20.5930  20.6436  20.6438  20.6811  20.6813
    20.7877  20.7878  20.8974  20.8975  20.9945  20.9946  21.0842  21.0843
    21.2431  21.2433  21.4052  21.4052  21.8220  21.8222  22.5395  22.5397
    23.1300  23.1302

          k = 0.0556 0.2767 0.0556 ( 11367 PWs)   bands (ev):

   -66.8550 -66.8020 -66.7647 -66.7645 -66.7552 -66.7550 -66.7490 -66.7489
   -66.7487 -66.7479 -66.7476 -66.7475 -66.7434 -66.7428 -66.7177 -66.6741
   -33.1336 -33.1336 -33.1322 -33.1301 -33.1192 -33.1191 -32.9993 -32.9962
   -32.9906 -32.9880 -32.9879 -32.9727 -32.9656 -32.9618 -32.9568 -32.9568
   -32.8712 -32.8617 -32.8589 -32.8440 -32.7994 -32.7993 -32.7960 -32.7945
   -32.7912 -32.7847 -32.7846 -32.7693 -32.7692 -32.7667 -32.7666 -32.7485
   -32.7408 -32.7290 -32.7290 -32.6992 -32.6971 -32.6970 -32.6899 -32.6341
   -32.6165 -32.6165 -32.6160 -32.6143 -32.6042 -32.6012 -32.6011 -32.5989
    11.8017  13.9567  15.4256  15.4256  15.4538  15.4538  15.5954  15.5955
    15.6976  15.7193  15.8496  15.8753  15.8894  15.8895  16.2577  16.8869
    16.9316  16.9353  17.1204  17.1676  17.1962  17.2067  17.4367  17.4369
    17.5051  17.5052  17.6457  17.6457  17.8461  17.8678  17.9254  17.9254
    18.4017  18.4020  18.5312  18.5556  18.5627  18.5629  18.5981  18.6486
    18.7862  19.0345  19.0498  19.0498  19.2645  19.2645  19.4254  19.4254
    19.4635  19.4635  19.4657  19.4937  19.5410  19.6143  19.7254  20.1232
    20.1533  20.1534  20.2509  20.2510  20.3938  20.4080  20.4498  20.4599
    20.4600  20.5987  20.6000  20.6318  20.6611  20.6632  20.6682  20.6922
    20.6923  20.7143  20.8895  20.9407  21.0685  21.1345  21.1345  21.3691
    21.4545  21.4546  21.5318  21.5319  21.6518  21.6519  22.0399  22.0400
    22.1714  22.1715

          k = 0.0556 0.2767 0.1667 ( 11376 PWs)   bands (ev):

   -66.8518 -66.8002 -66.7807 -66.7639 -66.7628 -66.7545 -66.7508 -66.7485
   -66.7474 -66.7467 -66.7446 -66.7427 -66.7410 -66.7337 -66.7184 -66.6764
   -33.1375 -33.1260 -33.1254 -33.1194 -33.1130 -33.0946 -33.0118 -33.0108
   -33.0077 -32.9969 -32.9942 -32.9925 -32.9694 -32.9680 -32.9419 -32.9187
   -32.8762 -32.8696 -32.8343 -32.8320 -32.8300 -32.8283 -32.8095 -32.8021
   -32.8002 -32.7929 -32.7883 -32.7752 -32.7737 -32.7622 -32.7546 -32.7383
   -32.7348 -32.7218 -32.7130 -32.7012 -32.6850 -32.6674 -32.6665 -32.6597
   -32.6367 -32.6206 -32.6200 -32.6158 -32.6087 -32.6071 -32.5916 -32.5907
    11.9349  14.0512  14.8581  15.3107  15.5004  15.5578  15.6936  15.7132
    15.7458  15.7808  15.9131  15.9347  15.9583  16.2088  16.3073  16.8351
    16.9147  16.9496  17.1801  17.2392  17.2661  17.2696  17.3379  17.4067
    17.4306  17.4656  17.5546  17.6354  17.7402  17.7929  17.8048  18.1375
    18.2955  18.3952  18.4117  18.4340  18.4734  18.5164  18.5303  18.7210
    18.7701  18.9239  18.9435  19.0960  19.1762  19.2542  19.2563  19.2620
    19.3573  19.4371  19.4599  19.5098  19.5384  19.6892  19.7162  20.0227
    20.1453  20.1770  20.2208  20.2503  20.2826  20.3388  20.3768  20.4140
    20.5680  20.5812  20.5832  20.6521  20.6579  20.6752  20.6824  20.6875
    20.7391  20.8564  20.8656  20.8674  20.8876  20.9141  20.9737  21.0750
    21.1853  21.3977  21.4518  21.5380  21.6662  22.1717  22.1840  22.7424
    22.8599  22.9631

          k = 0.0556 0.2767 0.2778 ( 11365 PWs)   bands (ev):

   -66.8456 -66.7967 -66.7964 -66.7707 -66.7625 -66.7533 -66.7530 -66.7481
   -66.7466 -66.7463 -66.7461 -66.7430 -66.7350 -66.7199 -66.7197 -66.6810
   -33.1312 -33.1113 -33.1105 -33.1010 -33.1003 -33.0607 -33.0275 -33.0269
   -33.0238 -33.0234 -33.0140 -33.0109 -32.9887 -32.9583 -32.9177 -32.8773
   -32.8751 -32.8741 -32.8637 -32.8635 -32.8298 -32.8188 -32.8155 -32.8091
   -32.8074 -32.7956 -32.7941 -32.7868 -32.7854 -32.7807 -32.7413 -32.7141
   -32.7052 -32.7049 -32.6987 -32.6953 -32.6922 -32.6684 -32.6615 -32.6409
   -32.6399 -32.6283 -32.6273 -32.6200 -32.6192 -32.6189 -32.5885 -32.5877
    12.1966  14.2279  14.2409  15.1491  15.6243  15.7547  15.7570  15.8769
    15.8802  15.9061  16.0193  16.0605  16.0618  16.3528  16.3673  16.7758
    16.8349  17.0261  17.0290  17.2431  17.3151  17.3300  17.3543  17.3746
    17.3980  17.4577  17.4847  17.6562  17.6803  17.7795  17.8245  18.1925
    18.1927  18.2925  18.3112  18.3134  18.3322  18.3334  18.3898  18.4960
    18.7391  18.7558  18.8007  18.8196  18.9607  19.0205  19.0261  19.0990
    19.5280  19.5295  19.5896  19.6287  19.6706  19.6848  19.8893  19.9780
    19.9854  20.1429  20.2270  20.2472  20.2540  20.2728  20.2953  20.3459
    20.3849  20.5369  20.5387  20.5469  20.6497  20.6596  20.6925  20.7435
    20.7561  20.7613  20.8087  20.8190  20.8350  20.9391  20.9471  21.1165
    21.1198  21.1581  21.5044  21.6951  21.7130  22.4048  22.8134  22.8206
    23.4158  23.4269

          k = 0.0556 0.2767 0.3889 ( 11370 PWs)   bands (ev):

   -66.8364 -66.8113 -66.7917 -66.7784 -66.7605 -66.7555 -66.7518 -66.7479
   -66.7475 -66.7465 -66.7457 -66.7437 -66.7298 -66.7224 -66.7071 -66.6877
   -33.1153 -33.0904 -33.0892 -33.0844 -33.0751 -33.0611 -33.0435 -33.0372
   -33.0366 -33.0355 -33.0326 -33.0200 -33.0160 -32.9410 -32.9239 -32.8928
   -32.8903 -32.8658 -32.8548 -32.8300 -32.8290 -32.8284 -32.8268 -32.8228
   -32.8225 -32.8160 -32.7985 -32.7865 -32.7847 -32.7577 -32.7365 -32.7295
   -32.7114 -32.6903 -32.6860 -32.6778 -32.6760 -32.6718 -32.6520 -32.6397
   -32.6395 -32.6367 -32.6343 -32.6274 -32.6188 -32.6175 -32.5915 -32.5912
    12.5774  13.6274  14.4612  14.9513  15.7450  15.7985  15.9916  16.0317
    16.0686  16.1234  16.1329  16.1536  16.2459  16.3234  16.3795  16.6442
    16.6471  16.7370  17.2265  17.2273  17.2700  17.2930  17.3222  17.4498
    17.4507  17.4899  17.5866  17.5957  17.8330  17.9234  17.9298  17.9613
    18.0719  18.1580  18.1788  18.2277  18.2510  18.2690  18.3611  18.3748
    18.4031  18.4535  18.4571  18.4695  18.6040  18.6835  19.2953  19.3122
    19.6729  19.6870  19.7405  19.7769  19.7835  19.7864  19.7950  19.8773
    19.9917  20.0437  20.1217  20.1627  20.1694  20.2944  20.2997  20.3252
    20.4340  20.4509  20.4676  20.4721  20.5742  20.6549  20.6682  20.6764
    20.6957  20.7521  20.7760  20.7936  20.8071  20.8805  20.8972  20.9688
    21.2884  21.3505  21.4927  21.6482  21.9655  22.5484  22.6929  23.2469
    23.4881  24.0701

          k = 0.0556 0.2767-0.5000 ( 11378 PWs)   bands (ev):

   -66.8249 -66.8247 -66.7856 -66.7854 -66.7582 -66.7580 -66.7500 -66.7498
   -66.7470 -66.7468 -66.7448 -66.7446 -66.7258 -66.7256 -66.6965 -66.6963
   -33.0916 -33.0915 -33.0647 -33.0646 -33.0645 -33.0644 -33.0635 -33.0635
   -33.0459 -33.0458 -33.0372 -33.0371 -32.9734 -32.9733 -32.9192 -32.9190
   -32.8604 -32.8603 -32.8477 -32.8476 -32.8434 -32.8432 -32.8211 -32.8209
   -32.8122 -32.8120 -32.7863 -32.7861 -32.7820 -32.7819 -32.7229 -32.7228
   -32.7196 -32.7194 -32.6595 -32.6593 -32.6559 -32.6557 -32.6542 -32.6541
   -32.6539 -32.6538 -32.6382 -32.6382 -32.6020 -32.6018 -32.6009 -32.6008
    13.0617  13.0623  14.7147  14.7151  15.8066  15.8069  16.0915  16.0917
    16.2166  16.2170  16.2892  16.2897  16.3476  16.3479  16.4115  16.4118
    16.4733  16.4737  17.2419  17.2420  17.2668  17.2669  17.5218  17.5220
    17.5419  17.5422  17.5493  17.5495  17.7573  17.7574  18.1156  18.1158
    18.1519  18.1520  18.1582  18.1584  18.1834  18.1836  18.1981  18.1981
    18.3592  18.3592  18.3603  18.3605  18.4178  18.4179  19.5092  19.5093
    19.6400  19.6401  19.7020  19.7022  19.8762  19.8765  19.9674  19.9675
    19.9859  19.9860  20.0074  20.0076  20.1480  20.1481  20.3841  20.3843
    20.3961  20.3964  20.5371  20.5373  20.5798  20.5798  20.6679  20.6681
    20.6871  20.6872  20.7156  20.7157  20.8122  20.8123  20.9393  20.9394
    21.4173  21.4175  21.5310  21.5311  22.2561  22.2563  22.9882  22.9884
    24.1821  24.1824

          k = 0.0556 0.3874 0.0556 ( 11379 PWs)   bands (ev):

   -66.8453 -66.8182 -66.7627 -66.7625 -66.7577 -66.7574 -66.7484 -66.7482
   -66.7477 -66.7477 -66.7475 -66.7464 -66.7448 -66.7439 -66.7037 -66.6817
   -33.1066 -33.1062 -33.1061 -33.1054 -33.0864 -33.0863 -33.0369 -33.0345
   -33.0312 -33.0311 -33.0030 -33.0029 -32.9976 -32.9817 -32.9544 -32.9422
   -32.9028 -32.8902 -32.8453 -32.8333 -32.8112 -32.8047 -32.7964 -32.7963
   -32.7886 -32.7886 -32.7678 -32.7677 -32.7667 -32.7666 -32.7499 -32.7064
   -32.7021 -32.6946 -32.6945 -32.6696 -32.6674 -32.6657 -32.6656 -32.6608
   -32.6385 -32.6385 -32.6374 -32.6373 -32.6213 -32.6167 -32.6166 -32.6148
    12.1962  13.2989  15.4980  15.4981  15.4982  15.4982  15.7126  15.7126
    15.8912  15.8913  15.9655  15.9821  15.9960  16.0628  16.2496  16.5996
    16.6132  16.6207  17.1111  17.1282  17.1601  17.1690  17.6051  17.6052
    17.6987  17.6989  17.7638  17.7638  17.9624  17.9625  18.1412  18.1414
    18.1736  18.1945  18.2565  18.2567  18.5237  18.5237  18.5261  18.5546
    18.5778  18.5867  18.6986  18.6987  18.9122  19.0222  19.0265  19.2552
    19.3401  19.6637  19.6638  19.6900  19.6900  19.9138  19.9316  20.0191
    20.0193  20.0519  20.1156  20.1157  20.4411  20.4506  20.5272  20.5504
    20.5533  20.6208  20.6387  20.6545  20.6606  20.6735  20.7425  20.7505
    20.7610  20.7611  20.8884  20.9790  20.9791  21.1694  21.1695  21.2468
    21.4235  21.4237  21.4701  21.4703  21.5360  21.5360  22.1352  22.1353
    22.2401  22.2401

          k = 0.0556 0.3874 0.1667 ( 11369 PWs)   bands (ev):

   -66.8423 -66.8159 -66.7772 -66.7679 -66.7619 -66.7570 -66.7494 -66.7480
   -66.7473 -66.7461 -66.7457 -66.7435 -66.7383 -66.7347 -66.7049 -66.6837
   -33.1159 -33.1010 -33.1006 -33.0976 -33.0828 -33.0572 -33.0506 -33.0396
   -33.0336 -33.0329 -33.0139 -33.0072 -33.0054 -32.9670 -32.9514 -32.9187
   -32.9006 -32.8621 -32.8584 -32.8264 -32.8260 -32.8195 -32.8095 -32.8072
   -32.8010 -32.7981 -32.7828 -32.7743 -32.7740 -32.7479 -32.7381 -32.7259
   -32.7006 -32.6965 -32.6905 -32.6849 -32.6720 -32.6622 -32.6599 -32.6399
   -32.6397 -32.6389 -32.6380 -32.6375 -32.6253 -32.6200 -32.6013 -32.6010
    12.3241  13.4081  15.0129  15.2487  15.5872  15.6021  15.8103  15.9023
    15.9772  15.9851  16.0382  16.0584  16.1171  16.1721  16.3065  16.6245
    16.6316  16.6390  17.1469  17.1896  17.1977  17.2219  17.5064  17.5551
    17.5710  17.6211  17.6258  17.7719  17.8506  17.9857  18.0311  18.0922
    18.1906  18.2045  18.2571  18.2772  18.3960  18.3979  18.4429  18.4698
    18.4873  18.5147  18.5902  18.7283  18.8081  18.8094  19.0821  19.4655
    19.4844  19.6429  19.6584  19.6992  19.7017  19.7193  19.8931  19.9627
    20.0051  20.0459  20.1154  20.1564  20.3388  20.3960  20.4203  20.4931
    20.5261  20.5323  20.5326  20.6501  20.6569  20.6650  20.6665  20.7145
    20.7419  20.7699  20.8055  20.9287  20.9354  21.0319  21.0711  21.1679
    21.1753  21.1790  21.3739  21.5698  21.6531  22.0032  22.3488  22.6748
    23.0307  23.1673

          k = 0.0556 0.3874 0.2778 ( 11373 PWs)   bands (ev):

   -66.8365 -66.8115 -66.7915 -66.7783 -66.7605 -66.7558 -66.7515 -66.7479
   -66.7475 -66.7467 -66.7455 -66.7437 -66.7298 -66.7221 -66.7074 -66.6877
   -33.1157 -33.0900 -33.0898 -33.0839 -33.0758 -33.0616 -33.0435 -33.0377
   -33.0365 -33.0354 -33.0327 -33.0202 -33.0163 -32.9410 -32.9247 -32.8929
   -32.8898 -32.8662 -32.8546 -32.8300 -32.8282 -32.8281 -32.8272 -32.8229
   -32.8216 -32.8143 -32.7995 -32.7852 -32.7839 -32.7586 -32.7363 -32.7294
   -32.7112 -32.6908 -32.6864 -32.6780 -32.6765 -32.6716 -32.6518 -32.6404
   -32.6390 -32.6376 -32.6344 -32.6268 -32.6182 -32.6179 -32.5914 -32.5911
    12.5746  13.6177  14.4706  14.9534  15.7440  15.7991  15.9936  16.0274
    16.0699  16.1230  16.1277  16.1486  16.2469  16.3316  16.3669  16.6391
    16.6421  16.7361  17.2178  17.2302  17.2614  17.2732  17.3038  17.4512
    17.4703  17.5079  17.5901  17.5951  17.8458  17.9238  17.9413  17.9601
    18.0717  18.1616  18.1785  18.2342  18.2500  18.2702  18.3516  18.3789
    18.3906  18.4593  18.4721  18.4860  18.6062  18.6800  19.2985  19.3174
    19.6655  19.6816  19.7474  19.7746  19.7769  19.7822  19.7867  19.8899
    19.9941  20.0345  20.1042  20.1431  20.1646  20.2899  20.3158  20.3434
    20.4386  20.4563  20.4726  20.4779  20.5831  20.6567  20.6610  20.6789
    20.6993  20.7664  20.7760  20.7996  20.8046  20.8796  20.8954  20.9639
    21.2903  21.3479  21.4929  21.6471  21.9635  22.5426  22.6900  23.2383
    23.4934  24.1193

          k = 0.0556 0.3874 0.3889 ( 11373 PWs)   bands (ev):

   -66.8281 -66.8053 -66.8051 -66.7882 -66.7587 -66.7541 -66.7539 -66.7499
   -66.7469 -66.7459 -66.7457 -66.7442 -66.7224 -66.7111 -66.7109 -66.6937
   -33.1060 -33.0755 -33.0750 -33.0668 -33.0663 -33.0644 -33.0641 -33.0494
   -33.0488 -33.0466 -33.0455 -33.0303 -32.9761 -32.9254 -32.8814 -32.8812
   -32.8780 -32.8775 -32.8636 -32.8585 -32.8492 -32.8348 -32.8337 -32.8325
   -32.8183 -32.7988 -32.7979 -32.7924 -32.7920 -32.7915 -32.7816 -32.7221
   -32.7128 -32.6869 -32.6867 -32.6690 -32.6626 -32.6595 -32.6480 -32.6451
   -32.6438 -32.6432 -32.6380 -32.6376 -32.6017 -32.6013 -32.5880 -32.5877
    12.9367  13.9092  13.9158  14.6143  15.9183  16.0615  16.0638  16.2101
    16.2302  16.2338  16.2459  16.2612  16.3696  16.3761  16.4451  16.5579
    16.6162  16.9507  16.9530  17.2674  17.2835  17.3483  17.3609  17.3720
    17.3758  17.3838  17.4669  17.5853  17.6740  17.7805  17.8909  17.9737
    17.9741  18.0595  18.1242  18.1359  18.1453  18.1575  18.1810  18.1901
    18.3152  18.3162  18.3257  18.4012  18.4388  18.9623  18.9651  19.5338
    19.6333  19.7070  19.7678  19.7744  19.8867  19.8877  19.9103  19.9191
    20.0369  20.0409  20.0693  20.1529  20.1914  20.2003  20.2037  20.2092
    20.2229  20.3917  20.3956  20.4127  20.4986  20.5894  20.5965  20.6210
    20.6726  20.7032  20.7354  20.7371  20.7735  20.8272  20.8303  20.8531
    21.4735  21.4752  21.5525  21.6583  22.3385  23.0856  23.1204  23.1241
    23.8505  23.8562

          k = 0.0556 0.3874-0.5000 ( 11388 PWs)   bands (ev):

   -66.8176 -66.8174 -66.7974 -66.7972 -66.7565 -66.7563 -66.7522 -66.7520
   -66.7463 -66.7461 -66.7451 -66.7449 -66.7163 -66.7160 -66.7015 -66.7013
   -33.0885 -33.0884 -33.0600 -33.0599 -33.0598 -33.0597 -33.0595 -33.0594
   -33.0577 -33.0575 -33.0476 -33.0475 -32.9279 -32.9278 -32.9053 -32.9051
   -32.8666 -32.8664 -32.8518 -32.8516 -32.8369 -32.8368 -32.8298 -32.8296
   -32.8255 -32.8254 -32.8101 -32.8100 -32.7972 -32.7970 -32.7561 -32.7559
   -32.6986 -32.6984 -32.6656 -32.6654 -32.6521 -32.6519 -32.6514 -32.6512
   -32.6501 -32.6500 -32.6404 -32.6403 -32.5915 -32.5914 -32.5911 -32.5910
    13.3923  13.3928  14.2536  14.2541  16.0367  16.0370  16.2984  16.2986
    16.3131  16.3135  16.3334  16.3339  16.3455  16.3458  16.4719  16.4722
    16.6865  16.6869  17.2473  17.2476  17.2984  17.2985  17.3017  17.3017
    17.3602  17.3605  17.4158  17.4160  17.8027  17.8028  17.9143  17.9145
    18.0017  18.0019  18.0125  18.0127  18.0299  18.0299  18.0735  18.0737
    18.3316  18.3318  18.3530  18.3531  18.6292  18.6292  19.2834  19.2835
    19.7056  19.7058  19.7803  19.7804  19.9553  19.9555  20.0061  20.0063
    20.0579  20.0581  20.0666  20.0667  20.0711  20.0712  20.2929  20.2931
    20.2999  20.3001  20.3341  20.3341  20.4742  20.4744  20.5194  20.5197
    20.6967  20.6969  20.7472  20.7474  20.7613  20.7615  20.8422  20.8424
    21.5446  21.5447  21.6006  21.6007  22.7341  22.7343  23.4873  23.4875
    23.7117  23.7120

          k = 0.0556-0.4981 0.0556 ( 11368 PWs)   bands (ev):

   -66.8329 -66.8327 -66.7603 -66.7603 -66.7602 -66.7599 -66.7480 -66.7479
   -66.7479 -66.7476 -66.7464 -66.7462 -66.7453 -66.7451 -66.6918 -66.6916
   -33.0740 -33.0738 -33.0737 -33.0735 -33.0713 -33.0712 -33.0712 -33.0712
   -33.0470 -33.0469 -33.0469 -33.0469 -32.9919 -32.9919 -32.9309 -32.9307
   -32.9185 -32.9183 -32.8282 -32.8281 -32.8194 -32.8193 -32.7928 -32.7927
   -32.7926 -32.7926 -32.7672 -32.7671 -32.7670 -32.7670 -32.7062 -32.7061
   -32.6694 -32.6692 -32.6676 -32.6675 -32.6637 -32.6636 -32.6636 -32.6636
   -32.6432 -32.6431 -32.6384 -32.6384 -32.6383 -32.6383 -32.6355 -32.6354
    12.7020  12.7021  15.5219  15.5220  15.5220  15.5220  15.8236  15.8237
    15.8237  15.8237  16.1439  16.1440  16.2845  16.2846  16.2926  16.2928
    16.3061  16.3064  17.1281  17.1282  17.1374  17.1375  17.8190  17.8190
    17.8191  17.8192  17.9136  17.9136  17.9138  17.9139  18.1155  18.1155
    18.1156  18.1156  18.2734  18.2734  18.2735  18.2736  18.5394  18.5395
    18.5644  18.5645  18.5683  18.5683  18.5818  18.5818  19.0693  19.0696
    19.6477  19.6479  19.8537  19.8537  19.8538  19.8539  19.9263  19.9263
    19.9263  19.9264  20.2745  20.2745  20.4011  20.4011  20.4956  20.4958
    20.5011  20.5014  20.6250  20.6251  20.6466  20.6467  20.6618  20.6619
    21.0189  21.0189  21.0190  21.0191  21.0838  21.0839  21.2296  21.2296
    21.2297  21.2298  21.4881  21.4882  21.4882  21.4882  22.2158  22.2158
    22.2158  22.2159

          k = 0.0556-0.4981 0.1667 ( 11370 PWs)   bands (ev):

   -66.8302 -66.8300 -66.7729 -66.7727 -66.7596 -66.7594 -66.7480 -66.7478
   -66.7476 -66.7474 -66.7447 -66.7445 -66.7363 -66.7361 -66.6934 -66.6932
   -33.0863 -33.0862 -33.0705 -33.0703 -33.0700 -33.0697 -33.0687 -33.0686
   -33.0466 -33.0465 -33.0142 -33.0141 -33.0123 -33.0123 -32.9283 -32.9281
   -32.8920 -32.8919 -32.8389 -32.8388 -32.8184 -32.8182 -32.8145 -32.8144
   -32.8033 -32.8031 -32.7740 -32.7739 -32.7423 -32.7422 -32.7382 -32.7382
   -32.6922 -32.6922 -32.6668 -32.6667 -32.6625 -32.6624 -32.6594 -32.6593
   -32.6466 -32.6464 -32.6378 -32.6378 -32.6181 -32.6180 -32.6174 -32.6173
    12.8221  12.8222  15.1510  15.1511  15.6217  15.6218  15.9186  15.9187
    16.0564  16.0564  16.2049  16.2050  16.3072  16.3073  16.3358  16.3359
    16.3512  16.3514  17.1615  17.1616  17.1862  17.1863  17.7128  17.7129
    17.7290  17.7291  17.7615  17.7616  17.8147  17.8148  18.1434  18.1435
    18.1799  18.1800  18.2431  18.2432  18.3603  18.3605  18.3825  18.3826
    18.3931  18.3932  18.4340  18.4341  18.5018  18.5018  19.2636  19.2638
    19.7333  19.7335  19.7638  19.7639  19.8840  19.8842  19.9286  19.9287
    19.9653  19.9654  19.9915  19.9915  20.3303  20.3304  20.4615  20.4617
    20.4750  20.4752  20.5937  20.5938  20.6501  20.6502  20.6893  20.6894
    20.7930  20.7931  20.8959  20.8960  21.0035  21.0035  21.0809  21.0809
    21.2434  21.2435  21.4031  21.4031  21.8164  21.8164  22.5306  22.5306
    23.1609  23.1609

          k = 0.0556-0.4981 0.2778 ( 11378 PWs)   bands (ev):

   -66.8251 -66.8249 -66.7854 -66.7853 -66.7583 -66.7581 -66.7499 -66.7497
   -66.7471 -66.7469 -66.7447 -66.7445 -66.7256 -66.7254 -66.6966 -66.6965
   -33.0920 -33.0920 -33.0645 -33.0644 -33.0644 -33.0643 -33.0642 -33.0641
   -33.0466 -33.0465 -33.0370 -33.0370 -32.9740 -32.9740 -32.9191 -32.9189
   -32.8594 -32.8593 -32.8483 -32.8482 -32.8433 -32.8431 -32.8196 -32.8195
   -32.8125 -32.8124 -32.7850 -32.7849 -32.7814 -32.7814 -32.7234 -32.7233
   -32.7194 -32.7193 -32.6602 -32.6601 -32.6565 -32.6564 -32.6543 -32.6541
   -32.6537 -32.6537 -32.6380 -32.6380 -32.6016 -32.6015 -32.6014 -32.6012
    13.0558  13.0559  14.7202  14.7203  15.8060  15.8060  16.0921  16.0921
    16.2206  16.2206  16.2802  16.2803  16.3418  16.3419  16.4051  16.4051
    16.4740  16.4741  17.2272  17.2273  17.2537  17.2538  17.5285  17.5286
    17.5449  17.5450  17.5618  17.5619  17.7561  17.7562  18.1328  18.1328
    18.1486  18.1487  18.1608  18.1608  18.1969  18.1970  18.1989  18.1989
    18.3573  18.3573  18.3629  18.3630  18.4218  18.4218  19.5144  19.5145
    19.6443  19.6443  19.6996  19.6998  19.8673  19.8675  19.9537  19.9538
    19.9707  19.9709  20.0017  20.0018  20.1576  20.1577  20.3952  20.3953
    20.4086  20.4088  20.5372  20.5374  20.5818  20.5819  20.6706  20.6707
    20.6945  20.6945  20.7198  20.7199  20.8112  20.8113  20.9369  20.9370
    21.4184  21.4185  21.5293  21.5293  22.2523  22.2524  22.9823  22.9824
    24.1856  24.1857

          k = 0.0556-0.4981 0.3889 ( 11386 PWs)   bands (ev):

   -66.8176 -66.8174 -66.7974 -66.7972 -66.7566 -66.7564 -66.7521 -66.7519
   -66.7464 -66.7462 -66.7450 -66.7448 -66.7162 -66.7160 -66.7016 -66.7014
   -33.0886 -33.0886 -33.0601 -33.0600 -33.0597 -33.0597 -33.0595 -33.0594
   -33.0574 -33.0573 -33.0481 -33.0480 -32.9280 -32.9280 -32.9053 -32.9051
   -32.8666 -32.8664 -32.8523 -32.8523 -32.8363 -32.8362 -32.8293 -32.8293
   -32.8251 -32.8251 -32.8104 -32.8103 -32.7966 -32.7965 -32.7563 -32.7563
   -32.6985 -32.6984 -32.6656 -32.6655 -32.6523 -32.6522 -32.6518 -32.6517
   -32.6499 -32.6498 -32.6401 -32.6401 -32.5914 -32.5913 -32.5911 -32.5910
    13.3892  13.3893  14.2569  14.2570  16.0372  16.0373  16.2999  16.2999
    16.3156  16.3157  16.3299  16.3301  16.3429  16.3430  16.4684  16.4685
    16.6858  16.6859  17.2489  17.2491  17.2920  17.2921  17.2930  17.2931
    17.3633  17.3634  17.4223  17.4224  17.8023  17.8024  17.9237  17.9237
    18.0089  18.0089  18.0093  18.0094  18.0298  18.0300  18.0731  18.0731
    18.3321  18.3322  18.3544  18.3545  18.6279  18.6279  19.2852  19.2852
    19.7036  19.7037  19.7825  19.7826  19.9595  19.9596  20.0029  20.0030
    20.0559  20.0560  20.0597  20.0598  20.0634  20.0636  20.2991  20.2992
    20.3069  20.3071  20.3326  20.3327  20.4735  20.4736  20.5250  20.5250
    20.6976  20.6977  20.7490  20.7491  20.7608  20.7609  20.8410  20.8411
    21.5454  21.5454  21.5997  21.5997  22.7322  22.7322  23.4845  23.4846
    23.7136  23.7137

          k = 0.0556-0.4981-0.5000 ( 11404 PWs)   bands (ev):

   -66.8084 -66.8082 -66.8081 -66.8080 -66.7545 -66.7543 -66.7543 -66.7541
   -66.7458 -66.7456 -66.7455 -66.7454 -66.7083 -66.7081 -66.7080 -66.7079
   -33.0777 -33.0776 -33.0775 -33.0773 -33.0581 -33.0580 -33.0579 -33.0578
   -33.0517 -33.0515 -33.0515 -33.0514 -32.8877 -32.8876 -32.8875 -32.8873
   -32.8793 -32.8791 -32.8791 -32.8790 -32.8483 -32.8482 -32.8481 -32.8479
   -32.8055 -32.8054 -32.8053 -32.8052 -32.7907 -32.7906 -32.7905 -32.7905
   -32.6807 -32.6805 -32.6804 -32.6803 -32.6494 -32.6493 -32.6492 -32.6492
   -32.6452 -32.6451 -32.6450 -32.6450 -32.5880 -32.5878 -32.5877 -32.5876
    13.7999  13.8001  13.8004  13.8005  16.2431  16.2432  16.2434  16.2435
    16.3468  16.3469  16.3471  16.3474  16.4513  16.4513  16.4515  16.4515
    16.9539  16.9540  16.9542  16.9544  17.2895  17.2897  17.2898  17.2898
    17.3375  17.3377  17.3378  17.3378  17.8953  17.8955  17.8956  17.8956
    17.8962  17.8962  17.8963  17.8965  17.9849  17.9850  17.9851  17.9853
    18.3223  18.3223  18.3224  18.3224  18.9410  18.9410  18.9410  18.9410
    19.7944  19.7946  19.7947  19.7948  20.0514  20.0514  20.0515  20.0516
    20.0849  20.0849  20.0851  20.0851  20.1820  20.1822  20.1822  20.1823
    20.1847  20.1849  20.1849  20.1850  20.4514  20.4515  20.4516  20.4516
    20.7265  20.7265  20.7266  20.7268  20.7841  20.7842  20.7843  20.7843
    21.6064  21.6065  21.6067  21.6067  23.2254  23.2255  23.2256  23.2257
    23.9947  23.9949

          k = 0.1667 0.0553 0.1667 ( 11365 PWs)   bands (ev):

   -66.8583 -66.7832 -66.7830 -66.7657 -66.7573 -66.7523 -66.7521 -66.7493
   -66.7480 -66.7477 -66.7439 -66.7433 -66.7422 -66.7331 -66.7329 -66.6715
   -33.1490 -33.1431 -33.1430 -33.1350 -33.1350 -33.1228 -33.0021 -32.9854
   -32.9777 -32.9724 -32.9721 -32.9644 -32.9610 -32.9577 -32.9326 -32.8881
   -32.8726 -32.8724 -32.8391 -32.8387 -32.8386 -32.8076 -32.7968 -32.7966
   -32.7927 -32.7877 -32.7876 -32.7769 -32.7768 -32.7742 -32.7712 -32.7646
   -32.7529 -32.7398 -32.7345 -32.7344 -32.7090 -32.6969 -32.6966 -32.6295
   -32.6173 -32.6072 -32.6072 -32.5993 -32.5993 -32.5978 -32.5896 -32.5870
    11.6693  14.7274  14.7274  15.3603  15.3832  15.5195  15.5195  15.5961
    15.5962  15.6065  15.7989  15.8121  15.8730  16.1753  16.1753  16.9607
    17.0746  17.2495  17.2992  17.2992  17.3040  17.3042  17.3165  17.3410
    17.3412  17.3690  17.4402  17.5593  17.5894  17.5987  17.8832  18.2708
    18.2708  18.4771  18.5368  18.5370  18.5672  18.6061  18.7498  18.7801
    19.0729  19.0730  19.1611  19.1613  19.2085  19.2656  19.3700  19.4526
    19.4526  19.4740  19.4742  19.6505  19.6505  19.8267  19.9127  19.9128
    20.1693  20.2712  20.2713  20.2820  20.3282  20.3283  20.3388  20.3499
    20.3835  20.5445  20.5980  20.6309  20.6311  20.6382  20.6384  20.6405
    20.6415  20.7474  20.7474  20.9690  21.0727  21.0728  21.1045  21.1047
    21.2063  21.4374  21.4723  21.6030  21.6781  21.9915  22.3453  22.3454
    22.5567  22.7158

          k = 0.1667 0.0553 0.2778 ( 11378 PWs)   bands (ev):

   -66.8518 -66.7998 -66.7806 -66.7643 -66.7625 -66.7546 -66.7511 -66.7489
   -66.7474 -66.7470 -66.7446 -66.7428 -66.7406 -66.7336 -66.7181 -66.6763
   -33.1366 -33.1260 -33.1258 -33.1197 -33.1127 -33.0938 -33.0107 -33.0084
   -33.0074 -32.9960 -32.9941 -32.9919 -32.9732 -32.9668 -32.9413 -32.9179
   -32.8767 -32.8723 -32.8350 -32.8348 -32.8303 -32.8287 -32.8093 -32.8026
   -32.8005 -32.7929 -32.7869 -32.7752 -32.7735 -32.7613 -32.7566 -32.7371
   -32.7368 -32.7210 -32.7118 -32.7024 -32.6838 -32.6671 -32.6668 -32.6597
   -32.6376 -32.6196 -32.6194 -32.6144 -32.6093 -32.6068 -32.5927 -32.5908
    11.9379  14.0679  14.8606  15.3132  15.4851  15.5569  15.6928  15.7166
    15.7449  15.7849  15.9150  15.9373  15.9431  16.2105  16.3269  16.8446
    16.9278  16.9529  17.1873  17.2660  17.2766  17.2960  17.3391  17.4009
    17.4079  17.4670  17.5507  17.6057  17.7228  17.7875  17.7891  18.1362
    18.2798  18.4005  18.4051  18.4202  18.4675  18.5209  18.5500  18.7365
    18.7505  18.9116  18.9423  19.0949  19.1554  19.2334  19.2749  19.2751
    19.3364  19.4570  19.4705  19.5239  19.5545  19.6763  19.7066  20.0445
    20.1675  20.1759  20.2191  20.2507  20.3090  20.3174  20.3552  20.3976
    20.5662  20.5863  20.5878  20.6371  20.6422  20.6669  20.6685  20.6957
    20.7358  20.8400  20.8650  20.8778  20.8828  20.9151  20.9660  21.0757
    21.1790  21.3999  21.4555  21.5109  21.6718  22.1359  22.1840  22.7381
    22.8649  22.9905

          k = 0.1667 0.0553 0.3889 ( 11364 PWs)   bands (ev):

   -66.8421 -66.8156 -66.7770 -66.7676 -66.7622 -66.7571 -66.7497 -66.7483
   -66.7474 -66.7463 -66.7459 -66.7437 -66.7380 -66.7345 -66.7046 -66.6836
   -33.1147 -33.1014 -33.0999 -33.0978 -33.0823 -33.0563 -33.0492 -33.0396
   -33.0336 -33.0321 -33.0117 -33.0063 -33.0043 -32.9661 -32.9549 -32.9184
   -32.9036 -32.8620 -32.8584 -32.8288 -32.8266 -32.8181 -32.8122 -32.8073
   -32.7999 -32.7981 -32.7834 -32.7745 -32.7741 -32.7499 -32.7401 -32.7254
   -32.6993 -32.6964 -32.6896 -32.6839 -32.6731 -32.6625 -32.6589 -32.6404
   -32.6397 -32.6376 -32.6369 -32.6366 -32.6260 -32.6196 -32.6020 -32.6014
    12.3300  13.4211  15.0168  15.2526  15.5770  15.5996  15.8083  15.9020
    15.9677  15.9914  16.0449  16.0667  16.1175  16.1737  16.3236  16.6330
    16.6357  16.6511  17.1586  17.2019  17.2202  17.2439  17.5105  17.5429
    17.5570  17.6186  17.6286  17.7701  17.8234  17.9635  18.0116  18.0731
    18.1942  18.2050  18.2687  18.2774  18.3794  18.3814  18.4201  18.4652
    18.4972  18.5315  18.5860  18.7420  18.7872  18.7873  19.0684  19.4521
    19.5009  19.6404  19.6598  19.7097  19.7114  19.7423  19.9125  19.9832
    19.9941  20.0477  20.1195  20.1834  20.3278  20.3807  20.4046  20.4839
    20.5240  20.5296  20.5314  20.6348  20.6411  20.6505  20.6551  20.7217
    20.7255  20.7604  20.8099  20.9208  20.9211  21.0337  21.0706  21.1667
    21.1696  21.1816  21.3769  21.5743  21.6361  22.0011  22.3222  22.6645
    23.0405  23.1893

          k = 0.1667 0.0553-0.5000 ( 11350 PWs)   bands (ev):

   -66.8300 -66.8298 -66.7727 -66.7725 -66.7598 -66.7596 -66.7481 -66.7480
   -66.7477 -66.7475 -66.7449 -66.7447 -66.7361 -66.7359 -66.6932 -66.6930
   -33.0849 -33.0849 -33.0706 -33.0704 -33.0702 -33.0700 -33.0676 -33.0675
   -33.0456 -33.0455 -33.0132 -33.0131 -33.0107 -33.0106 -32.9316 -32.9314
   -32.8918 -32.8917 -32.8385 -32.8384 -32.8213 -32.8210 -32.8143 -32.8142
   -32.8033 -32.8031 -32.7741 -32.7739 -32.7445 -32.7442 -32.7384 -32.7384
   -32.6922 -32.6922 -32.6654 -32.6651 -32.6614 -32.6612 -32.6584 -32.6583
   -32.6474 -32.6471 -32.6371 -32.6370 -32.6183 -32.6182 -32.6177 -32.6177
    12.8312  12.8317  15.1553  15.1557  15.6162  15.6165  15.9138  15.9142
    16.0570  16.0573  16.2183  16.2186  16.3164  16.3167  16.3452  16.3455
    16.3512  16.3517  17.1788  17.1789  17.2030  17.2032  17.7149  17.7151
    17.7317  17.7319  17.7354  17.7355  17.8211  17.8215  18.1193  18.1194
    18.1743  18.1745  18.2383  18.2385  18.3662  18.3663  18.3685  18.3687
    18.3720  18.3722  18.4136  18.4138  18.5151  18.5153  19.2494  19.2497
    19.7524  19.7527  19.7815  19.7816  19.8900  19.8901  19.9359  19.9361
    19.9766  19.9767  19.9910  19.9911  20.3192  20.3193  20.4522  20.4524
    20.4653  20.4656  20.5923  20.5926  20.6345  20.6347  20.6731  20.6732
    20.7930  20.7931  20.8810  20.8811  21.0065  21.0066  21.0720  21.0720
    21.2448  21.2450  21.4067  21.4067  21.8089  21.8090  22.5129  22.5130
    23.1762  23.1766

          k = 0.1667 0.1660 0.1667 ( 11357 PWs)   bands (ev):

   -66.8550 -66.7823 -66.7820 -66.7818 -66.7571 -66.7569 -66.7566 -66.7449
   -66.7441 -66.7439 -66.7436 -66.7415 -66.7336 -66.7334 -66.7331 -66.6738
   -33.1410 -33.1409 -33.1402 -33.1171 -33.1171 -33.1166 -32.9983 -32.9983
   -32.9954 -32.9896 -32.9895 -32.9891 -32.9421 -32.9366 -32.9363 -32.8956
   -32.8955 -32.8946 -32.8447 -32.8446 -32.8435 -32.8013 -32.7993 -32.7992
   -32.7909 -32.7897 -32.7731 -32.7729 -32.7717 -32.7690 -32.7669 -32.7668
   -32.7364 -32.7363 -32.7357 -32.7279 -32.6812 -32.6810 -32.6802 -32.6507
   -32.6210 -32.6198 -32.6198 -32.5977 -32.5964 -32.5963 -32.5930 -32.5928
    11.8033  14.7882  14.8061  14.8061  15.4663  15.4665  15.4665  15.7013
    15.7035  15.7035  15.8627  15.8720  16.2085  16.2277  16.2277  16.8764
    17.1775  17.1778  17.2696  17.2736  17.2736  17.2969  17.3263  17.3264
    17.4067  17.4355  17.4357  17.4508  17.5225  17.5392  18.1144  18.1178
    18.1178  18.4654  18.4669  18.4671  18.4788  18.4826  18.8977  18.8977
    18.9009  18.9091  19.0838  19.0839  19.1019  19.2683  19.2684  19.2686
    19.4784  19.4784  19.5033  19.5430  19.5431  19.5587  20.1133  20.1134
    20.1208  20.1809  20.1810  20.2041  20.2901  20.3145  20.3310  20.3311
    20.3566  20.5911  20.5911  20.6010  20.6185  20.6204  20.6309  20.6342
    20.6955  20.7454  20.7456  20.7461  21.0758  21.1010  21.1011  21.3019
    21.3019  21.3148  21.3285  21.3362  22.0487  22.0487  22.0537  22.7705
    22.8249  22.8249

          k = 0.1667 0.1660 0.2778 ( 11385 PWs)   bands (ev):

   -66.8487 -66.7981 -66.7798 -66.7794 -66.7621 -66.7617 -66.7557 -66.7470
   -66.7435 -66.7414 -66.7408 -66.7405 -66.7342 -66.7338 -66.7188 -66.6785
   -33.1289 -33.1282 -33.1234 -33.1050 -33.0901 -33.0896 -33.0202 -33.0172
   -33.0169 -33.0079 -33.0065 -32.9844 -32.9834 -32.9315 -32.9309 -32.9193
   -32.9134 -32.8798 -32.8527 -32.8465 -32.8448 -32.8155 -32.8133 -32.8109
   -32.8049 -32.7986 -32.7749 -32.7606 -32.7587 -32.7447 -32.7424 -32.7416
   -32.7397 -32.7387 -32.7028 -32.7023 -32.6821 -32.6590 -32.6581 -32.6547
   -32.6380 -32.6368 -32.6274 -32.6128 -32.6050 -32.6003 -32.5990 -32.5937
    12.0689  14.1634  14.9311  14.9472  15.4208  15.4229  15.6729  15.8383
    15.8398  15.8858  15.9823  15.9908  16.2683  16.2841  16.3884  16.7977
    16.9528  17.0191  17.1531  17.2810  17.2849  17.2879  17.3745  17.3770
    17.3892  17.4057  17.5513  17.5535  17.5814  17.7437  17.9721  17.9722
    18.2605  18.2840  18.2972  18.3722  18.3904  18.4554  18.6356  18.6501
    18.6503  18.6668  18.8782  19.0176  19.0337  19.0388  19.0530  19.0948
    19.3936  19.4924  19.4985  19.6383  19.6458  19.7943  19.8809  20.0711
    20.0915  20.1909  20.2475  20.2754  20.2979  20.3510  20.3624  20.3633
    20.3854  20.3876  20.5797  20.5807  20.5964  20.6209  20.6327  20.6348
    20.6470  20.8634  20.9106  20.9149  20.9418  21.0077  21.0823  21.0831
    21.1035  21.3803  21.3830  21.3947  21.7872  21.7896  22.6742  22.9742
    23.0237  23.4293

          k = 0.1667 0.1660 0.3889 ( 11388 PWs)   bands (ev):

   -66.8393 -66.8135 -66.7763 -66.7759 -66.7671 -66.7668 -66.7539 -66.7493
   -66.7428 -66.7416 -66.7384 -66.7380 -66.7351 -66.7347 -66.7058 -66.6856
   -33.1085 -33.1078 -33.0980 -33.0874 -33.0554 -33.0551 -33.0493 -33.0490
   -33.0434 -33.0268 -33.0158 -33.0157 -32.9732 -32.9729 -32.9656 -32.9122
   -32.8940 -32.8881 -32.8428 -32.8406 -32.8373 -32.8360 -32.8249 -32.8225
   -32.8078 -32.7992 -32.7845 -32.7534 -32.7517 -32.7432 -32.7419 -32.7200
   -32.7122 -32.7113 -32.7032 -32.6781 -32.6721 -32.6592 -32.6582 -32.6398
   -32.6379 -32.6370 -32.6363 -32.6317 -32.6225 -32.6077 -32.6065 -32.6006
    12.4562  13.5302  15.1005  15.1138  15.3577  15.3631  15.9628  15.9950
    15.9954  16.1335  16.1403  16.1593  16.2540  16.2634  16.3931  16.6518
    16.6523  16.6806  17.1620  17.2409  17.2754  17.3063  17.4179  17.4233
    17.5087  17.5358  17.7214  17.7459  17.8287  17.8446  17.8572  18.0056
    18.1644  18.1661  18.2378  18.2511  18.3145  18.3333  18.3422  18.3595
    18.3761  18.4239  18.5609  18.5778  18.5871  18.6028  19.2304  19.3503
    19.5949  19.6492  19.7396  19.7411  19.7419  19.7522  19.9557  19.9719
    20.0087  20.0238  20.0959  20.1549  20.1729  20.3326  20.3976  20.4536
    20.5090  20.5215  20.6035  20.6167  20.6180  20.6259  20.6605  20.6970
    20.6988  20.7171  20.7687  20.8212  21.0898  21.0970  21.1184  21.1335
    21.1456  21.3516  21.3537  21.3643  21.5325  21.5332  23.2122  23.2566
    23.3648  23.5204

          k = 0.1667 0.1660-0.5000 ( 11386 PWs)   bands (ev):

   -66.8275 -66.8273 -66.7721 -66.7719 -66.7717 -66.7715 -66.7518 -66.7515
   -66.7423 -66.7421 -66.7366 -66.7363 -66.7362 -66.7360 -66.6948 -66.6946
   -33.0811 -33.0810 -33.0805 -33.0805 -33.0665 -33.0663 -33.0655 -33.0652
   -33.0186 -33.0186 -33.0156 -33.0156 -33.0154 -33.0153 -32.9413 -32.9411
   -32.8661 -32.8660 -32.8626 -32.8624 -32.8351 -32.8349 -32.8327 -32.8325
   -32.7935 -32.7934 -32.7629 -32.7628 -32.7478 -32.7475 -32.7461 -32.7459
   -32.6840 -32.6840 -32.6831 -32.6830 -32.6668 -32.6665 -32.6570 -32.6568
   -32.6453 -32.6451 -32.6204 -32.6204 -32.6193 -32.6191 -32.6135 -32.6134
    12.9503  12.9509  15.2521  15.2525  15.2616  15.2619  16.1467  16.1471
    16.1507  16.1510  16.2914  16.2917  16.3105  16.3109  16.3836  16.3841
    16.4097  16.4100  17.1951  17.1953  17.2588  17.2590  17.6772  17.6773
    17.6777  17.6780  17.6783  17.6786  17.7008  17.7009  18.1329  18.1331
    18.1446  18.1446  18.1794  18.1797  18.2522  18.2524  18.2629  18.2631
    18.2997  18.2999  18.3062  18.3063  18.3869  18.3870  19.4297  19.4299
    19.6617  19.6617  19.8178  19.8181  19.8432  19.8434  19.8531  19.8531
    19.9714  19.9716  19.9855  19.9856  20.4230  20.4233  20.4288  20.4289
    20.4573  20.4576  20.5649  20.5651  20.6106  20.6108  20.7155  20.7157
    20.7166  20.7167  20.7342  20.7343  21.2471  21.2471  21.2562  21.2563
    21.2596  21.2598  21.2936  21.2936  21.2960  21.2961  23.4203  23.4205
    23.4598  23.4601

          k = 0.1667 0.2767 0.1667 ( 11381 PWs)   bands (ev):

   -66.8487 -66.7985 -66.7796 -66.7793 -66.7622 -66.7619 -66.7553 -66.7470
   -66.7432 -66.7414 -66.7409 -66.7407 -66.7340 -66.7337 -66.7191 -66.6786
   -33.1291 -33.1290 -33.1228 -33.1044 -33.0902 -33.0902 -33.0204 -33.0181
   -33.0179 -33.0098 -33.0066 -32.9835 -32.9824 -32.9319 -32.9318 -32.9193
   -32.9133 -32.8785 -32.8519 -32.8453 -32.8452 -32.8172 -32.8109 -32.8108
   -32.8040 -32.7981 -32.7762 -32.7588 -32.7587 -32.7458 -32.7427 -32.7426
   -32.7387 -32.7386 -32.7026 -32.7023 -32.6820 -32.6592 -32.6590 -32.6538
   -32.6371 -32.6371 -32.6286 -32.6137 -32.6048 -32.5992 -32.5991 -32.5935
    12.0669  14.1481  14.9457  14.9457  15.4216  15.4216  15.6708  15.8403
    15.8403  15.8816  15.9798  15.9902  16.2831  16.2831  16.3700  16.7926
    16.9509  17.0074  17.1470  17.2618  17.2837  17.2838  17.3493  17.3775
    17.4050  17.4051  17.5673  17.5803  17.5804  17.7588  17.9755  17.9755
    18.2593  18.2898  18.2900  18.3829  18.4015  18.4435  18.6456  18.6456
    18.6516  18.6516  18.8968  19.0186  19.0186  19.0568  19.0578  19.1059
    19.3862  19.4879  19.4880  19.6304  19.6304  19.8112  19.8898  20.0716
    20.0717  20.1736  20.2672  20.2719  20.2720  20.3664  20.3741  20.3763
    20.3859  20.3859  20.5761  20.5787  20.6062  20.6292  20.6420  20.6420
    20.6450  20.8473  20.9136  20.9137  20.9408  21.0215  21.0921  21.1029
    21.1030  21.3745  21.3854  21.3855  21.7856  21.7857  22.6798  23.0204
    23.0204  23.4359

          k = 0.1667 0.2767 0.2778 ( 11380 PWs)   bands (ev):

   -66.8425 -66.7950 -66.7947 -66.7771 -66.7697 -66.7604 -66.7602 -66.7497
   -66.7406 -66.7404 -66.7402 -66.7350 -66.7343 -66.7206 -66.7203 -66.6830
   -33.1225 -33.1127 -33.1118 -33.0821 -33.0815 -33.0592 -33.0327 -33.0309
   -33.0307 -33.0304 -33.0165 -32.9930 -32.9797 -32.9559 -32.9246 -32.8931
   -32.8904 -32.8896 -32.8797 -32.8791 -32.8566 -32.8322 -32.8304 -32.8289
   -32.7834 -32.7736 -32.7725 -32.7662 -32.7649 -32.7437 -32.7434 -32.7285
   -32.7182 -32.7157 -32.7058 -32.7057 -32.6839 -32.6581 -32.6472 -32.6401
   -32.6393 -32.6365 -32.6355 -32.6149 -32.6138 -32.6121 -32.5961 -32.5937
    12.3264  14.3293  14.3419  15.1028  15.2652  15.6347  15.6353  15.9993
    16.0149  16.0186  16.0887  16.1133  16.3876  16.4384  16.4530  16.7658
    16.9466  17.0039  17.0051  17.2095  17.2315  17.3348  17.3596  17.4249
    17.4397  17.4594  17.4655  17.4875  17.7313  17.7448  17.8179  18.0857
    18.0897  18.1806  18.2259  18.2359  18.2875  18.3089  18.3885  18.4570
    18.5139  18.5291  18.6601  18.6799  18.7311  18.8026  18.8080  19.2428
    19.5912  19.5936  19.6297  19.7506  19.8215  19.8369  19.9648  20.0111
    20.1588  20.1687  20.1737  20.1756  20.1824  20.2558  20.2925  20.3158
    20.3450  20.5453  20.5470  20.5494  20.5811  20.6136  20.6210  20.6245
    20.6402  20.8139  20.8281  20.9390  20.9667  21.0794  21.0824  21.0987
    21.1090  21.1953  21.3673  21.4677  21.4700  22.3330  22.3370  23.2915
    24.0157  24.0731

          k = 0.1667 0.2767 0.3889 ( 11380 PWs)   bands (ev):

   -66.8337 -66.8092 -66.7901 -66.7772 -66.7738 -66.7650 -66.7582 -66.7526
   -66.7403 -66.7401 -66.7380 -66.7351 -66.7301 -66.7229 -66.7083 -66.6895
   -33.1073 -33.0942 -33.0889 -33.0711 -33.0582 -33.0526 -33.0499 -33.0454
   -33.0361 -33.0270 -33.0248 -33.0209 -32.9866 -32.9635 -32.9332 -32.9117
   -32.9077 -32.8726 -32.8649 -32.8600 -32.8553 -32.8461 -32.8456 -32.8455
   -32.8045 -32.7817 -32.7724 -32.7585 -32.7559 -32.7480 -32.7407 -32.7308
   -32.7115 -32.6954 -32.6943 -32.6827 -32.6758 -32.6672 -32.6548 -32.6444
   -32.6355 -32.6354 -32.6284 -32.6188 -32.6188 -32.6182 -32.5983 -32.5965
    12.7035  13.7396  14.5690  15.0690  15.2921  15.5754  15.9355  16.1628
    16.1707  16.2294  16.2568  16.2875  16.4183  16.4208  16.4707  16.6648
    16.6931  16.7380  17.1899  17.2171  17.2929  17.3037  17.3392  17.3866
    17.4487  17.5653  17.5674  17.6154  17.6974  17.8475  17.8806  17.8978
    18.0047  18.0642  18.1316  18.1618  18.1895  18.2189  18.2364  18.2532
    18.2767  18.3106  18.3207  18.3395  18.4197  18.5092  19.0205  19.4531
    19.6480  19.7514  19.8144  19.8242  19.8278  19.8654  19.8810  19.9264
    20.0755  20.0763  20.0844  20.1749  20.1942  20.2668  20.3430  20.4063
    20.4598  20.4761  20.4825  20.5606  20.6119  20.6142  20.6504  20.6715
    20.6731  20.6879  20.6881  20.7863  20.8863  20.9984  21.1171  21.1732
    21.2264  21.2406  21.3752  21.4021  21.4612  22.0116  22.9412  23.6084
    24.1051  24.2130

          k = 0.1667 0.2767-0.5000 ( 11382 PWs)   bands (ev):

   -66.8225 -66.8223 -66.7842 -66.7840 -66.7698 -66.7695 -66.7556 -66.7554
   -66.7402 -66.7400 -66.7364 -66.7362 -66.7262 -66.7259 -66.6980 -66.6978
   -33.0852 -33.0850 -33.0725 -33.0724 -33.0590 -33.0588 -33.0583 -33.0581
   -33.0344 -33.0343 -33.0203 -33.0202 -32.9781 -32.9780 -32.9401 -32.9399
   -32.8826 -32.8824 -32.8611 -32.8609 -32.8557 -32.8555 -32.8349 -32.8348
   -32.8002 -32.8001 -32.7784 -32.7783 -32.7529 -32.7527 -32.7202 -32.7200
   -32.7104 -32.7103 -32.6730 -32.6730 -32.6631 -32.6629 -32.6540 -32.6538
   -32.6499 -32.6497 -32.6257 -32.6257 -32.6059 -32.6058 -32.6048 -32.6047
    13.1821  13.1826  14.8289  14.8293  15.4620  15.4623  16.2942  16.2946
    16.3134  16.3137  16.3236  16.3239  16.3755  16.3759  16.4966  16.4970
    16.5081  16.5084  17.2504  17.2505  17.3184  17.3185  17.4860  17.4863
    17.4991  17.4994  17.5808  17.5810  17.7159  17.7160  17.9186  17.9188
    18.0838  18.0839  18.0978  18.0980  18.1004  18.1006  18.1594  18.1595
    18.2182  18.2183  18.2288  18.2289  18.2869  18.2870  19.3085  19.3085
    19.6821  19.6822  19.8349  19.8351  19.9271  19.9273  19.9721  19.9722
    20.0184  20.0186  20.0230  20.0231  20.3753  20.3755  20.3776  20.3778
    20.4105  20.4108  20.5153  20.5156  20.5920  20.5922  20.6123  20.6125
    20.7028  20.7030  20.7500  20.7502  20.9003  20.9003  21.0691  21.0692
    21.3282  21.3283  21.3780  21.3780  21.6934  21.6935  23.5730  23.5732
    23.9051  23.9054

          k = 0.1667 0.3874 0.1667 ( 11375 PWs)   bands (ev):

   -66.8394 -66.8137 -66.7761 -66.7759 -66.7672 -66.7669 -66.7536 -66.7492
   -66.7426 -66.7415 -66.7384 -66.7381 -66.7349 -66.7347 -66.7060 -66.6857
   -33.1089 -33.1088 -33.0975 -33.0871 -33.0559 -33.0559 -33.0502 -33.0500
   -33.0434 -33.0266 -33.0172 -33.0162 -32.9739 -32.9739 -32.9636 -32.9106
   -32.8937 -32.8883 -32.8407 -32.8406 -32.8387 -32.8352 -32.8225 -32.8224
   -32.8069 -32.7986 -32.7852 -32.7517 -32.7516 -32.7418 -32.7417 -32.7198
   -32.7123 -32.7123 -32.7042 -32.6785 -32.6717 -32.6586 -32.6586 -32.6408
   -32.6378 -32.6377 -32.6375 -32.6308 -32.6222 -32.6070 -32.6069 -32.6002
    12.4514  13.5184  15.1107  15.1107  15.3602  15.3602  15.9578  15.9967
    15.9967  16.1269  16.1292  16.1632  16.2627  16.2628  16.3764  16.6435
    16.6522  16.6701  17.1506  17.2190  17.2634  17.2860  17.4201  17.4202
    17.5345  17.5347  17.7420  17.7422  17.8477  17.8588  17.8588  18.0230
    18.1637  18.1638  18.2429  18.2430  18.3287  18.3364  18.3435  18.3753
    18.3753  18.4150  18.5636  18.5637  18.6090  18.6217  19.2380  19.3608
    19.5826  19.6584  19.7292  19.7292  19.7355  19.7356  19.9546  19.9547
    20.0068  20.0149  20.1126  20.1484  20.1484  20.3473  20.4160  20.4619
    20.5117  20.5270  20.6129  20.6255  20.6263  20.6263  20.6721  20.6901
    20.7151  20.7152  20.7810  20.8345  21.0945  21.0946  21.1161  21.1438
    21.1439  21.3468  21.3575  21.3576  21.5297  21.5297  23.2492  23.2492
    23.3698  23.5369

          k = 0.1667 0.3874 0.2778 ( 11386 PWs)   bands (ev):

   -66.8337 -66.8094 -66.7900 -66.7771 -66.7738 -66.7652 -66.7580 -66.7526
   -66.7402 -66.7400 -66.7382 -66.7351 -66.7301 -66.7227 -66.7085 -66.6895
   -33.1077 -33.0952 -33.0882 -33.0707 -33.0588 -33.0535 -33.0506 -33.0454
   -33.0360 -33.0275 -33.0247 -33.0213 -32.9871 -32.9628 -32.9340 -32.9110
   -32.9081 -32.8727 -32.8646 -32.8589 -32.8567 -32.8461 -32.8449 -32.8438
   -32.8037 -32.7816 -32.7730 -32.7573 -32.7556 -32.7473 -32.7414 -32.7308
   -32.7115 -32.6959 -32.6943 -32.6830 -32.6758 -32.6676 -32.6542 -32.6452
   -32.6362 -32.6354 -32.6282 -32.6197 -32.6181 -32.6174 -32.5987 -32.5962
    12.7007  13.7301  14.5779  15.0709  15.2905  15.5741  15.9325  16.1640
    16.1736  16.2248  16.2509  16.2881  16.4187  16.4289  16.4577  16.6592
    16.6880  16.7385  17.1916  17.2061  17.2832  17.2908  17.3307  17.3701
    17.4710  17.5649  17.5812  17.6305  17.7047  17.8423  17.8920  17.8992
    18.0105  18.0629  18.1294  18.1575  18.1829  18.2203  18.2444  18.2602
    18.2957  18.2961  18.3357  18.3399  18.4205  18.5074  19.0261  19.4562
    19.6508  19.7435  19.8129  19.8161  19.8182  19.8598  19.8799  19.9326
    20.0619  20.0742  20.0903  20.1699  20.1743  20.2792  20.3617  20.4118
    20.4621  20.4786  20.4882  20.5714  20.6139  20.6172  20.6437  20.6702
    20.6780  20.6880  20.6949  20.7942  20.8957  20.9966  21.1101  21.1705
    21.2234  21.2436  21.3724  21.4010  21.4623  22.0083  22.9446  23.6046
    24.0922  24.2140

          k = 0.1667 0.3874 0.3889 ( 11382 PWs)   bands (ev):

   -66.8255 -66.8033 -66.8031 -66.7868 -66.7707 -66.7627 -66.7625 -66.7561
   -66.7391 -66.7383 -66.7381 -66.7357 -66.7229 -66.7121 -66.7119 -66.6952
   -33.0979 -33.0763 -33.0756 -33.0596 -33.0592 -33.0544 -33.0505 -33.0502
   -33.0468 -33.0414 -33.0347 -33.0056 -32.9803 -32.9498 -32.9088 -32.9026
   -32.9024 -32.8896 -32.8890 -32.8725 -32.8705 -32.8692 -32.8681 -32.8339
   -32.7981 -32.7742 -32.7718 -32.7712 -32.7644 -32.7637 -32.7529 -32.7122
   -32.7103 -32.6843 -32.6841 -32.6772 -32.6769 -32.6587 -32.6524 -32.6519
   -32.6418 -32.6349 -32.6342 -32.6337 -32.6059 -32.6053 -32.5954 -32.5942
    13.0606  14.0245  14.0309  14.7338  15.5159  15.8689  15.8698  16.3052
    16.3255  16.3986  16.4033  16.4659  16.4724  16.4825  16.5063  16.5553
    16.7135  16.9503  16.9515  17.2164  17.2770  17.3214  17.3778  17.3953
    17.4116  17.4196  17.5640  17.5750  17.5770  17.6444  17.8493  17.9342
    17.9352  17.9370  17.9981  18.0126  18.0734  18.0799  18.0942  18.1255
    18.1544  18.1787  18.1828  18.2675  18.2764  18.6986  18.7010  19.2899
    19.7005  19.8558  19.9215  19.9246  19.9521  19.9832  19.9914  19.9918
    20.1071  20.1680  20.1897  20.1987  20.2292  20.2316  20.2384  20.2523
    20.3912  20.4135  20.4137  20.4701  20.4978  20.5835  20.5887  20.6199
    20.6475  20.6483  20.6978  20.7068  20.8551  20.9115  20.9173  20.9365
    21.3526  21.3545  21.4145  21.4918  21.7539  22.5380  22.5401  23.6458
    24.0156  24.7280

          k = 0.1667 0.3874-0.5000 ( 11384 PWs)   bands (ev):

   -66.8153 -66.8151 -66.7958 -66.7955 -66.7669 -66.7667 -66.7596 -66.7594
   -66.7386 -66.7384 -66.7368 -66.7366 -66.7170 -66.7168 -66.7028 -66.7026
   -33.0812 -33.0810 -33.0632 -33.0631 -33.0545 -33.0544 -33.0532 -33.0531
   -33.0481 -33.0480 -33.0275 -33.0274 -32.9354 -32.9352 -32.9288 -32.9286
   -32.8928 -32.8927 -32.8876 -32.8874 -32.8766 -32.8765 -32.8437 -32.8436
   -32.8027 -32.8026 -32.7694 -32.7693 -32.7582 -32.7580 -32.7400 -32.7399
   -32.6969 -32.6967 -32.6630 -32.6629 -32.6610 -32.6608 -32.6547 -32.6545
   -32.6534 -32.6533 -32.6336 -32.6336 -32.5980 -32.5978 -32.5976 -32.5974
    13.5127  13.5132  14.3718  14.3723  15.7277  15.7280  16.2066  16.2070
    16.4091  16.4095  16.4213  16.4218  16.5332  16.5334  16.6197  16.6200
    16.7106  16.7109  17.2468  17.2471  17.3102  17.3105  17.3145  17.3146
    17.3272  17.3273  17.4772  17.4774  17.7293  17.7295  17.7690  17.7691
    17.8853  17.8855  17.9419  17.9421  17.9968  17.9969  18.0235  18.0237
    18.1832  18.1833  18.2201  18.2202  18.4060  18.4061  18.9636  18.9636
    19.8972  19.8974  19.9570  19.9570  20.0458  20.0460  20.0790  20.0791
    20.1047  20.1047  20.1078  20.1080  20.2127  20.2128  20.3133  20.3135
    20.3243  20.3245  20.4598  20.4600  20.4862  20.4863  20.5739  20.5739
    20.6321  20.6323  20.6798  20.6800  20.7794  20.7795  20.9194  20.9195
    21.4133  21.4135  21.4511  21.4512  22.1424  22.1426  23.0880  23.0883
    24.4172  24.4174

          k = 0.1667-0.4981 0.1667 ( 11388 PWs)   bands (ev):

   -66.8277 -66.8275 -66.7719 -66.7719 -66.7718 -66.7715 -66.7516 -66.7514
   -66.7421 -66.7419 -66.7364 -66.7364 -66.7363 -66.7360 -66.6949 -66.6948
   -33.0818 -33.0818 -33.0817 -33.0817 -33.0664 -33.0662 -33.0652 -33.0650
   -33.0197 -33.0196 -33.0163 -33.0162 -33.0162 -33.0162 -32.9394 -32.9392
   -32.8656 -32.8655 -32.8632 -32.8631 -32.8327 -32.8326 -32.8326 -32.8325
   -32.7937 -32.7936 -32.7623 -32.7623 -32.7461 -32.7460 -32.7459 -32.7459
   -32.6841 -32.6841 -32.6840 -32.6840 -32.6678 -32.6677 -32.6577 -32.6576
   -32.6449 -32.6448 -32.6200 -32.6199 -32.6198 -32.6198 -32.6129 -32.6129
    12.9423  12.9425  15.2581  15.2581  15.2582  15.2582  16.1511  16.1511
    16.1511  16.1512  16.2773  16.2773  16.3027  16.3028  16.3862  16.3864
    16.4010  16.4011  17.1782  17.1783  17.2434  17.2436  17.6763  17.6764
    17.6764  17.6766  17.6998  17.6998  17.6999  17.7000  18.1481  18.1481
    18.1481  18.1482  18.2001  18.2002  18.2545  18.2546  18.2546  18.2547
    18.3169  18.3170  18.3183  18.3183  18.3811  18.3811  19.4389  19.4391
    19.6705  19.6705  19.8022  19.8024  19.8384  19.8384  19.8385  19.8385
    19.9643  19.9643  19.9644  19.9644  20.4323  20.4325  20.4439  20.4439
[...]
   -32.9313 -32.9312 -32.9191 -32.9189 -32.9129 -32.9128 -32.8683 -32.8683
   -32.7745 -32.7745 -32.7324 -32.7323 -32.7217 -32.7216 -32.7194 -32.7193
   -32.6941 -32.6938 -32.6785 -32.6784 -32.6585 -32.6584 -32.6583 -32.6581
   -32.6551 -32.6549 -32.6295 -32.6294 -32.6116 -32.6116 -32.6092 -32.6091
    13.7490  13.7495  14.6070  14.6074  15.3482  15.3486  15.9979  15.9984
    16.5827  16.5830  16.5921  16.5924  16.7359  16.7362  16.7632  16.7636
    16.7997  16.7999  17.2504  17.2508  17.2736  17.2739  17.3551  17.3553
    17.3699  17.3700  17.5533  17.5535  17.5645  17.5646  17.6886  17.6888
    17.7408  17.7410  17.7733  17.7734  17.8857  17.8858  17.9192  17.9193
    17.9720  17.9720  18.0476  18.0477  18.0930  18.0931  18.5834  18.5835
    20.1203  20.1205  20.1340  20.1340  20.1504  20.1506  20.1582  20.1584
    20.2052  20.2053  20.2406  20.2407  20.3573  20.3576  20.3780  20.3782
    20.4292  20.4294  20.4554  20.4555  20.4985  20.4987  20.5418  20.5420
    20.5721  20.5723  20.7696  20.7696  20.8838  20.8839  20.9549  20.9549
    21.2070  21.2070  21.2283  21.2284  21.6733  21.6734  22.5701  22.5703
    25.4632  25.4634

          k = 0.3889 0.3874 0.3889 ( 11408 PWs)   bands (ev):

   -66.8135 -66.7943 -66.7942 -66.7940 -66.7799 -66.7797 -66.7796 -66.7688
   -66.7308 -66.7257 -66.7255 -66.7254 -66.7168 -66.7167 -66.7165 -66.7029
   -33.0583 -33.0583 -33.0575 -33.0446 -33.0443 -33.0440 -33.0264 -33.0063
   -33.0042 -32.9996 -32.9994 -32.9994 -32.9925 -32.9916 -32.9467 -32.9466
   -32.9454 -32.9385 -32.9383 -32.9382 -32.9315 -32.9302 -32.9299 -32.8616
   -32.7746 -32.7213 -32.7211 -32.7205 -32.7072 -32.7070 -32.7068 -32.6944
   -32.6936 -32.6818 -32.6816 -32.6816 -32.6798 -32.6793 -32.6792 -32.6608
   -32.6331 -32.6322 -32.6322 -32.6272 -32.6268 -32.6230 -32.6227 -32.6220
    13.6488  14.5556  14.5610  14.5610  15.2917  15.2917  15.2944  16.0763
    16.6554  16.6645  16.7273  16.7329  16.7329  16.8949  16.9027  16.9028
    16.9268  16.9268  16.9309  17.0183  17.3612  17.3730  17.4283  17.4426
    17.5005  17.5185  17.5186  17.5284  17.5285  17.5402  17.6168  17.6253
    17.6253  17.7388  17.7389  17.7517  17.7697  17.7732  17.7733  17.8040
    17.8042  17.8135  17.9479  17.9650  18.0588  18.0588  18.0600  18.5307
    20.1093  20.1160  20.1161  20.2487  20.2758  20.2774  20.2807  20.2807
    20.2822  20.2824  20.2901  20.2964  20.3412  20.3413  20.3557  20.4590
    20.4606  20.4890  20.4890  20.4894  20.5009  20.5102  20.5103  20.5807
    20.5972  20.8867  20.9027  20.9050  20.9050  20.9105  20.9782  20.9783
    20.9903  21.0195  21.0346  21.0347  21.6539  21.6548  21.6548  22.5865
    26.3088  26.3609

          k = 0.3889 0.3874-0.5000 ( 11408 PWs)   bands (ev):

   -66.8046 -66.8044 -66.7877 -66.7875 -66.7874 -66.7873 -66.7748 -66.7746
   -66.7280 -66.7278 -66.7208 -66.7207 -66.7205 -66.7204 -66.7092 -66.7089
   -33.0472 -33.0471 -33.0463 -33.0462 -33.0283 -33.0280 -33.0275 -33.0275
   -33.0128 -33.0127 -32.9788 -32.9785 -32.9690 -32.9689 -32.9689 -32.9687
   -32.9624 -32.9623 -32.9486 -32.9484 -32.9468 -32.9467 -32.8997 -32.8997
   -32.7470 -32.7469 -32.7017 -32.7016 -32.6988 -32.6987 -32.6983 -32.6982
   -32.6895 -32.6894 -32.6893 -32.6891 -32.6680 -32.6679 -32.6605 -32.6602
   -32.6518 -32.6516 -32.6299 -32.6298 -32.6291 -32.6290 -32.6231 -32.6230
    14.0786  14.0791  14.9197  14.9202  14.9240  14.9244  15.6812  15.6816
    16.7839  16.7844  16.8375  16.8379  16.8448  16.8451  16.8490  16.8493
    16.9919  16.9921  17.2182  17.2185  17.2243  17.2247  17.3958  17.3959
    17.4413  17.4415  17.4857  17.4861  17.5080  17.5082  17.6163  17.6165
    17.6292  17.6293  17.7393  17.7394  17.7462  17.7463  17.7974  17.7975
    17.7993  17.7994  17.8417  17.8419  17.8735  17.8737  18.2253  18.2253
    20.2057  20.2059  20.2182  20.2184  20.2280  20.2282  20.3442  20.3442
    20.3552  20.3553  20.3681  20.3684  20.3945  20.3947  20.4603  20.4605
    20.4770  20.4772  20.4783  20.4785  20.4837  20.4839  20.5650  20.5652
    20.6008  20.6009  20.7539  20.7540  20.9708  20.9708  20.9868  20.9869
    21.0032  21.0033  21.2706  21.2707  21.2734  21.2735  22.1123  22.1125
    26.6274  26.6287

          k = 0.3889-0.4981 0.3889 ( 11402 PWs)   bands (ev):

   -66.8047 -66.8045 -66.7876 -66.7875 -66.7875 -66.7872 -66.7747 -66.7745
   -66.7279 -66.7277 -66.7207 -66.7207 -66.7206 -66.7203 -66.7092 -66.7090
   -33.0472 -33.0471 -33.0470 -33.0469 -33.0285 -33.0285 -33.0275 -33.0273
   -33.0128 -33.0127 -32.9775 -32.9773 -32.9690 -32.9690 -32.9690 -32.9688
   -32.9633 -32.9633 -32.9472 -32.9471 -32.9471 -32.9469 -32.8997 -32.8997
   -32.7467 -32.7467 -32.7013 -32.7013 -32.6987 -32.6986 -32.6986 -32.6985
   -32.6893 -32.6892 -32.6892 -32.6891 -32.6682 -32.6682 -32.6610 -32.6609
   -32.6520 -32.6518 -32.6296 -32.6295 -32.6294 -32.6294 -32.6225 -32.6225
    14.0759  14.0760  14.9222  14.9222  14.9223  14.9223  15.6818  15.6819
    16.7900  16.7901  16.8284  16.8285  16.8511  16.8512  16.8512  16.8513
    16.9850  16.9851  17.2147  17.2147  17.2147  17.2149  17.3910  17.3911
    17.4282  17.4282  17.4967  17.4967  17.5197  17.5198  17.6339  17.6339
    17.6339  17.6341  17.7320  17.7321  17.7322  17.7322  17.8022  17.8023
    17.8023  17.8023  17.8564  17.8565  17.8621  17.8622  18.2273  18.2274
    20.1973  20.1975  20.2195  20.2195  20.2196  20.2196  20.3474  20.3475
    20.3475  20.3476  20.3755  20.3757  20.3945  20.3947  20.4527  20.4529
    20.4778  20.4778  20.4854  20.4854  20.4854  20.4855  20.5685  20.5687
    20.6148  20.6148  20.7667  20.7667  20.9799  20.9800  20.9800  20.9801
    20.9896  20.9897  21.2709  21.2710  21.2710  21.2711  22.1119  22.1120
    26.6624  26.6624

          k = 0.3889-0.4981-0.5000 ( 11412 PWs)   bands (ev):

   -66.7969 -66.7967 -66.7966 -66.7965 -66.7816 -66.7814 -66.7814 -66.7812
   -66.7240 -66.7238 -66.7237 -66.7236 -66.7145 -66.7143 -66.7142 -66.7141
   -33.0324 -33.0323 -33.0322 -33.0321 -33.0277 -33.0275 -33.0275 -33.0273
   -32.9908 -32.9907 -32.9906 -32.9906 -32.9735 -32.9733 -32.9733 -32.9731
   -32.9696 -32.9695 -32.9694 -32.9693 -32.9345 -32.9344 -32.9343 -32.9343
   -32.7215 -32.7214 -32.7213 -32.7213 -32.6878 -32.6877 -32.6875 -32.6874
   -32.6816 -32.6814 -32.6813 -32.6813 -32.6635 -32.6634 -32.6633 -32.6632
   -32.6504 -32.6502 -32.6501 -32.6501 -32.6296 -32.6295 -32.6294 -32.6293
    14.4809  14.4811  14.4815  14.4815  15.2997  15.2999  15.3002  15.3003
    16.8531  16.8532  16.8534  16.8537  17.0510  17.0512  17.0514  17.0515
    17.1360  17.1360  17.1362  17.1363  17.1548  17.1549  17.1551  17.1552
    17.5442  17.5444  17.5445  17.5445  17.5618  17.5619  17.5619  17.5622
    17.5633  17.5634  17.5635  17.5635  17.7243  17.7245  17.7246  17.7246
    17.7800  17.7801  17.7801  17.7802  17.9309  17.9310  17.9310  17.9310
    20.2537  20.2538  20.2540  20.2540  20.3137  20.3138  20.3139  20.3140
    20.3984  20.3985  20.3986  20.3987  20.4666  20.4667  20.4669  20.4669
    20.4760  20.4762  20.4762  20.4763  20.5319  20.5320  20.5321  20.5321
    20.8015  20.8016  20.8016  20.8016  20.9093  20.9094  20.9094  20.9095
    20.9502  20.9503  20.9504  20.9505  21.6832  21.6833  21.6833  21.6835
    27.2180  27.2181

          k =-0.5000 0.0553-0.5000 ( 11412 PWs)   bands (ev):

   -66.8081 -66.8081 -66.8079 -66.8077 -66.7547 -66.7547 -66.7545 -66.7543
   -66.7460 -66.7459 -66.7457 -66.7455 -66.7080 -66.7080 -66.7078 -66.7076
   -33.0762 -33.0761 -33.0758 -33.0758 -33.0578 -33.0577 -33.0576 -33.0575
   -33.0514 -33.0512 -33.0512 -33.0511 -32.8911 -32.8910 -32.8909 -32.8906
   -32.8788 -32.8788 -32.8786 -32.8786 -32.8481 -32.8481 -32.8478 -32.8478
   -32.8056 -32.8056 -32.8053 -32.8053 -32.7903 -32.7903 -32.7901 -32.7901
   -32.6820 -32.6817 -32.6817 -32.6813 -32.6486 -32.6484 -32.6483 -32.6483
   -32.6443 -32.6441 -32.6441 -32.6440 -32.5885 -32.5885 -32.5882 -32.5882
    13.8077  13.8080  13.8082  13.8086  16.2466  16.2468  16.2469  16.2471
    16.3473  16.3474  16.3475  16.3478  16.4560  16.4562  16.4563  16.4565
    16.9642  16.9644  16.9645  16.9650  17.2939  17.2941  17.2942  17.2944
    17.3400  17.3402  17.3403  17.3404  17.8721  17.8724  17.8724  17.8724
    17.8924  17.8924  17.8925  17.8926  17.9774  17.9774  17.9775  17.9776
    18.3356  18.3356  18.3357  18.3358  18.9199  18.9200  18.9201  18.9201
    19.7999  19.7999  19.8001  19.8002  20.0470  20.0472  20.0472  20.0473
    20.1080  20.1081  20.1082  20.1084  20.1879  20.1880  20.1881  20.1884
    20.1886  20.1886  20.1887  20.1889  20.4463  20.4463  20.4466  20.4468
    20.6995  20.6996  20.6997  20.6998  20.7571  20.7571  20.7572  20.7573
    21.6106  21.6107  21.6108  21.6108  23.2203  23.2204  23.2204  23.2206
    23.9809  23.9810

          k =-0.5000 0.1660-0.5000 ( 11376 PWs)   bands (ev):

   -66.8062 -66.8061 -66.8059 -66.8057 -66.7638 -66.7637 -66.7635 -66.7633
   -66.7378 -66.7377 -66.7375 -66.7373 -66.7091 -66.7090 -66.7088 -66.7086
   -33.0684 -33.0684 -33.0681 -33.0681 -33.0560 -33.0559 -33.0559 -33.0558
   -33.0369 -33.0368 -33.0367 -33.0367 -32.9133 -32.9131 -32.9131 -32.9129
   -32.8903 -32.8903 -32.8900 -32.8900 -32.8895 -32.8895 -32.8893 -32.8893
   -32.7708 -32.7707 -32.7706 -32.7706 -32.7638 -32.7638 -32.7634 -32.7634
   -32.6780 -32.6778 -32.6777 -32.6774 -32.6557 -32.6555 -32.6555 -32.6554
   -32.6432 -32.6430 -32.6430 -32.6429 -32.5956 -32.5956 -32.5953 -32.5953
    13.9267  13.9270  13.9271  13.9275  16.0041  16.0044  16.0045  16.0047
    16.4383  16.4385  16.4386  16.4389  16.6697  16.6699  16.6699  16.6701
    16.9821  16.9823  16.9824  16.9829  17.2519  17.2521  17.2522  17.2524
    17.3954  17.3956  17.3957  17.3958  17.7343  17.7344  17.7345  17.7346
    17.8415  17.8418  17.8418  17.8418  17.9320  17.9320  17.9320  17.9322
    18.1948  18.1949  18.1950  18.1950  18.6429  18.6430  18.6430  18.6430
    20.0310  20.0310  20.0311  20.0312  20.1220  20.1221  20.1221  20.1224
    20.2170  20.2171  20.2172  20.2174  20.2321  20.2322  20.2323  20.2325
    20.2528  20.2530  20.2530  20.2531  20.4380  20.4381  20.4383  20.4385
    20.6341  20.6342  20.6343  20.6344  20.8028  20.8028  20.8029  20.8029
    21.4681  21.4681  21.4683  21.4683  22.6119  22.6119  22.6119  22.6121
    24.9102  24.9102

          k =-0.5000 0.2767-0.5000 ( 11396 PWs)   bands (ev):

   -66.8023 -66.8022 -66.8020 -66.8019 -66.7729 -66.7729 -66.7727 -66.7725
   -66.7304 -66.7303 -66.7301 -66.7299 -66.7112 -66.7111 -66.7109 -66.7108
   -33.0533 -33.0533 -33.0529 -33.0529 -33.0458 -33.0457 -33.0456 -33.0455
   -33.0163 -33.0161 -33.0161 -33.0160 -32.9437 -32.9436 -32.9435 -32.9434
   -32.9310 -32.9310 -32.9306 -32.9306 -32.9089 -32.9088 -32.9087 -32.9087
   -32.7460 -32.7459 -32.7458 -32.7458 -32.7245 -32.7245 -32.7242 -32.7242
   -32.6714 -32.6712 -32.6712 -32.6709 -32.6666 -32.6664 -32.6664 -32.6663
   -32.6453 -32.6451 -32.6451 -32.6450 -32.6096 -32.6096 -32.6092 -32.6092
    14.1572  14.1576  14.1577  14.1581  15.6886  15.6889  15.6890  15.6893
    16.6116  16.6117  16.6118  16.6121  16.9049  16.9051  16.9051  16.9053
    17.0153  17.0155  17.0156  17.0161  17.2086  17.2088  17.2088  17.2091
    17.4622  17.4625  17.4625  17.4626  17.6035  17.6035  17.6037  17.6037
    17.7657  17.7657  17.7657  17.7659  17.7846  17.7849  17.7849  17.7849
    17.9908  17.9909  17.9910  17.9910  18.2868  18.2868  18.2868  18.2869
    20.1834  20.1835  20.1836  20.1839  20.2615  20.2615  20.2616  20.2619
    20.2953  20.2953  20.2954  20.2955  20.3306  20.3307  20.3308  20.3309
    20.4210  20.4210  20.4213  20.4215  20.5531  20.5533  20.5533  20.5534
    20.5545  20.5546  20.5547  20.5549  20.8190  20.8190  20.8191  20.8191
    21.2320  21.2321  21.2322  21.2322  22.1149  22.1150  22.1150  22.1152
    25.9928  25.9929

          k =-0.5000 0.3874-0.5000 ( 11416 PWs)   bands (ev):

   -66.7968 -66.7968 -66.7966 -66.7964 -66.7817 -66.7816 -66.7814 -66.7813
   -66.7240 -66.7239 -66.7237 -66.7235 -66.7144 -66.7143 -66.7141 -66.7139
   -33.0311 -33.0311 -33.0308 -33.0308 -33.0281 -33.0280 -33.0279 -33.0278
   -32.9907 -32.9906 -32.9905 -32.9905 -32.9749 -32.9748 -32.9747 -32.9746
   -32.9687 -32.9687 -32.9684 -32.9684 -32.9346 -32.9345 -32.9344 -32.9344
   -32.7216 -32.7215 -32.7214 -32.7214 -32.6882 -32.6882 -32.6878 -32.6878
   -32.6813 -32.6811 -32.6810 -32.6810 -32.6638 -32.6635 -32.6635 -32.6633
   -32.6497 -32.6495 -32.6495 -32.6493 -32.6303 -32.6303 -32.6300 -32.6300
    14.4833  14.4836  14.4838  14.4841  15.2980  15.2984  15.2985  15.2988
    16.8476  16.8478  16.8479  16.8482  17.0598  17.0600  17.0601  17.0606
    17.1353  17.1355  17.1356  17.1358  17.1612  17.1614  17.1614  17.1618
    17.5403  17.5405  17.5405  17.5406  17.5557  17.5557  17.5558  17.5560
    17.5695  17.5695  17.5697  17.5697  17.7093  17.7095  17.7096  17.7096
    17.7914  17.7914  17.7915  17.7916  17.9279  17.9280  17.9280  17.9281
    20.2654  20.2655  20.2656  20.2659  20.3106  20.3106  20.3108  20.3110
    20.3934  20.3935  20.3937  20.3939  20.4617  20.4618  20.4619  20.4621
    20.4893  20.4895  20.4895  20.4896  20.5217  20.5217  20.5218  20.5219
    20.7851  20.7851  20.7852  20.7852  20.9078  20.9079  20.9079  20.9080
    20.9623  20.9624  20.9624  20.9624  21.6846  21.6847  21.6847  21.6848
    27.1792  27.1794

          k =-0.5000-0.4981-0.5000 ( 11376 PWs)   bands (ev):

   -66.7899 -66.7898 -66.7898 -66.7897 -66.7897 -66.7895 -66.7893 -66.7893
   -66.7187 -66.7185 -66.7185 -66.7185 -66.7185 -66.7182 -66.7181 -66.7181
   -33.0041 -33.0039 -33.0039 -33.0038 -33.0038 -33.0037 -33.0037 -33.0036
   -33.0023 -33.0022 -33.0022 -33.0021 -33.0020 -33.0020 -33.0017 -33.0017
   -32.9628 -32.9627 -32.9625 -32.9625 -32.9625 -32.9623 -32.9623 -32.9623
   -32.6997 -32.6995 -32.6994 -32.6994 -32.6994 -32.6992 -32.6992 -32.6992
   -32.6567 -32.6567 -32.6566 -32.6566 -32.6565 -32.6565 -32.6563 -32.6562
   -32.6561 -32.6559 -32.6558 -32.6557 -32.6557 -32.6557 -32.6557 -32.6555
    14.8776  14.8779  14.8780  14.8781  14.8782  14.8783  14.8785  14.8786
    17.0994  17.0995  17.0996  17.0996  17.0997  17.0997  17.0999  17.1001
    17.1104  17.1105  17.1106  17.1107  17.1107  17.1107  17.1109  17.1114
    17.6141  17.6141  17.6141  17.6142  17.6142  17.6142  17.6142  17.6143
    17.6248  17.6250  17.6251  17.6252  17.6252  17.6252  17.6252  17.6252
    17.6401  17.6402  17.6402  17.6403  17.6403  17.6404  17.6405  17.6406
    20.3560  20.3560  20.3561  20.3562  20.3562  20.3564  20.3564  20.3567
    20.3616  20.3618  20.3618  20.3618  20.3619  20.3620  20.3621  20.3622
    20.6873  20.6875  20.6875  20.6875  20.6875  20.6876  20.6877  20.6878
    20.7049  20.7052  20.7052  20.7053  20.7053  20.7053  20.7053  20.7053
    21.2870  21.2871  21.2871  21.2871  21.2871  21.2871  21.2871  21.2874
    28.3542  28.3601

     the Fermi energy is    20.4254 ev

!    total energy              =   -5267.70862419 Ry
     Harris-Foulkes estimate   =   -5267.70862824 Ry
     estimated scf accuracy    <       0.00000585 Ry

     total all-electron energy =    -40728.453153 Ry

     The total energy is the sum of the following terms:

     one-electron contribution =   -1625.60678321 Ry
     hartree contribution      =     991.08277290 Ry
     xc contribution           =    -442.92134643 Ry
     ewald contribution        =   -2865.37229040 Ry
     one-center paw contrib.   =   -1324.75915347 Ry
     smearing contrib. (-TS)   =      -0.13182358 Ry

     convergence has been achieved in  13 iterations

     Forces acting on atoms (cartesian axes, Ry/au):

     atom    1 type  1   force =     0.00000000    0.00000000    0.00000000
     atom    2 type  1   force =     0.00005160   -0.00018801    0.00005160
     atom    3 type  1   force =     0.00000000    0.00000000    0.00000000
     atom    4 type  1   force =     0.00005160   -0.00018801   -0.00005160
     atom    5 type  1   force =     0.00000000    0.00000000    0.00000000
     atom    6 type  1   force =     0.00005160    0.00018801    0.00005160
     atom    7 type  1   force =     0.00000000   -0.00000000    0.00000000
     atom    8 type  1   force =     0.00005160    0.00018801   -0.00005160
     atom    9 type  1   force =     0.00000000    0.00000000    0.00000000
     atom   10 type  1   force =    -0.00005160   -0.00018801    0.00005160
     atom   11 type  1   force =     0.00000000   -0.00000000    0.00000000
     atom   12 type  1   force =    -0.00005160   -0.00018801   -0.00005160
     atom   13 type  1   force =     0.00000000    0.00000000    0.00000000
     atom   14 type  1   force =    -0.00005160    0.00018801    0.00005160
     atom   15 type  1   force =     0.00000000   -0.00000000    0.00000000
     atom   16 type  1   force =    -0.00005160    0.00018801   -0.00005160

     Total force =     0.000570     Total SCF correction =     0.003423
     SCF correction compared to forces is large: reduce conv_thr to get better values


     Computing stress (Cartesian axis) and pressure

          total   stress  (Ry/bohr**3)                   (kbar)     P=  -18.58
  -0.00014789   0.00000000   0.00000000        -21.76      0.00      0.00
   0.00000000  -0.00008303   0.00000000          0.00    -12.21      0.00
   0.00000000   0.00000000  -0.00014789          0.00      0.00    -21.76


     Writing output data file iDJfqIMztJLajRIn.save/
 
     init_run     :      6.46s CPU      6.77s WALL (       1 calls)
     electrons    :    282.21s CPU    291.75s WALL (       1 calls)
     forces       :      2.33s CPU      2.57s WALL (       1 calls)
     stress       :      5.84s CPU      5.91s WALL (       1 calls)

     Called by init_run:
     wfcinit      :      6.12s CPU      6.37s WALL (       1 calls)
     potinit      :      0.11s CPU      0.14s WALL (       1 calls)
     hinit0       :      0.15s CPU      0.17s WALL (       1 calls)

     Called by electrons:
     c_bands      :    252.37s CPU    260.08s WALL (      14 calls)
     sum_band     :     28.52s CPU     30.06s WALL (      14 calls)
     v_of_rho     :      0.13s CPU      0.26s WALL (      14 calls)
     newd         :      0.19s CPU      0.25s WALL (      14 calls)
     PAW_pot      :      1.03s CPU      1.07s WALL (      14 calls)
     mix_rho      :      0.04s CPU      0.07s WALL (      14 calls)

     Called by c_bands:
     init_us_2    :      1.45s CPU      1.48s WALL (    2325 calls)
     cegterg      :    245.20s CPU    252.85s WALL (    1050 calls)

     Called by sum_band:
     sum_band:bec :      0.44s CPU      0.44s WALL (    1050 calls)
     addusdens    :      0.20s CPU      0.26s WALL (      14 calls)

     Called by *egterg:
     h_psi        :    112.07s CPU    116.82s WALL (    3144 calls)
     s_psi        :      5.97s CPU      6.01s WALL (    3144 calls)
     g_psi        :      0.24s CPU      0.25s WALL (    2019 calls)
     cdiaghg      :    103.86s CPU    104.16s WALL (    2994 calls)

     Called by h_psi:
     h_psi:pot    :    111.42s CPU    116.16s WALL (    3144 calls)
     h_psi:calbec :      9.01s CPU     10.60s WALL (    3144 calls)
     vloc_psi     :     96.34s CPU     99.44s WALL (    3144 calls)
     add_vuspsi   :      6.05s CPU      6.10s WALL (    3144 calls)

     General routines
     calbec       :     14.37s CPU     16.96s WALL (    4569 calls)
     fft          :      0.15s CPU      0.40s WALL (     207 calls)
     ffts         :      0.04s CPU      0.09s WALL (      28 calls)
     fftw         :    112.39s CPU    115.96s WALL (  871754 calls)
     interpolate  :      0.02s CPU      0.04s WALL (      14 calls)
 
     Parallel routines
     fft_scatt_xy :      7.49s CPU      7.73s WALL (  871989 calls)
     fft_scatt_yz :     75.54s CPU     78.24s WALL (  871989 calls)
 
     PWSCF        :  5m 2.18s CPU     5m20.11s WALL

 
   This run was terminated on:   7:41:19   5Sep2020            

=------------------------------------------------------------------------------=
   JOB DONE.
=------------------------------------------------------------------------------=
