--------------------------------------------------------------------------
WARNING: There was an error initializing an OpenFabrics device.

  Local host:   bear-pg0211u07b
  Local device: mlx5_0
--------------------------------------------------------------------------

     Program PWSCF v.6.3 starts on  5Sep2020 at  8:20:43 

     This program is part of the open-source Quantum ESPRESSO suite
     for quantum simulation of materials; please cite
         "P. Giannozzi et al., J. Phys.:Condens. Matter 21 395502 (2009);
         "P. Giannozzi et al., J. Phys.:Condens. Matter 29 465901 (2017);
          URL http://www.quantum-espresso.org", 
     in publications or presentations arising from this work. More details at
     http://www.quantum-espresso.org/quote

     Parallel version (MPI & OpenMP), running on      40 processor cores
     Number of MPI processes:                40
     Threads/MPI process:                     1

     MPI processes distributed on     1 nodes
     R & G space division:  proc/nbgrp/npool/nimage =      40
     Reading input from wd/ec/ec_3_008.in
Warning: card &IONS ignored
Warning: card ION_DYNAMICS = 'BFGS', ignored
Warning: card / ignored
Warning: card &CELL ignored
Warning: card CELL_DYNAMICS = 'BFGS', ignored
Warning: card CELL_FACTOR = 2.0, ignored
Warning: card PRESS = 0.0, ignored
Warning: card / ignored

     Current dimensions of program PWSCF are:
     Max number of different atomic species (ntypx) = 10
     Max number of k-points (npk) =  40000
     Max angular momentum in pseudopotentials (lmaxx) =  3
               file Fe.pbe-spn-kjpaw_psl.1.0.0.UPF: wavefunction(s)  3P 3D renormalized

     Subspace diagonalization in iterative solution of the eigenvalue problem:
     a serial algorithm will be used

 
     Parallelization info
     --------------------
     sticks:   dense  smooth     PW     G-vecs:    dense   smooth      PW
     Min          92      60     17                 4240     2276     339
     Max          93      62     18                 4245     2281     343
     Sum        3705    2441    681               169741    91143   13613
 


     bravais-lattice index     =            0
     lattice parameter (alat)  =      10.3915  a.u.
     unit-cell volume          =    1127.0065 (a.u.)^3
     number of atoms/cell      =           16
     number of atomic types    =            1
     number of electrons       =       256.00
     number of Kohn-Sham states=          154
     kinetic-energy cutoff     =      71.0000  Ry
     charge density cutoff     =     430.0000  Ry
     convergence threshold     =      5.0E-05
     mixing beta               =       0.1000
     number of iterations used =           10  plain     mixing
     Exchange-correlation      = SLA PW PBX PBC ( 1  4  3  4 0 0)

     celldm(1)=  10.391466  celldm(2)=   0.000000  celldm(3)=   0.000000
     celldm(4)=   0.000000  celldm(5)=   0.000000  celldm(6)=   0.000000

     crystal axes: (cart. coord. in units of alat)
               a(1) = (   1.000000   0.000000   0.000000 )  
               a(2) = (   0.000000   1.000000   0.000000 )  
               a(3) = (   0.000000   0.000000   1.004375 )  

     reciprocal axes: (cart. coord. in units 2 pi/alat)
               b(1) = (  1.000000  0.000000  0.000000 )  
               b(2) = (  0.000000  1.000000  0.000000 )  
               b(3) = (  0.000000  0.000000  0.995644 )  


     PseudoPot. # 1 for Fe read from file:
     /rds/homes/b/bxp912/pp/Fe.pbe-spn-kjpaw_psl.1.0.0.UPF
     MD5 check sum: 42f43b795421b414b0dc916aa790dbcb
     Pseudo is Projector augmented-wave + core cor, Zval = 16.0
     Generated using "atomic" code by A. Dal Corso v.6.3
     Shape of augmentation charge: PSQ
     Using radial grid of 1191 points,  6 beta functions with: 
                l(1) =   0
                l(2) =   0
                l(3) =   1
                l(4) =   1
                l(5) =   2
                l(6) =   2
     Q(r) pseudized with 0 coefficients 


     atomic species   valence    mass     pseudopotential
        Fe            16.00    55.84500     Fe( 1.00)

     16 Sym. Ops., with inversion, found



   Cartesian axes

     site n.     atom                  positions (alat units)
         1           Fe  tau(   1) = (   0.0000000   0.0000000   0.0000000  )
         2           Fe  tau(   2) = (   0.2500089   0.2500089   0.2511027  )
         3           Fe  tau(   3) = (   0.0000000   0.0000000   0.5021870  )
         4           Fe  tau(   4) = (   0.2500089   0.2500089   0.7532723  )
         5           Fe  tau(   5) = (   0.0000000   0.5000001   0.0000000  )
         6           Fe  tau(   6) = (   0.2500089   0.7499912   0.2511027  )
         7           Fe  tau(   7) = (   0.0000000   0.5000001   0.5021870  )
         8           Fe  tau(   8) = (   0.2500089   0.7499912   0.7532723  )
         9           Fe  tau(   9) = (   0.5000001   0.0000000   0.0000000  )
        10           Fe  tau(  10) = (   0.7499912   0.2500089   0.2511027  )
        11           Fe  tau(  11) = (   0.5000001   0.0000000   0.5021870  )
        12           Fe  tau(  12) = (   0.7499912   0.2500089   0.7532723  )
        13           Fe  tau(  13) = (   0.5000001   0.5000001   0.0000000  )
        14           Fe  tau(  14) = (   0.7499912   0.7499912   0.2511027  )
        15           Fe  tau(  15) = (   0.5000001   0.5000001   0.5021870  )
        16           Fe  tau(  16) = (   0.7499912   0.7499912   0.7532723  )

     number of k points=    75  Marzari-Vanderbilt smearing, width (Ry)=  0.0400
                       cart. coord. in units 2pi/alat
        k(    1) = (   0.0555556   0.0555556   0.0553136), wk =   0.0219479
        k(    2) = (   0.0555556   0.0555556   0.1659407), wk =   0.0219479
        k(    3) = (   0.0555556   0.0555556   0.2765678), wk =   0.0219479
        k(    4) = (   0.0555556   0.0555556   0.3871949), wk =   0.0219479
        k(    5) = (   0.0555556   0.0555556  -0.4978220), wk =   0.0109739
        k(    6) = (   0.0555556   0.1666667   0.0553136), wk =   0.0438957
        k(    7) = (   0.0555556   0.1666667   0.1659407), wk =   0.0438957
        k(    8) = (   0.0555556   0.1666667   0.2765678), wk =   0.0438957
        k(    9) = (   0.0555556   0.1666667   0.3871949), wk =   0.0438957
        k(   10) = (   0.0555556   0.1666667  -0.4978220), wk =   0.0219479
        k(   11) = (   0.0555556   0.2777778   0.0553136), wk =   0.0438957
        k(   12) = (   0.0555556   0.2777778   0.1659407), wk =   0.0438957
        k(   13) = (   0.0555556   0.2777778   0.2765678), wk =   0.0438957
        k(   14) = (   0.0555556   0.2777778   0.3871949), wk =   0.0438957
        k(   15) = (   0.0555556   0.2777778  -0.4978220), wk =   0.0219479
        k(   16) = (   0.0555556   0.3888889   0.0553136), wk =   0.0438957
        k(   17) = (   0.0555556   0.3888889   0.1659407), wk =   0.0438957
        k(   18) = (   0.0555556   0.3888889   0.2765678), wk =   0.0438957
        k(   19) = (   0.0555556   0.3888889   0.3871949), wk =   0.0438957
        k(   20) = (   0.0555556   0.3888889  -0.4978220), wk =   0.0219479
        k(   21) = (   0.0555556  -0.5000000   0.0553136), wk =   0.0219479
        k(   22) = (   0.0555556  -0.5000000   0.1659407), wk =   0.0219479
        k(   23) = (   0.0555556  -0.5000000   0.2765678), wk =   0.0219479
        k(   24) = (   0.0555556  -0.5000000   0.3871949), wk =   0.0219479
        k(   25) = (   0.0555556  -0.5000000  -0.4978220), wk =   0.0109739
        k(   26) = (   0.1666667   0.1666667   0.0553136), wk =   0.0219479
        k(   27) = (   0.1666667   0.1666667   0.1659407), wk =   0.0219479
        k(   28) = (   0.1666667   0.1666667   0.2765678), wk =   0.0219479
        k(   29) = (   0.1666667   0.1666667   0.3871949), wk =   0.0219479
        k(   30) = (   0.1666667   0.1666667  -0.4978220), wk =   0.0109739
        k(   31) = (   0.1666667   0.2777778   0.0553136), wk =   0.0438957
        k(   32) = (   0.1666667   0.2777778   0.1659407), wk =   0.0438957
        k(   33) = (   0.1666667   0.2777778   0.2765678), wk =   0.0438957
        k(   34) = (   0.1666667   0.2777778   0.3871949), wk =   0.0438957
        k(   35) = (   0.1666667   0.2777778  -0.4978220), wk =   0.0219479
        k(   36) = (   0.1666667   0.3888889   0.0553136), wk =   0.0438957
        k(   37) = (   0.1666667   0.3888889   0.1659407), wk =   0.0438957
        k(   38) = (   0.1666667   0.3888889   0.2765678), wk =   0.0438957
        k(   39) = (   0.1666667   0.3888889   0.3871949), wk =   0.0438957
        k(   40) = (   0.1666667   0.3888889  -0.4978220), wk =   0.0219479
        k(   41) = (   0.1666667  -0.5000000   0.0553136), wk =   0.0219479
        k(   42) = (   0.1666667  -0.5000000   0.1659407), wk =   0.0219479
        k(   43) = (   0.1666667  -0.5000000   0.2765678), wk =   0.0219479
        k(   44) = (   0.1666667  -0.5000000   0.3871949), wk =   0.0219479
        k(   45) = (   0.1666667  -0.5000000  -0.4978220), wk =   0.0109739
        k(   46) = (   0.2777778   0.2777778   0.0553136), wk =   0.0219479
        k(   47) = (   0.2777778   0.2777778   0.1659407), wk =   0.0219479
        k(   48) = (   0.2777778   0.2777778   0.2765678), wk =   0.0219479
        k(   49) = (   0.2777778   0.2777778   0.3871949), wk =   0.0219479
        k(   50) = (   0.2777778   0.2777778  -0.4978220), wk =   0.0109739
        k(   51) = (   0.2777778   0.3888889   0.0553136), wk =   0.0438957
        k(   52) = (   0.2777778   0.3888889   0.1659407), wk =   0.0438957
        k(   53) = (   0.2777778   0.3888889   0.2765678), wk =   0.0438957
        k(   54) = (   0.2777778   0.3888889   0.3871949), wk =   0.0438957
        k(   55) = (   0.2777778   0.3888889  -0.4978220), wk =   0.0219479
        k(   56) = (   0.2777778  -0.5000000   0.0553136), wk =   0.0219479
        k(   57) = (   0.2777778  -0.5000000   0.1659407), wk =   0.0219479
        k(   58) = (   0.2777778  -0.5000000   0.2765678), wk =   0.0219479
        k(   59) = (   0.2777778  -0.5000000   0.3871949), wk =   0.0219479
        k(   60) = (   0.2777778  -0.5000000  -0.4978220), wk =   0.0109739
        k(   61) = (   0.3888889   0.3888889   0.0553136), wk =   0.0219479
        k(   62) = (   0.3888889   0.3888889   0.1659407), wk =   0.0219479
        k(   63) = (   0.3888889   0.3888889   0.2765678), wk =   0.0219479
        k(   64) = (   0.3888889   0.3888889   0.3871949), wk =   0.0219479
        k(   65) = (   0.3888889   0.3888889  -0.4978220), wk =   0.0109739
        k(   66) = (   0.3888889  -0.5000000   0.0553136), wk =   0.0219479
        k(   67) = (   0.3888889  -0.5000000   0.1659407), wk =   0.0219479
        k(   68) = (   0.3888889  -0.5000000   0.2765678), wk =   0.0219479
        k(   69) = (   0.3888889  -0.5000000   0.3871949), wk =   0.0219479
        k(   70) = (   0.3888889  -0.5000000  -0.4978220), wk =   0.0109739
        k(   71) = (  -0.5000000  -0.5000000   0.0553136), wk =   0.0054870
        k(   72) = (  -0.5000000  -0.5000000   0.1659407), wk =   0.0054870
        k(   73) = (  -0.5000000  -0.5000000   0.2765678), wk =   0.0054870
        k(   74) = (  -0.5000000  -0.5000000   0.3871949), wk =   0.0054870
        k(   75) = (  -0.5000000  -0.5000000  -0.4978220), wk =   0.0027435

     Dense  grid:   169741 G-vectors     FFT dimensions: (  72,  72,  72)

     Smooth grid:    91143 G-vectors     FFT dimensions: (  60,  60,  60)

     Estimated max dynamical RAM per process >      83.49 MB

     Estimated total dynamical RAM >       3.26 GB

     Check: negative/imaginary core charge=   -0.000006    0.000000

     Initial potential from superposition of free atoms

     starting charge  255.99300, renormalised to  256.00000
     Starting wfcs are  160 randomized atomic wfcs
     Checking if some PAW data can be deallocated... 

     total cpu time spent up to now is        7.6 secs

     Self-consistent Calculation

     iteration #  1     ecut=    71.00 Ry     beta= 0.10
     Davidson diagonalization with overlap
     ethr =  1.00E-02,  avg # of iterations =  3.4

     Threshold (ethr) on eigenvalues was too large:
     Diagonalizing with lowered threshold

     Davidson diagonalization with overlap
     ethr =  2.51E-04,  avg # of iterations =  3.2

     total cpu time spent up to now is       62.2 secs

     total energy              =   -5267.75283134 Ry
     Harris-Foulkes estimate   =   -5267.86776546 Ry
     estimated scf accuracy    <       0.72854839 Ry

     iteration #  2     ecut=    71.00 Ry     beta= 0.10
     Davidson diagonalization with overlap
     ethr =  2.85E-04,  avg # of iterations =  1.0

     total cpu time spent up to now is       78.7 secs

     total energy              =   -5267.62004606 Ry
     Harris-Foulkes estimate   =   -5267.76800582 Ry
     estimated scf accuracy    <       0.36093811 Ry

     iteration #  3     ecut=    71.00 Ry     beta= 0.10
     Davidson diagonalization with overlap
     ethr =  1.41E-04,  avg # of iterations =  3.2

     total cpu time spent up to now is      109.8 secs

     total energy              =   -5267.70018028 Ry
     Harris-Foulkes estimate   =   -5267.72322359 Ry
     estimated scf accuracy    <       0.54735131 Ry

     iteration #  4     ecut=    71.00 Ry     beta= 0.10
     Davidson diagonalization with overlap
     ethr =  1.41E-04,  avg # of iterations =  1.0

     total cpu time spent up to now is      126.1 secs

     total energy              =   -5267.70704002 Ry
     Harris-Foulkes estimate   =   -5267.71254212 Ry
     estimated scf accuracy    <       0.03101306 Ry

     iteration #  5     ecut=    71.00 Ry     beta= 0.10
     Davidson diagonalization with overlap
     ethr =  1.21E-05,  avg # of iterations =  1.9

     total cpu time spent up to now is      145.8 secs

     total energy              =   -5267.70609606 Ry
     Harris-Foulkes estimate   =   -5267.70892624 Ry
     estimated scf accuracy    <       0.02179781 Ry

     iteration #  6     ecut=    71.00 Ry     beta= 0.10
     Davidson diagonalization with overlap
     ethr =  8.51E-06,  avg # of iterations =  2.9

     total cpu time spent up to now is      171.8 secs

     total energy              =   -5267.70938553 Ry
     Harris-Foulkes estimate   =   -5267.70862329 Ry
     estimated scf accuracy    <       0.01105904 Ry

     iteration #  7     ecut=    71.00 Ry     beta= 0.10
     Davidson diagonalization with overlap
     ethr =  4.32E-06,  avg # of iterations =  1.1

     total cpu time spent up to now is      188.9 secs

     total energy              =   -5267.70816266 Ry
     Harris-Foulkes estimate   =   -5267.70977363 Ry
     estimated scf accuracy    <       0.01310398 Ry

     iteration #  8     ecut=    71.00 Ry     beta= 0.10
     Davidson diagonalization with overlap
     ethr =  4.32E-06,  avg # of iterations =  1.0

     total cpu time spent up to now is      205.5 secs

     total energy              =   -5267.70849072 Ry
     Harris-Foulkes estimate   =   -5267.70896713 Ry
     estimated scf accuracy    <       0.00795788 Ry

     iteration #  9     ecut=    71.00 Ry     beta= 0.10
     Davidson diagonalization with overlap
     ethr =  3.11E-06,  avg # of iterations =  2.1

     total cpu time spent up to now is      226.0 secs

     total energy              =   -5267.70886339 Ry
     Harris-Foulkes estimate   =   -5267.70887418 Ry
     estimated scf accuracy    <       0.00044925 Ry

     iteration # 10     ecut=    71.00 Ry     beta= 0.10
     Davidson diagonalization with overlap
     ethr =  1.75E-07,  avg # of iterations =  2.4

     total cpu time spent up to now is      247.6 secs

     total energy              =   -5267.70887107 Ry
     Harris-Foulkes estimate   =   -5267.70888302 Ry
     estimated scf accuracy    <       0.00020258 Ry

     iteration # 11     ecut=    71.00 Ry     beta= 0.10
     Davidson diagonalization with overlap
     ethr =  7.91E-08,  avg # of iterations =  1.0

     total cpu time spent up to now is      263.9 secs

     End of self-consistent calculation

          k = 0.0556 0.0556 0.0553 ( 11340 PWs)   bands (ev):

   -66.8864 -66.7888 -66.7885 -66.7881 -66.7726 -66.7723 -66.7719 -66.7714
   -66.7713 -66.7708 -66.7707 -66.7706 -66.7702 -66.7634 -66.7632 -66.6881
   -33.1802 -33.1802 -33.1789 -33.1771 -33.1771 -33.1760 -33.0170 -33.0118
   -33.0068 -32.9386 -32.9358 -32.9356 -32.9354 -32.9143 -32.9141 -32.9012
   -32.9008 -32.9001 -32.8640 -32.8636 -32.8395 -32.8245 -32.8244 -32.8226
   -32.8126 -32.8124 -32.8113 -32.8014 -32.7983 -32.7979 -32.7977 -32.7949
   -32.7945 -32.7890 -32.7889 -32.7871 -32.7777 -32.7776 -32.7764 -32.6153
   -32.6143 -32.6132 -32.6132 -32.6114 -32.6101 -32.6101 -32.6089 -32.6082
    11.3833  15.2451  15.2715  15.2715  15.3914  15.3929  15.3930  15.4173
    15.4190  15.4191  15.6581  15.6701  15.7575  15.7848  15.7848  17.1485
    17.2230  17.2341  17.2370  17.2414  17.2604  17.2604  17.2742  17.2742
    17.3716  17.3857  17.4254  17.6748  17.6844  17.6846  18.0659  18.0775
    18.0778  18.5445  18.5601  18.6068  18.8732  18.8733  18.8909  18.9804
    18.9805  18.9937  19.0636  19.0637  19.0831  19.1613  19.1614  19.1782
    19.9058  19.9061  19.9185  20.1230  20.1231  20.1480  20.1560  20.1562
    20.1656  20.2866  20.2867  20.2901  20.2902  20.3174  20.3205  20.3215
    20.3485  20.5720  20.5721  20.5903  20.5905  20.6041  20.6093  20.6307
    20.6309  20.6485  20.6488  21.1183  21.1185  21.1456  21.3502  21.3691
    21.4146  21.4146  21.4263  21.4311  21.8399  21.8531  21.8531  21.8599
    21.8988  21.8988

          k = 0.0556 0.0556 0.1659 ( 11349 PWs)   bands (ev):

   -66.8830 -66.8063 -66.7877 -66.7874 -66.7745 -66.7742 -66.7714 -66.7710
   -66.7707 -66.7700 -66.7698 -66.7695 -66.7640 -66.7636 -66.7548 -66.6908
   -33.1723 -33.1723 -33.1698 -33.1672 -33.1634 -33.1634 -33.0199 -33.0055
   -32.9972 -32.9752 -32.9673 -32.9671 -32.9644 -32.9637 -32.9337 -32.9334
   -32.8977 -32.8702 -32.8599 -32.8579 -32.8460 -32.8226 -32.8224 -32.8154
   -32.8070 -32.8033 -32.8022 -32.8017 -32.8013 -32.7922 -32.7919 -32.7877
   -32.7875 -32.7858 -32.7857 -32.7528 -32.7520 -32.7518 -32.7429 -32.6306
   -32.6227 -32.6226 -32.6221 -32.6197 -32.6140 -32.6134 -32.6133 -32.6113
    11.5200  14.6156  15.3270  15.3270  15.4029  15.4030  15.4834  15.4835
    15.4911  15.5156  15.7197  15.7344  15.8272  15.8272  16.0938  17.0363
    17.1493  17.1496  17.2062  17.2188  17.2653  17.2869  17.3102  17.3102
    17.3515  17.3515  17.5760  17.5886  17.6386  17.6387  17.9774  17.9776
    18.4183  18.5304  18.5407  18.6720  18.6720  18.6743  18.7402  18.8503
    18.8503  18.8938  19.1458  19.1459  19.2609  19.2610  19.3182  19.4190
    19.5901  19.5903  19.6769  19.8785  19.8788  19.9096  20.0730  20.1358
    20.1360  20.2308  20.2309  20.2444  20.3182  20.3184  20.3401  20.3661
    20.3759  20.3786  20.3787  20.4111  20.6068  20.6122  20.6126  20.6464
    20.6467  20.8253  20.9151  20.9152  21.0661  21.1790  21.2944  21.4184
    21.4220  21.4220  21.4539  21.4540  21.7565  21.7566  21.9423  21.9423
    22.0158  22.0159

          k = 0.0556 0.0556 0.2766 ( 11374 PWs)   bands (ev):

   -66.8763 -66.8235 -66.7863 -66.7860 -66.7768 -66.7765 -66.7706 -66.7705
   -66.7703 -66.7693 -66.7693 -66.7689 -66.7650 -66.7644 -66.7394 -66.6959
   -33.1541 -33.1541 -33.1522 -33.1502 -33.1397 -33.1397 -33.0206 -33.0167
   -33.0110 -33.0089 -33.0088 -32.9930 -32.9869 -32.9823 -32.9778 -32.9776
   -32.8918 -32.8831 -32.8796 -32.8655 -32.8204 -32.8201 -32.8179 -32.8162
   -32.8131 -32.8057 -32.8053 -32.7903 -32.7900 -32.7877 -32.7873 -32.7696
   -32.7620 -32.7508 -32.7507 -32.7203 -32.7189 -32.7187 -32.7111 -32.6559
   -32.6382 -32.6382 -32.6375 -32.6358 -32.6255 -32.6229 -32.6228 -32.6206
    11.7895  13.9418  15.4125  15.4125  15.4395  15.4396  15.5811  15.5812
    15.6826  15.7042  15.8336  15.8615  15.8760  15.8760  16.2405  16.8699
    16.9144  16.9193  17.1033  17.1503  17.1764  17.1869  17.4214  17.4214
    17.4897  17.4897  17.6290  17.6291  17.8313  17.8529  17.9083  17.9085
    18.3847  18.3847  18.5124  18.5358  18.5454  18.5454  18.5798  18.6309
    18.7693  19.0147  19.0313  19.0314  19.2460  19.2462  19.4039  19.4041
    19.4419  19.4421  19.4479  19.4790  19.5265  19.5964  19.7075  20.1008
    20.1318  20.1319  20.2292  20.2294  20.3752  20.3894  20.4300  20.4386
    20.4388  20.5769  20.5783  20.6122  20.6413  20.6434  20.6476  20.6706
    20.6707  20.6948  20.8656  20.9199  21.0477  21.1133  21.1133  21.3467
    21.4350  21.4350  21.5096  21.5096  21.6297  21.6297  22.0208  22.0209
    22.1504  22.1504

          k = 0.0556 0.0556 0.3872 ( 11391 PWs)   bands (ev):

   -66.8666 -66.8396 -66.7843 -66.7840 -66.7792 -66.7790 -66.7702 -66.7698
   -66.7694 -66.7692 -66.7690 -66.7680 -66.7663 -66.7655 -66.7255 -66.7035
   -33.1268 -33.1268 -33.1266 -33.1255 -33.1070 -33.1070 -33.0572 -33.0549
   -33.0520 -33.0519 -33.0238 -33.0237 -33.0190 -33.0032 -32.9747 -32.9628
   -32.9233 -32.9108 -32.8669 -32.8549 -32.8329 -32.8266 -32.8173 -32.8170
   -32.8096 -32.8092 -32.7889 -32.7885 -32.7877 -32.7873 -32.7715 -32.7277
   -32.7235 -32.7163 -32.7162 -32.6907 -32.6891 -32.6875 -32.6873 -32.6821
   -32.6599 -32.6599 -32.6591 -32.6591 -32.6426 -32.6384 -32.6384 -32.6362
    12.1835  13.2847  15.4840  15.4840  15.4846  15.4846  15.6982  15.6983
    15.8773  15.8774  15.9499  15.9665  15.9796  16.0487  16.2324  16.5843
    16.5965  16.6040  17.0932  17.1102  17.1409  17.1497  17.5894  17.5894
    17.6829  17.6830  17.7470  17.7471  17.9456  17.9458  18.1245  18.1245
    18.1590  18.1798  18.2398  18.2398  18.5060  18.5062  18.5075  18.5352
    18.5598  18.5682  18.6810  18.6812  18.8953  19.0076  19.0119  19.2379
    19.3193  19.6423  19.6424  19.6683  19.6685  19.8919  19.9132  19.9977
    19.9979  20.0335  20.0938  20.0939  20.4219  20.4312  20.5067  20.5296
    20.5325  20.6009  20.6191  20.6347  20.6407  20.6539  20.7199  20.7306
    20.7394  20.7396  20.8673  20.9571  20.9571  21.1481  21.1482  21.2248
    21.4012  21.4012  21.4503  21.4503  21.5145  21.5145  22.1157  22.1157
    22.2194  22.2195

          k = 0.0556 0.0556-0.4978 ( 11376 PWs)   bands (ev):

   -66.8543 -66.8540 -66.7822 -66.7817 -66.7815 -66.7815 -66.7699 -66.7695
   -66.7692 -66.7692 -66.7680 -66.7677 -66.7669 -66.7665 -66.7136 -66.7132
   -33.0943 -33.0940 -33.0940 -33.0936 -33.0920 -33.0919 -33.0919 -33.0918
   -33.0679 -33.0677 -33.0676 -33.0676 -33.0134 -33.0131 -32.9514 -32.9510
   -32.9391 -32.9388 -32.8499 -32.8496 -32.8412 -32.8409 -32.8138 -32.8135
   -32.8135 -32.8131 -32.7883 -32.7879 -32.7879 -32.7876 -32.7280 -32.7278
   -32.6908 -32.6904 -32.6891 -32.6887 -32.6856 -32.6855 -32.6853 -32.6853
   -32.6646 -32.6642 -32.6602 -32.6601 -32.6600 -32.6600 -32.6571 -32.6568
    12.6884  12.6889  15.5079  15.5079  15.5082  15.5083  15.8093  15.8094
    15.8096  15.8096  16.1269  16.1274  16.2681  16.2686  16.2763  16.2768
    16.2914  16.2917  17.1093  17.1099  17.1185  17.1192  17.8028  17.8029
    17.8031  17.8031  17.8971  17.8972  17.8973  17.8975  18.0983  18.0988
    18.0989  18.0989  18.2561  18.2564  18.2565  18.2566  18.5208  18.5212
    18.5453  18.5458  18.5535  18.5539  18.5670  18.5674  19.0523  19.0525
    19.6260  19.6267  19.8322  19.8322  19.8324  19.8326  19.9044  19.9044
    19.9045  19.9048  20.2553  20.2555  20.3819  20.3821  20.4757  20.4759
    20.4812  20.4815  20.6033  20.6036  20.6267  20.6271  20.6419  20.6423
    20.9972  20.9974  20.9974  20.9975  21.0619  21.0625  21.2074  21.2075
    21.2076  21.2077  21.4676  21.4677  21.4678  21.4678  22.1956  22.1956
    22.1958  22.1958

          k = 0.0556 0.1667 0.0553 ( 11369 PWs)   bands (ev):

   -66.8829 -66.8059 -66.7881 -66.7875 -66.7744 -66.7739 -66.7718 -66.7713
   -66.7708 -66.7703 -66.7699 -66.7693 -66.7640 -66.7637 -66.7543 -66.6908
   -33.1723 -33.1711 -33.1710 -33.1683 -33.1632 -33.1622 -33.0170 -33.0088
   -32.9975 -32.9751 -32.9663 -32.9662 -32.9642 -32.9638 -32.9327 -32.9324
   -32.8983 -32.8708 -32.8608 -32.8601 -32.8473 -32.8255 -32.8224 -32.8148
   -32.8050 -32.8040 -32.8018 -32.8017 -32.8002 -32.7955 -32.7920 -32.7906
   -32.7877 -32.7840 -32.7836 -32.7542 -32.7504 -32.7499 -32.7439 -32.6300
   -32.6237 -32.6228 -32.6211 -32.6183 -32.6146 -32.6144 -32.6132 -32.6111
    11.5213  14.6394  15.3031  15.3282  15.4023  15.4026  15.4821  15.4831
    15.4938  15.5185  15.7226  15.7332  15.8027  15.8283  16.1204  17.0419
    17.1504  17.1641  17.2417  17.2541  17.2736  17.2761  17.2935  17.3106
    17.3149  17.3518  17.5617  17.5733  17.6307  17.6388  17.9691  17.9783
    18.4280  18.5233  18.5581  18.6504  18.6616  18.6776  18.7264  18.8299
    18.8578  18.8887  19.1662  19.1675  19.2812  19.2847  19.2979  19.4000
    19.5928  19.6144  19.6616  19.8828  19.8863  19.9097  20.0414  20.1347
    20.1459  20.2250  20.2588  20.2656  20.3049  20.3095  20.3350  20.3423
    20.3576  20.3782  20.3867  20.4046  20.5925  20.6166  20.6168  20.6373
    20.6374  20.8065  20.9159  20.9377  21.0987  21.1758  21.2879  21.3787
    21.4225  21.4227  21.4523  21.4718  21.7573  21.7629  21.8870  21.9437
    22.0147  22.0337

          k = 0.0556 0.1667 0.1659 ( 11375 PWs)   bands (ev):

   -66.8797 -66.8051 -66.8046 -66.7868 -66.7792 -66.7738 -66.7733 -66.7706
   -66.7694 -66.7690 -66.7659 -66.7649 -66.7637 -66.7551 -66.7546 -66.6933
   -33.1702 -33.1637 -33.1623 -33.1555 -33.1544 -33.1440 -33.0257 -33.0025
   -32.9985 -32.9938 -32.9936 -32.9860 -32.9826 -32.9783 -32.9544 -32.9085
   -32.8941 -32.8930 -32.8594 -32.8572 -32.8569 -32.8298 -32.8198 -32.8173
   -32.8116 -32.8112 -32.8085 -32.8006 -32.7976 -32.7960 -32.7934 -32.7833
   -32.7744 -32.7626 -32.7542 -32.7539 -32.7316 -32.7196 -32.7177 -32.6516
   -32.6377 -32.6299 -32.6288 -32.6221 -32.6211 -32.6189 -32.6101 -32.6090
    11.6564  14.6922  14.7140  15.3452  15.3898  15.5036  15.5055  15.5795
    15.5820  15.5933  15.7848  15.7954  15.8795  16.1371  16.1611  16.9400
    17.0509  17.2284  17.2540  17.2771  17.2827  17.2886  17.2910  17.3255
    17.3322  17.3432  17.4559  17.5542  17.5781  17.5954  17.8714  18.2457
    18.2503  18.4728  18.5266  18.5363  18.5406  18.5749  18.7187  18.7710
    19.0696  19.0786  19.1243  19.1354  19.1722  19.2386  19.3376  19.4328
    19.4385  19.4570  19.4627  19.6299  19.6585  19.7809  19.8935  19.9052
    20.1223  20.2381  20.2514  20.2792  20.3091  20.3126  20.3339  20.3372
    20.3495  20.5206  20.5662  20.5981  20.5984  20.6166  20.6225  20.6348
    20.6363  20.7292  20.7433  20.9502  21.0526  21.0537  21.0698  21.0844
    21.1896  21.4461  21.4521  21.5778  21.6478  22.0165  22.3234  22.3334
    22.5075  22.6249

          k = 0.0556 0.1667 0.2766 ( 11384 PWs)   bands (ev):

   -66.8731 -66.8217 -66.8022 -66.7855 -66.7843 -66.7761 -66.7724 -66.7701
   -66.7689 -66.7682 -66.7662 -66.7643 -66.7626 -66.7553 -66.7401 -66.6982
   -33.1581 -33.1466 -33.1455 -33.1394 -33.1335 -33.1152 -33.0325 -33.0319
   -33.0282 -33.0176 -33.0147 -33.0135 -32.9898 -32.9887 -32.9629 -32.9398
   -32.8975 -32.8902 -32.8557 -32.8527 -32.8509 -32.8496 -32.8305 -32.8240
   -32.8210 -32.8138 -32.8102 -32.7961 -32.7948 -32.7838 -32.7755 -32.7595
   -32.7558 -32.7432 -32.7345 -32.7222 -32.7066 -32.6892 -32.6878 -32.6814
   -32.6584 -32.6421 -32.6416 -32.6373 -32.6301 -32.6288 -32.6133 -32.6125
    11.9226  14.0364  14.8453  15.2966  15.4873  15.5435  15.6793  15.6983
    15.7314  15.7658  15.8974  15.9205  15.9448  16.1950  16.2902  16.8183
    16.8977  16.9336  17.1629  17.2194  17.2486  17.2497  17.3216  17.3913
    17.4152  17.4501  17.5380  17.6199  17.7254  17.7760  17.7899  18.1201
    18.2783  18.3774  18.3937  18.4160  18.4559  18.4986  18.5106  18.7028
    18.7524  18.9060  18.9253  19.0778  19.1613  19.2363  19.2417  19.2421
    19.3396  19.4159  19.4391  19.4888  19.5171  19.6707  19.6979  20.0013
    20.1230  20.1552  20.1997  20.2282  20.2605  20.3202  20.3581  20.3942
    20.5470  20.5593  20.5614  20.6322  20.6380  20.6546  20.6628  20.6663
    20.7180  20.8369  20.8420  20.8465  20.8666  20.8923  20.9527  21.0550
    21.1636  21.3755  21.4294  21.5182  21.6434  22.1524  22.1620  22.7209
    22.8414  22.9421

          k = 0.0556 0.1667 0.3872 ( 11375 PWs)   bands (ev):

   -66.8636 -66.8373 -66.7987 -66.7895 -66.7834 -66.7785 -66.7710 -66.7696
   -66.7688 -66.7678 -66.7672 -66.7651 -66.7599 -66.7563 -66.7267 -66.7055
   -33.1365 -33.1213 -33.1211 -33.1177 -33.1034 -33.0780 -33.0713 -33.0600
   -33.0539 -33.0536 -33.0350 -33.0280 -33.0266 -32.9879 -32.9718 -32.9396
   -32.9211 -32.8831 -32.8798 -32.8479 -32.8467 -32.8412 -32.8303 -32.8281
   -32.8227 -32.8189 -32.8043 -32.7953 -32.7949 -32.7689 -32.7590 -32.7475
   -32.7219 -32.7181 -32.7119 -32.7065 -32.6932 -32.6838 -32.6815 -32.6615
   -32.6614 -32.6603 -32.6594 -32.6592 -32.6466 -32.6417 -32.6229 -32.6228
    12.3114  13.3940  14.9997  15.2348  15.5736  15.5879  15.7959  15.8878
    15.9633  15.9697  16.0226  16.0422  16.1027  16.1579  16.2894  16.6078
    16.6163  16.6224  17.1291  17.1717  17.1785  17.2027  17.4899  17.5394
    17.5553  17.6044  17.6099  17.7553  17.8346  17.9692  18.0166  18.0775
    18.1731  18.1874  18.2397  18.2602  18.3782  18.3804  18.4258  18.4524
    18.4687  18.4954  18.5727  18.7108  18.7934  18.7949  19.0642  19.4470
    19.4639  19.6218  19.6402  19.6779  19.6802  19.6976  19.8720  19.9407
    19.9863  20.0243  20.0934  20.1341  20.3191  20.3768  20.4011  20.4726
    20.5051  20.5114  20.5115  20.6303  20.6372  20.6449  20.6467  20.6920
    20.7222  20.7491  20.7848  20.9075  20.9146  21.0118  21.0497  21.1459
    21.1538  21.1568  21.3518  21.5471  21.6327  21.9815  22.3288  22.6536
    23.0116  23.1468

          k = 0.0556 0.1667-0.4978 ( 11376 PWs)   bands (ev):

   -66.8517 -66.8513 -66.7945 -66.7941 -66.7813 -66.7809 -66.7696 -66.7694
   -66.7692 -66.7689 -66.7664 -66.7660 -66.7580 -66.7576 -66.7152 -66.7148
   -33.1070 -33.1069 -33.0909 -33.0905 -33.0902 -33.0899 -33.0894 -33.0893
   -33.0674 -33.0673 -33.0350 -33.0349 -33.0335 -33.0333 -32.9488 -32.9485
   -32.9128 -32.9127 -32.8605 -32.8603 -32.8392 -32.8388 -32.8362 -32.8359
   -32.8242 -32.8239 -32.7951 -32.7947 -32.7634 -32.7630 -32.7597 -32.7596
   -32.7138 -32.7138 -32.6883 -32.6879 -32.6840 -32.6837 -32.6810 -32.6810
   -32.6679 -32.6675 -32.6596 -32.6596 -32.6396 -32.6394 -32.6391 -32.6391
    12.8086  12.8090  15.1372  15.1376  15.6076  15.6079  15.9042  15.9045
    16.0418  16.0421  16.1880  16.1885  16.2910  16.2914  16.3195  16.3199
    16.3364  16.3367  17.1427  17.1434  17.1674  17.1680  17.6965  17.6967
    17.7123  17.7127  17.7455  17.7456  17.7976  17.7981  18.1269  18.1271
    18.1631  18.1633  18.2259  18.2260  18.3430  18.3431  18.3648  18.3651
    18.3785  18.3788  18.4192  18.4196  18.4827  18.4832  19.2457  19.2459
    19.7117  19.7122  19.7427  19.7430  19.8625  19.8627  19.9068  19.9070
    19.9432  19.9434  19.9726  19.9727  20.3110  20.3112  20.4414  20.4416
    20.4550  20.4553  20.5721  20.5725  20.6302  20.6305  20.6695  20.6698
    20.7720  20.7720  20.8751  20.8752  20.9826  20.9828  21.0596  21.0596
    21.2215  21.2218  21.3806  21.3807  21.7951  21.7952  22.5098  22.5100
    23.1409  23.1411

          k = 0.0556 0.2778 0.0553 ( 11375 PWs)   bands (ev):

   -66.8762 -66.8230 -66.7866 -66.7861 -66.7768 -66.7763 -66.7709 -66.7708
   -66.7703 -66.7695 -66.7694 -66.7689 -66.7651 -66.7644 -66.7389 -66.6958
   -33.1539 -33.1532 -33.1528 -33.1511 -33.1394 -33.1384 -33.0173 -33.0168
   -33.0113 -33.0079 -33.0072 -32.9964 -32.9858 -32.9831 -32.9764 -32.9763
   -32.8942 -32.8830 -32.8809 -32.8655 -32.8239 -32.8204 -32.8168 -32.8150
   -32.8106 -32.8091 -32.8056 -32.7934 -32.7909 -32.7902 -32.7877 -32.7687
   -32.7611 -32.7492 -32.7487 -32.7214 -32.7176 -32.7169 -32.7120 -32.6557
   -32.6389 -32.6378 -32.6364 -32.6348 -32.6262 -32.6237 -32.6227 -32.6209
    11.7930  13.9618  15.3935  15.4153  15.4383  15.4403  15.5799  15.5805
    15.6875  15.7093  15.8442  15.8563  15.8571  15.8786  16.2652  16.8825
    16.9227  16.9294  17.1108  17.1603  17.2081  17.2186  17.3863  17.4225
    17.4545  17.4909  17.6220  17.6300  17.8119  17.8336  17.9015  17.9096
    18.3603  18.3893  18.5081  18.5210  18.5509  18.5512  18.5749  18.6245
    18.7511  19.0274  19.0311  19.0513  19.2459  19.2683  19.4202  19.4288
    19.4302  19.4517  19.4595  19.4649  19.4977  19.5764  19.6877  20.1232
    20.1272  20.1582  20.2239  20.2568  20.3479  20.3614  20.4142  20.4378
    20.4461  20.5772  20.5781  20.5980  20.6295  20.6313  20.6439  20.6708
    20.6769  20.6791  20.8864  20.9123  21.0374  21.1068  21.1287  21.3505
    21.3963  21.4374  21.5079  21.5181  21.6304  21.6371  21.9723  22.0252
    22.1429  22.1727

          k = 0.0556 0.2778 0.1659 ( 11391 PWs)   bands (ev):

   -66.8731 -66.8213 -66.8026 -66.7854 -66.7844 -66.7757 -66.7727 -66.7701
   -66.7687 -66.7685 -66.7662 -66.7643 -66.7627 -66.7557 -66.7397 -66.6981
   -33.1580 -33.1467 -33.1452 -33.1405 -33.1323 -33.1149 -33.0318 -33.0311
   -33.0283 -33.0168 -33.0150 -33.0135 -32.9904 -32.9880 -32.9635 -32.9386
   -32.8974 -32.8905 -32.8557 -32.8532 -32.8528 -32.8503 -32.8325 -32.8215
   -32.8210 -32.8168 -32.8078 -32.7991 -32.7965 -32.7819 -32.7756 -32.7589
   -32.7562 -32.7426 -32.7341 -32.7221 -32.7061 -32.6895 -32.6878 -32.6816
   -32.6582 -32.6422 -32.6412 -32.6363 -32.6301 -32.6296 -32.6131 -32.6129
    11.9249  14.0548  14.8275  15.2956  15.4890  15.5430  15.6775  15.7023
    15.7305  15.7704  15.9074  15.9142  15.9463  16.1768  16.3128  16.8250
    16.9058  16.9362  17.1725  17.2502  17.2592  17.2800  17.3162  17.3585
    17.4159  17.4178  17.5381  17.6207  17.7097  17.7746  17.7751  18.1159
    18.2817  18.3651  18.3947  18.4186  18.4495  18.4852  18.5094  18.7022
    18.7586  18.9002  18.9451  19.0999  19.1369  19.2147  19.2349  19.2448
    19.3296  19.4266  19.4531  19.5016  19.5342  19.6582  19.6749  19.9991
    20.1388  20.1810  20.2081  20.2562  20.2599  20.2944  20.3303  20.3822
    20.5467  20.5577  20.5591  20.6271  20.6321  20.6512  20.6524  20.6608
    20.7182  20.8232  20.8425  20.8623  20.8762  20.8973  20.9464  21.0257
    21.1747  21.3769  21.4304  21.5198  21.6436  22.1551  22.1715  22.7378
    22.7823  22.9329

          k = 0.0556 0.2778 0.2766 ( 11377 PWs)   bands (ev):

   -66.8669 -66.8182 -66.8178 -66.7922 -66.7840 -66.7750 -66.7745 -66.7697
   -66.7682 -66.7680 -66.7676 -66.7646 -66.7566 -66.7417 -66.7413 -66.7027
   -33.1517 -33.1318 -33.1306 -33.1217 -33.1205 -33.0815 -33.0482 -33.0478
   -33.0444 -33.0443 -33.0346 -33.0315 -33.0093 -32.9787 -32.9387 -32.8984
   -32.8962 -32.8953 -32.8844 -32.8840 -32.8510 -32.8401 -32.8362 -32.8309
   -32.8283 -32.8171 -32.8153 -32.8086 -32.8063 -32.8020 -32.7622 -32.7356
   -32.7264 -32.7259 -32.7201 -32.7168 -32.7137 -32.6899 -32.6830 -32.6628
   -32.6614 -32.6497 -32.6491 -32.6415 -32.6407 -32.6405 -32.6102 -32.6095
    12.1843  14.2131  14.2284  15.1350  15.6110  15.7400  15.7425  15.8619
    15.8656  15.8914  16.0046  16.0466  16.0468  16.3361  16.3533  16.7594
    16.8184  17.0100  17.0128  17.2265  17.2983  17.3102  17.3388  17.3549
    17.3823  17.4411  17.4692  17.6393  17.6647  17.7637  17.8087  18.1757
    18.1759  18.2742  18.2927  18.2954  18.3148  18.3156  18.3715  18.4763
    18.7210  18.7408  18.7827  18.8049  18.9428  19.0024  19.0088  19.0804
    19.5071  19.5093  19.5696  19.6085  19.6494  19.6658  19.8681  19.9574
    19.9661  20.1212  20.2050  20.2284  20.2317  20.2504  20.2765  20.3258
    20.3647  20.5151  20.5168  20.5253  20.6294  20.6395  20.6719  20.7225
    20.7353  20.7416  20.7879  20.7954  20.8146  20.9178  20.9273  21.0945
    21.0984  21.1364  21.4819  21.6723  21.6928  22.3851  22.7914  22.7998
    23.3941  23.4071

          k = 0.0556 0.2778 0.3872 ( 11387 PWs)   bands (ev):

   -66.8578 -66.8330 -66.8130 -66.7998 -66.7821 -66.7773 -66.7731 -66.7695
   -66.7691 -66.7682 -66.7671 -66.7653 -66.7514 -66.7438 -66.7291 -66.7095
   -33.1363 -33.1105 -33.1100 -33.1041 -33.0964 -33.0824 -33.0639 -33.0584
   -33.0569 -33.0563 -33.0536 -33.0410 -33.0371 -32.9614 -32.9458 -32.9135
   -32.9108 -32.8874 -32.8753 -32.8507 -32.8499 -32.8494 -32.8483 -32.8444
   -32.8426 -32.8353 -32.8213 -32.8062 -32.8051 -32.7802 -32.7577 -32.7504
   -32.7322 -32.7123 -32.7079 -32.6991 -32.6979 -32.6932 -32.6735 -32.6618
   -32.6607 -32.6591 -32.6557 -32.6485 -32.6400 -32.6396 -32.6131 -32.6129
    12.5618  13.6036  14.4575  14.9395  15.7302  15.7848  15.9791  16.0121
    16.0552  16.1088  16.1121  16.1333  16.2316  16.3172  16.3504  16.6226
    16.6255  16.7204  17.2002  17.2139  17.2439  17.2541  17.2847  17.4346
    17.4545  17.4917  17.5734  17.5794  17.8309  17.9065  17.9264  17.9437
    18.0555  18.1441  18.1616  18.2170  18.2327  18.2521  18.3343  18.3604
    18.3731  18.4400  18.4573  18.4712  18.5885  18.6625  19.2799  19.2996
    19.6446  19.6608  19.7284  19.7537  19.7560  19.7607  19.7657  19.8708
    19.9748  20.0127  20.0825  20.1209  20.1421  20.2690  20.2963  20.3239
    20.4182  20.4361  20.4514  20.4567  20.5624  20.6367  20.6385  20.6590
    20.6795  20.7460  20.7556  20.7798  20.7842  20.8591  20.8739  20.9431
    21.2685  21.3254  21.4705  21.6244  21.9425  22.5207  22.6695  23.2168
    23.4722  24.1005

          k = 0.0556 0.2778-0.4978 ( 11378 PWs)   bands (ev):

   -66.8465 -66.8462 -66.8070 -66.8066 -66.7800 -66.7796 -66.7715 -66.7712
   -66.7687 -66.7684 -66.7663 -66.7659 -66.7473 -66.7470 -66.7185 -66.7181
   -33.1127 -33.1126 -33.0851 -33.0849 -33.0847 -33.0847 -33.0845 -33.0844
   -33.0673 -33.0672 -33.0579 -33.0579 -32.9949 -32.9949 -32.9397 -32.9393
   -32.8804 -32.8803 -32.8698 -32.8696 -32.8640 -32.8636 -32.8406 -32.8403
   -32.8341 -32.8339 -32.8061 -32.8058 -32.8027 -32.8027 -32.7449 -32.7449
   -32.7406 -32.7402 -32.6818 -32.6814 -32.6780 -32.6777 -32.6756 -32.6753
   -32.6753 -32.6751 -32.6597 -32.6596 -32.6232 -32.6232 -32.6231 -32.6230
    13.0422  13.0427  14.7066  14.7070  15.7917  15.7920  16.0775  16.0777
    16.2058  16.2060  16.2640  16.2644  16.3257  16.3261  16.3888  16.3892
    16.4584  16.4588  17.2087  17.2092  17.2353  17.2358  17.5118  17.5122
    17.5280  17.5284  17.5455  17.5458  17.7401  17.7402  18.1180  18.1183
    18.1313  18.1315  18.1440  18.1440  18.1798  18.1800  18.1839  18.1843
    18.3405  18.3406  18.3452  18.3453  18.4028  18.4032  19.4957  19.4958
    19.6257  19.6258  19.6789  19.6791  19.8457  19.8461  19.9322  19.9323
    19.9492  19.9493  19.9796  19.9797  20.1380  20.1382  20.3748  20.3750
    20.3883  20.3886  20.5158  20.5161  20.5609  20.5610  20.6507  20.6510
    20.6737  20.6739  20.7000  20.7003  20.7910  20.7912  20.9163  20.9164
    21.3962  21.3964  21.5066  21.5067  22.2307  22.2309  22.9612  22.9614
    24.1639  24.1643

          k = 0.0556 0.3889 0.0553 ( 11382 PWs)   bands (ev):

   -66.8664 -66.8393 -66.7845 -66.7840 -66.7794 -66.7788 -66.7702 -66.7699
   -66.7695 -66.7693 -66.7688 -66.7682 -66.7665 -66.7656 -66.7251 -66.7034
   -33.1276 -33.1263 -33.1262 -33.1251 -33.1064 -33.1055 -33.0576 -33.0553
   -33.0506 -33.0500 -33.0226 -33.0220 -33.0159 -33.0010 -32.9780 -32.9640
   -32.9260 -32.9122 -32.8664 -32.8545 -32.8306 -32.8244 -32.8209 -32.8173
   -32.8131 -32.8096 -32.7920 -32.7911 -32.7889 -32.7877 -32.7720 -32.7267
   -32.7225 -32.7153 -32.7146 -32.6917 -32.6889 -32.6868 -32.6860 -32.6829
   -32.6594 -32.6589 -32.6587 -32.6584 -32.6434 -32.6388 -32.6380 -32.6367
    12.1904  13.3003  15.4717  15.4807  15.4864  15.4885  15.6953  15.6990
    15.8654  15.8804  15.9577  15.9745  15.9947  16.0438  16.2546  16.5846
    16.6096  16.6174  17.1074  17.1246  17.1677  17.1763  17.5563  17.5913
    17.6500  17.6853  17.7405  17.7502  17.9401  17.9410  18.1060  18.1255
    18.1362  18.1573  18.2129  18.2436  18.5020  18.5026  18.5203  18.5453
    18.5470  18.5753  18.6760  18.6958  18.8752  18.9811  18.9848  19.2183
    19.3385  19.6527  19.6662  19.6800  19.6951  19.8948  19.9140  19.9962
    20.0142  20.0231  20.0944  20.1223  20.4000  20.4089  20.4974  20.5218
    20.5242  20.5888  20.6054  20.6219  20.6276  20.6392  20.7164  20.7291
    20.7395  20.7435  20.8661  20.9588  20.9614  21.1397  21.1545  21.2274
    21.4011  21.4062  21.4191  21.4554  21.5090  21.5243  22.0765  22.1243
    22.2019  22.2386

          k = 0.0556 0.3889 0.1659 ( 11371 PWs)   bands (ev):

   -66.8635 -66.8370 -66.7990 -66.7896 -66.7833 -66.7783 -66.7713 -66.7695
   -66.7687 -66.7678 -66.7675 -66.7652 -66.7600 -66.7565 -66.7263 -66.7054
   -33.1360 -33.1221 -33.1197 -33.1185 -33.1021 -33.0776 -33.0704 -33.0603
   -33.0544 -33.0522 -33.0340 -33.0267 -33.0259 -32.9869 -32.9725 -32.9409
   -32.9216 -32.8848 -32.8792 -32.8475 -32.8468 -32.8389 -32.8308 -32.8303
   -32.8222 -32.8207 -32.8051 -32.7982 -32.7974 -32.7690 -32.7593 -32.7461
   -32.7211 -32.7182 -32.7113 -32.7061 -32.6932 -32.6831 -32.6812 -32.6628
   -32.6606 -32.6595 -32.6594 -32.6584 -32.6466 -32.6420 -32.6236 -32.6225
    12.3170  13.4081  14.9870  15.2313  15.5765  15.5891  15.7955  15.8853
    15.9652  15.9765  16.0300  16.0567  16.0967  16.1469  16.3101  16.6158
    16.6182  16.6332  17.1431  17.1859  17.2043  17.2277  17.4843  17.5096
    17.5567  17.5819  17.6044  17.7486  17.8370  17.9709  17.9954  18.0571
    18.1689  18.1761  18.2365  18.2425  18.3819  18.3834  18.4301  18.4587
    18.4650  18.4910  18.5873  18.7060  18.7692  18.7693  19.0548  19.4362
    19.4744  19.6302  19.6308  19.6966  19.7009  19.7077  19.8707  19.9586
    19.9661  20.0481  20.1205  20.1394  20.3127  20.3556  20.3776  20.4644
    20.4967  20.5018  20.5160  20.6234  20.6285  20.6329  20.6385  20.7011
    20.7109  20.7494  20.7705  20.9089  20.9195  20.9872  21.0476  21.1485
    21.1605  21.1608  21.3523  21.5484  21.6368  21.9900  22.3352  22.6678
    22.9633  23.1243

          k = 0.0556 0.3889 0.2766 ( 11380 PWs)   bands (ev):

   -66.8578 -66.8327 -66.8132 -66.7999 -66.7820 -66.7771 -66.7733 -66.7696
   -66.7690 -66.7681 -66.7673 -66.7653 -66.7515 -66.7440 -66.7288 -66.7094
   -33.1359 -33.1110 -33.1094 -33.1050 -33.0953 -33.0819 -33.0641 -33.0576
   -33.0572 -33.0564 -33.0534 -33.0408 -33.0364 -32.9615 -32.9450 -32.9135
   -32.9115 -32.8867 -32.8754 -32.8507 -32.8502 -32.8498 -32.8477 -32.8442
   -32.8437 -32.8378 -32.8195 -32.8083 -32.8063 -32.7790 -32.7581 -32.7504
   -32.7324 -32.7118 -32.7074 -32.6989 -32.6974 -32.6932 -32.6734 -32.6612
   -32.6611 -32.6583 -32.6556 -32.6489 -32.6407 -32.6390 -32.6132 -32.6130
    12.5651  13.6150  14.4467  14.9371  15.7314  15.7841  15.9767  16.0171
    16.0536  16.1093  16.1182  16.1393  16.2303  16.3073  16.3653  16.6285
    16.6314  16.7209  17.2099  17.2115  17.2540  17.2773  17.3064  17.4303
    17.4340  17.4707  17.5694  17.5801  17.8160  17.9061  17.9129  17.9450
    18.0557  18.1400  18.1621  18.2094  18.2339  18.2509  18.3457  18.3556
    18.3879  18.4357  18.4373  18.4517  18.5861  18.6667  19.2762  19.2935
    19.6532  19.6667  19.7202  19.7560  19.7640  19.7658  19.7753  19.8562
    19.9721  20.0229  20.1027  20.1438  20.1478  20.2744  20.2775  20.3029
    20.4132  20.4299  20.4457  20.4501  20.5517  20.6346  20.6475  20.6561
    20.6751  20.7289  20.7558  20.7727  20.7873  20.8601  20.8761  20.9487
    21.2660  21.3286  21.4702  21.6256  21.9448  22.5275  22.6729  23.2270
    23.4661  24.0428

          k = 0.0556 0.3889 0.3872 ( 11376 PWs)   bands (ev):

   -66.8495 -66.8267 -66.8264 -66.8097 -66.7802 -66.7757 -66.7754 -66.7715
   -66.7685 -66.7675 -66.7672 -66.7657 -66.7440 -66.7329 -66.7326 -66.7154
   -33.1266 -33.0961 -33.0953 -33.0873 -33.0866 -33.0851 -33.0849 -33.0699
   -33.0696 -33.0670 -33.0660 -33.0509 -32.9969 -32.9458 -32.9020 -32.9016
   -32.8992 -32.8985 -32.8847 -32.8798 -32.8699 -32.8563 -32.8547 -32.8538
   -32.8395 -32.8204 -32.8189 -32.8137 -32.8135 -32.8126 -32.8029 -32.7436
   -32.7338 -32.7081 -32.7077 -32.6904 -32.6841 -32.6811 -32.6692 -32.6667
   -32.6653 -32.6648 -32.6595 -32.6592 -32.6235 -32.6230 -32.6096 -32.6095
    12.9239  13.8953  13.9030  14.6004  15.9042  16.0465  16.0491  16.1951
    16.2148  16.2189  16.2310  16.2466  16.3538  16.3615  16.4294  16.5419
    16.6001  16.9344  16.9368  17.2508  17.2668  17.3317  17.3423  17.3537
    17.3599  17.3676  17.4501  17.5683  17.6582  17.7645  17.8749  17.9572
    17.9577  18.0420  18.1074  18.1185  18.1279  18.1422  18.1638  18.1747
    18.2966  18.2979  18.3092  18.3821  18.4208  18.9445  18.9477  19.5146
    19.6145  19.6865  19.7472  19.7547  19.8657  19.8665  19.8898  19.8985
    20.0165  20.0212  20.0477  20.1308  20.1696  20.1799  20.1838  20.1872
    20.2032  20.3703  20.3742  20.3922  20.4773  20.5672  20.5759  20.6001
    20.6527  20.6833  20.7153  20.7174  20.7535  20.8068  20.8106  20.8330
    21.4509  21.4530  21.5299  21.6356  22.3172  23.0650  23.0984  23.1027
    23.8290  23.8356

          k = 0.0556 0.3889-0.4978 ( 11390 PWs)   bands (ev):

   -66.8391 -66.8388 -66.8189 -66.8185 -66.7782 -66.7778 -66.7737 -66.7734
   -66.7680 -66.7677 -66.7667 -66.7663 -66.7379 -66.7375 -66.7234 -66.7230
   -33.1093 -33.1092 -33.0807 -33.0805 -33.0805 -33.0805 -33.0800 -33.0798
   -33.0779 -33.0776 -33.0687 -33.0685 -32.9491 -32.9490 -32.9258 -32.9255
   -32.8873 -32.8870 -32.8737 -32.8736 -32.8573 -32.8572 -32.8506 -32.8506
   -32.8463 -32.8463 -32.8318 -32.8317 -32.8177 -32.8176 -32.7777 -32.7777
   -32.7197 -32.7193 -32.6869 -32.6865 -32.6739 -32.6736 -32.6734 -32.6731
   -32.6715 -32.6713 -32.6618 -32.6616 -32.6131 -32.6131 -32.6129 -32.6128
    13.3757  13.3761  14.2434  14.2439  16.0226  16.0229  16.2849  16.2852
    16.3007  16.3010  16.3144  16.3147  16.3271  16.3275  16.4524  16.4527
    16.6696  16.6701  17.2322  17.2326  17.2745  17.2746  17.2753  17.2756
    17.3466  17.3470  17.4059  17.4062  17.7862  17.7862  17.9082  17.9083
    17.9919  17.9922  17.9934  17.9935  18.0132  18.0133  18.0562  18.0563
    18.3138  18.3141  18.3356  18.3359  18.6107  18.6109  19.2671  19.2672
    19.6831  19.6833  19.7631  19.7632  19.9396  19.9398  19.9812  19.9816
    20.0339  20.0340  20.0383  20.0384  20.0422  20.0423  20.2784  20.2785
    20.2863  20.2865  20.3119  20.3121  20.4521  20.4524  20.5041  20.5045
    20.6778  20.6781  20.7291  20.7293  20.7409  20.7411  20.8209  20.8210
    21.5229  21.5230  21.5770  21.5770  22.7104  22.7106  23.4632  23.4634
    23.6918  23.6921

          k = 0.0556-0.5000 0.0553 ( 11380 PWs)   bands (ev):

   -66.8539 -66.8539 -66.7822 -66.7820 -66.7815 -66.7813 -66.7699 -66.7697
   -66.7693 -66.7690 -66.7681 -66.7680 -66.7670 -66.7669 -66.7132 -66.7132
   -33.0948 -33.0946 -33.0946 -33.0945 -33.0910 -33.0909 -33.0902 -33.0900
   -33.0669 -33.0668 -33.0660 -33.0658 -33.0108 -33.0106 -32.9543 -32.9542
   -32.9404 -32.9402 -32.8487 -32.8485 -32.8400 -32.8398 -32.8172 -32.8172
   -32.8138 -32.8136 -32.7914 -32.7914 -32.7882 -32.7880 -32.7282 -32.7280
   -32.6896 -32.6896 -32.6880 -32.6880 -32.6852 -32.6850 -32.6842 -32.6842
   -32.6655 -32.6654 -32.6600 -32.6598 -32.6593 -32.6593 -32.6575 -32.6574
    12.6995  12.6998  15.5008  15.5010  15.5117  15.5118  15.8030  15.8032
    15.8115  15.8116  16.1458  16.1459  16.2791  16.2793  16.2873  16.2875
    16.2888  16.2892  17.1303  17.1305  17.1395  17.1396  17.7729  17.7731
    17.8058  17.8059  17.8732  17.8733  17.8998  17.8999  18.0927  18.0929
    18.1008  18.1009  18.2489  18.2491  18.2640  18.2641  18.5131  18.5133
    18.5284  18.5285  18.5422  18.5424  18.5535  18.5536  19.0316  19.0320
    19.6475  19.6476  19.8358  19.8361  19.8568  19.8569  19.9106  19.9109
    19.9326  19.9327  20.2396  20.2397  20.3646  20.3647  20.4600  20.4601
    20.4651  20.4652  20.6026  20.6027  20.6136  20.6137  20.6280  20.6282
    20.9959  20.9960  20.9989  20.9991  21.0632  21.0633  21.2093  21.2094
    21.2105  21.2107  21.4477  21.4478  21.4762  21.4764  22.1670  22.1672
    22.2094  22.2096

          k = 0.0556-0.5000 0.1659 ( 11380 PWs)   bands (ev):

   -66.8513 -66.8513 -66.7946 -66.7945 -66.7809 -66.7808 -66.7697 -66.7696
   -66.7689 -66.7688 -66.7664 -66.7664 -66.7580 -66.7580 -66.7148 -66.7148
   -33.1063 -33.1063 -33.0915 -33.0913 -33.0909 -33.0908 -33.0877 -33.0875
   -33.0658 -33.0656 -33.0341 -33.0341 -33.0326 -33.0325 -32.9493 -32.9491
   -32.9146 -32.9145 -32.8593 -32.8591 -32.8393 -32.8390 -32.8352 -32.8350
   -32.8271 -32.8271 -32.7978 -32.7978 -32.7636 -32.7634 -32.7603 -32.7602
   -32.7129 -32.7129 -32.6872 -32.6871 -32.6832 -32.6831 -32.6810 -32.6808
   -32.6678 -32.6676 -32.6595 -32.6593 -32.6407 -32.6406 -32.6383 -32.6383
    12.8183  12.8186  15.1299  15.1301  15.6103  15.6105  15.9054  15.9055
    16.0362  16.0365  16.2058  16.2060  16.3005  16.3007  16.3294  16.3296
    16.3328  16.3332  17.1629  17.1630  17.1868  17.1870  17.6739  17.6741
    17.6991  17.6993  17.7475  17.7477  17.7938  17.7940  18.1288  18.1289
    18.1589  18.1590  18.2306  18.2308  18.3370  18.3372  18.3546  18.3547
    18.3683  18.3685  18.3964  18.3965  18.4751  18.4752  19.2341  19.2343
    19.7283  19.7285  19.7451  19.7454  19.8843  19.8844  19.9314  19.9315
    19.9517  19.9520  19.9637  19.9638  20.2942  20.2943  20.4258  20.4259
    20.4379  20.4380  20.5718  20.5719  20.6225  20.6226  20.6598  20.6600
    20.7656  20.7657  20.8769  20.8770  20.9721  20.9722  21.0632  21.0634
    21.2210  21.2211  21.3831  21.3832  21.8018  21.8020  22.5204  22.5206
    23.1049  23.1051

          k = 0.0556-0.5000 0.2766 ( 11382 PWs)   bands (ev):

   -66.8462 -66.8462 -66.8070 -66.8069 -66.7796 -66.7796 -66.7715 -66.7715
   -66.7685 -66.7684 -66.7663 -66.7662 -66.7474 -66.7473 -66.7182 -66.7181
   -33.1122 -33.1121 -33.0854 -33.0852 -33.0851 -33.0850 -33.0839 -33.0837
   -33.0664 -33.0662 -33.0579 -33.0578 -32.9943 -32.9942 -32.9397 -32.9395
   -32.8817 -32.8816 -32.8686 -32.8685 -32.8641 -32.8639 -32.8427 -32.8427
   -32.8331 -32.8330 -32.8080 -32.8079 -32.8032 -32.8032 -32.7442 -32.7441
   -32.7406 -32.7404 -32.6810 -32.6809 -32.6774 -32.6773 -32.6756 -32.6755
   -32.6752 -32.6750 -32.6598 -32.6596 -32.6237 -32.6237 -32.6225 -32.6225
    13.0495  13.0498  14.7004  14.7006  15.7927  15.7928  16.0769  16.0771
    16.2013  16.2015  16.2751  16.2754  16.3326  16.3328  16.3964  16.3966
    16.4575  16.4577  17.2261  17.2263  17.2509  17.2511  17.5040  17.5042
    17.5250  17.5251  17.5308  17.5310  17.7414  17.7416  18.0981  18.0982
    18.1354  18.1355  18.1412  18.1414  18.1660  18.1661  18.1812  18.1813
    18.3423  18.3425  18.3427  18.3427  18.3983  18.3985  19.4894  19.4897
    19.6209  19.6210  19.6816  19.6819  19.8559  19.8560  19.9480  19.9481
    19.9667  19.9668  19.9865  19.9867  20.1269  20.1271  20.3621  20.3622
    20.3740  20.3741  20.5162  20.5163  20.5584  20.5585  20.6475  20.6477
    20.6650  20.6650  20.6950  20.6951  20.7921  20.7923  20.9191  20.9192
    21.3950  21.3950  21.5087  21.5088  22.2352  22.2354  22.9681  22.9683
    24.1601  24.1604

          k = 0.0556-0.5000 0.3872 ( 11404 PWs)   bands (ev):

   -66.8389 -66.8388 -66.8188 -66.8188 -66.7779 -66.7779 -66.7737 -66.7737
   -66.7678 -66.7678 -66.7666 -66.7665 -66.7378 -66.7378 -66.7232 -66.7231
   -33.1092 -33.1091 -33.0807 -33.0806 -33.0805 -33.0803 -33.0800 -33.0798
   -33.0783 -33.0782 -33.0680 -33.0679 -32.9490 -32.9490 -32.9258 -32.9256
   -32.8873 -32.8870 -32.8728 -32.8727 -32.8583 -32.8583 -32.8509 -32.8509
   -32.8470 -32.8469 -32.8312 -32.8311 -32.8186 -32.8186 -32.7774 -32.7773
   -32.7197 -32.7195 -32.6868 -32.6866 -32.6736 -32.6735 -32.6730 -32.6729
   -32.6716 -32.6715 -32.6619 -32.6618 -32.6132 -32.6131 -32.6128 -32.6128
    13.3796  13.3799  14.2398  14.2400  16.0222  16.0224  16.2833  16.2835
    16.2978  16.2981  16.3187  16.3191  16.3303  16.3305  16.4565  16.4567
    16.6705  16.6707  17.2307  17.2308  17.2821  17.2822  17.2856  17.2857
    17.3432  17.3433  17.3984  17.3985  17.7866  17.7868  17.8972  17.8974
    17.9849  17.9851  17.9959  17.9961  18.0132  18.0134  18.0567  18.0570
    18.3134  18.3136  18.3340  18.3342  18.6122  18.6123  19.2652  19.2652
    19.6855  19.6857  19.7605  19.7607  19.9346  19.9348  19.9848  19.9849
    20.0366  20.0367  20.0463  20.0464  20.0511  20.0511  20.2713  20.2713
    20.2783  20.2784  20.3136  20.3138  20.4535  20.4536  20.4975  20.4976
    20.6767  20.6769  20.7271  20.7273  20.7416  20.7418  20.8223  20.8225
    21.5220  21.5220  21.5781  21.5781  22.7127  22.7130  23.4666  23.4668
    23.6897  23.6900

          k = 0.0556-0.5000-0.4978 ( 11408 PWs)   bands (ev):

   -66.8299 -66.8297 -66.8295 -66.8293 -66.7762 -66.7760 -66.7758 -66.7756
   -66.7674 -66.7672 -66.7670 -66.7668 -66.7300 -66.7299 -66.7297 -66.7294
   -33.0983 -33.0982 -33.0982 -33.0982 -33.0786 -33.0784 -33.0784 -33.0782
   -33.0722 -33.0721 -33.0720 -33.0719 -32.9085 -32.9081 -32.9079 -32.9078
   -32.9004 -32.9004 -32.9000 -32.8999 -32.8694 -32.8693 -32.8693 -32.8693
   -32.8267 -32.8267 -32.8266 -32.8266 -32.8121 -32.8121 -32.8117 -32.8116
   -32.7021 -32.7016 -32.7014 -32.7013 -32.6709 -32.6709 -32.6708 -32.6706
   -32.6668 -32.6667 -32.6666 -32.6664 -32.6096 -32.6095 -32.6095 -32.6095
    13.7865  13.7868  13.7870  13.7872  16.2280  16.2282  16.2283  16.2285
    16.3316  16.3320  16.3320  16.3322  16.4358  16.4359  16.4359  16.4362
    16.9374  16.9377  16.9380  16.9380  17.2729  17.2730  17.2731  17.2733
    17.3209  17.3210  17.3210  17.3212  17.8789  17.8792  17.8792  17.8793
    17.8795  17.8795  17.8796  17.8798  17.9684  17.9685  17.9686  17.9688
    18.3036  18.3037  18.3038  18.3043  18.9232  18.9233  18.9235  18.9237
    19.7743  19.7743  19.7744  19.7749  20.0310  20.0312  20.0314  20.0315
    20.0633  20.0634  20.0635  20.0635  20.1610  20.1611  20.1611  20.1612
    20.1638  20.1638  20.1640  20.1640  20.4304  20.4304  20.4307  20.4310
    20.7064  20.7068  20.7069  20.7070  20.7641  20.7644  20.7646  20.7646
    21.5838  21.5839  21.5840  21.5841  23.2035  23.2039  23.2039  23.2041
    23.9734  23.9738

          k = 0.1667 0.1667 0.0553 ( 11380 PWs)   bands (ev):

   -66.8796 -66.8047 -66.8044 -66.7872 -66.7788 -66.7739 -66.7737 -66.7709
   -66.7696 -66.7693 -66.7656 -66.7649 -66.7638 -66.7547 -66.7545 -66.6933
   -33.1690 -33.1636 -33.1635 -33.1555 -33.1555 -33.1428 -33.0224 -33.0071
   -32.9985 -32.9928 -32.9926 -32.9854 -32.9816 -32.9786 -32.9536 -32.9088
   -32.8935 -32.8930 -32.8606 -32.8603 -32.8599 -32.8284 -32.8179 -32.8174
   -32.8151 -32.8087 -32.8084 -32.7978 -32.7975 -32.7957 -32.7921 -32.7866
   -32.7742 -32.7610 -32.7568 -32.7564 -32.7302 -32.7180 -32.7178 -32.6508
   -32.6388 -32.6290 -32.6290 -32.6210 -32.6210 -32.6199 -32.6111 -32.6083
    11.6576  14.7151  14.7152  15.3463  15.3672  15.5051  15.5052  15.5818
    15.5818  15.5919  15.7833  15.7986  15.8565  16.1620  16.1620  16.9451
    17.0592  17.2336  17.2831  17.2831  17.2889  17.2890  17.2960  17.3259
    17.3259  17.3535  17.4195  17.5419  17.5723  17.5810  17.8656  18.2533
    18.2536  18.4568  18.5162  18.5163  18.5511  18.5890  18.7325  18.7602
    19.0516  19.0519  19.1433  19.1434  19.1931  19.2472  19.3520  19.4339
    19.4339  19.4552  19.4554  19.6322  19.6322  19.8132  19.8915  19.8919
    20.1510  20.2488  20.2488  20.2632  20.3056  20.3057  20.3187  20.3273
    20.3658  20.5238  20.5782  20.6109  20.6111  20.6167  20.6167  20.6171
    20.6183  20.7251  20.7254  20.9471  21.0504  21.0506  21.0847  21.0848
    21.1841  21.4120  21.4500  21.5810  21.6563  21.9652  22.3234  22.3235
    22.5402  22.6943

          k = 0.1667 0.1667 0.1659 ( 11365 PWs)   bands (ev):

   -66.8763 -66.8038 -66.8035 -66.8032 -66.7787 -66.7785 -66.7781 -66.7665
   -66.7658 -66.7656 -66.7651 -66.7631 -66.7553 -66.7550 -66.7547 -66.6956
   -33.1614 -33.1614 -33.1602 -33.1376 -33.1376 -33.1366 -33.0198 -33.0189
   -33.0156 -33.0102 -33.0102 -33.0101 -32.9629 -32.9573 -32.9571 -32.9166
   -32.9162 -32.9156 -32.8659 -32.8659 -32.8642 -32.8233 -32.8202 -32.8199
   -32.8119 -32.8110 -32.7944 -32.7942 -32.7928 -32.7910 -32.7879 -32.7876
   -32.7578 -32.7578 -32.7567 -32.7492 -32.7026 -32.7026 -32.7015 -32.6722
   -32.6425 -32.6414 -32.6414 -32.6192 -32.6180 -32.6180 -32.6150 -32.6143
    11.7914  14.7728  14.7937  14.7937  15.4521  15.4522  15.4523  15.6865
    15.6891  15.6891  15.8470  15.8584  16.1917  16.2142  16.2143  16.8603
    17.1610  17.1615  17.2531  17.2573  17.2574  17.2767  17.3111  17.3112
    17.3863  17.4202  17.4203  17.4349  17.5047  17.5241  18.0966  18.1002
    18.1004  18.4451  18.4481  18.4482  18.4619  18.4655  18.8782  18.8784
    18.8820  18.8916  19.0653  19.0654  19.0866  19.2490  19.2491  19.2494
    19.4603  19.4604  19.4893  19.5226  19.5227  19.5407  20.0922  20.0926
    20.1012  20.1590  20.1591  20.1858  20.2676  20.2954  20.3087  20.3087
    20.3384  20.5692  20.5694  20.5812  20.5958  20.5976  20.6109  20.6143
    20.6743  20.7241  20.7241  20.7250  21.0513  21.0811  21.0812  21.2795
    21.2797  21.2946  21.3059  21.3146  22.0266  22.0268  22.0324  22.7432
    22.8068  22.8068

          k = 0.1667 0.1667 0.2766 ( 11394 PWs)   bands (ev):

   -66.8700 -66.8200 -66.8011 -66.8008 -66.7837 -66.7835 -66.7769 -66.7686
   -66.7647 -66.7629 -66.7626 -66.7623 -66.7556 -66.7553 -66.7408 -66.7004
   -33.1496 -33.1496 -33.1428 -33.1247 -33.1108 -33.1108 -33.0411 -33.0387
   -33.0387 -33.0309 -33.0275 -33.0040 -33.0026 -32.9528 -32.9526 -32.9402
   -32.9344 -32.8990 -32.8734 -32.8663 -32.8662 -32.8390 -32.8318 -32.8315
   -32.8250 -32.8196 -32.7981 -32.7799 -32.7795 -32.7670 -32.7642 -32.7640
   -32.7599 -32.7598 -32.7240 -32.7234 -32.7035 -32.6809 -32.6809 -32.6752
   -32.6587 -32.6587 -32.6501 -32.6352 -32.6261 -32.6209 -32.6209 -32.6153
    12.0547  14.1332  14.9329  14.9329  15.4073  15.4074  15.6560  15.8257
    15.8258  15.8664  15.9638  15.9763  16.2692  16.2693  16.3530  16.7761
    16.9350  16.9903  17.1297  17.2420  17.2673  17.2674  17.3296  17.3598
    17.3896  17.3896  17.5528  17.5646  17.5646  17.7440  17.9583  17.9585
    18.2412  18.2718  18.2718  18.3660  18.3843  18.4237  18.6275  18.6277
    18.6335  18.6336  18.8818  19.0006  19.0008  19.0393  19.0425  19.0882
    19.3662  19.4674  19.4674  19.6094  19.6094  19.7931  19.8707  20.0501
    20.0502  20.1513  20.2484  20.2494  20.2495  20.3461  20.3554  20.3566
    20.3648  20.3651  20.5541  20.5568  20.5863  20.6091  20.6210  20.6211
    20.6252  20.8235  20.8923  20.8923  20.9193  21.0016  21.0713  21.0828
    21.0828  21.3520  21.3631  21.3633  21.7635  21.7637  22.6586  23.0017
    23.0017  23.4144

          k = 0.1667 0.1667 0.3872 ( 11385 PWs)   bands (ev):

   -66.8607 -66.8351 -66.7977 -66.7974 -66.7887 -66.7885 -66.7751 -66.7707
   -66.7642 -66.7631 -66.7600 -66.7597 -66.7565 -66.7563 -66.7278 -66.7074
   -33.1295 -33.1295 -33.1176 -33.1073 -33.0766 -33.0766 -33.0708 -33.0708
   -33.0638 -33.0470 -33.0383 -33.0375 -32.9948 -32.9946 -32.9839 -32.9312
   -32.9146 -32.9097 -32.8616 -32.8614 -32.8603 -32.8562 -32.8434 -32.8431
   -32.8284 -32.8201 -32.8070 -32.7728 -32.7725 -32.7629 -32.7626 -32.7413
   -32.7339 -32.7338 -32.7255 -32.7000 -32.6929 -32.6802 -32.6802 -32.6623
   -32.6595 -32.6594 -32.6589 -32.6523 -32.6435 -32.6287 -32.6287 -32.6218
    12.4387  13.5043  15.0975  15.0975  15.3462  15.3462  15.9426  15.9821
    15.9822  16.1112  16.1128  16.1490  16.2484  16.2485  16.3594  16.6269
    16.6368  16.6535  17.1327  17.1997  17.2455  17.2669  17.4035  17.4036
    17.5189  17.5189  17.7258  17.7259  17.8333  17.8423  17.8424  18.0081
    18.1460  18.1461  18.2257  18.2259  18.3116  18.3179  18.3263  18.3582
    18.3582  18.3957  18.5460  18.5462  18.5946  18.6068  19.2195  19.3425
    19.5617  19.6397  19.7081  19.7081  19.7142  19.7143  19.9335  19.9335
    19.9848  19.9955  20.0939  20.1260  20.1261  20.3278  20.3967  20.4414
    20.4905  20.5061  20.5930  20.6055  20.6055  20.6058  20.6522  20.6676
    20.6946  20.6947  20.7611  20.8147  21.0730  21.0730  21.0941  21.1232
    21.1232  21.3243  21.3354  21.3355  21.5077  21.5078  23.2297  23.2297
    23.3484  23.5160

          k = 0.1667 0.1667-0.4978 ( 11416 PWs)   bands (ev):

   -66.8491 -66.8488 -66.7938 -66.7933 -66.7931 -66.7931 -66.7732 -66.7729
   -66.7637 -66.7634 -66.7584 -66.7579 -66.7577 -66.7577 -66.7168 -66.7164
   -33.1025 -33.1025 -33.1024 -33.1024 -33.0867 -33.0864 -33.0855 -33.0851
   -33.0408 -33.0407 -33.0374 -33.0372 -33.0370 -33.0370 -32.9600 -32.9597
   -32.8866 -32.8865 -32.8847 -32.8845 -32.8538 -32.8536 -32.8535 -32.8532
   -32.8156 -32.8153 -32.7837 -32.7837 -32.7673 -32.7670 -32.7669 -32.7666
   -32.7059 -32.7058 -32.7055 -32.7055 -32.6895 -32.6890 -32.6793 -32.6790
   -32.6663 -32.6659 -32.6418 -32.6417 -32.6417 -32.6416 -32.6348 -32.6346
    12.9288  12.9292  15.2442  15.2443  15.2446  15.2447  16.1364  16.1365
    16.1367  16.1367  16.2602  16.2607  16.2866  16.2871  16.3714  16.3717
    16.3846  16.3850  17.1592  17.1599  17.2249  17.2254  17.6592  17.6594
    17.6597  17.6599  17.6836  17.6837  17.6839  17.6840  18.1314  18.1315
    18.1316  18.1317  18.1856  18.1860  18.2369  18.2371  18.2371  18.2371
    18.2995  18.2997  18.3034  18.3037  18.3621  18.3625  19.4204  19.4205
    19.6517  19.6517  19.7806  19.7812  19.8172  19.8173  19.8173  19.8175
    19.9423  19.9424  19.9424  19.9425  20.4120  20.4123  20.4245  20.4247
    20.4498  20.4500  20.5445  20.5449  20.5996  20.6000  20.7082  20.7084
    20.7136  20.7137  20.7138  20.7140  21.2295  21.2296  21.2296  21.2297
    21.2337  21.2340  21.2714  21.2715  21.2716  21.2717  23.4272  23.4272
    23.4274  23.4274

          k = 0.1667 0.2778 0.0553 ( 11382 PWs)   bands (ev):

   -66.8730 -66.8212 -66.8021 -66.7858 -66.7840 -66.7761 -66.7727 -66.7705
   -66.7691 -66.7686 -66.7662 -66.7644 -66.7622 -66.7552 -66.7397 -66.6981
   -33.1566 -33.1465 -33.1463 -33.1403 -33.1332 -33.1139 -33.0310 -33.0287
   -33.0281 -33.0169 -33.0149 -33.0123 -32.9948 -32.9877 -32.9619 -32.9385
   -32.8975 -32.8940 -32.8567 -32.8558 -32.8511 -32.8496 -32.8301 -32.8247
   -32.8213 -32.8137 -32.8078 -32.7961 -32.7944 -32.7823 -32.7787 -32.7589
   -32.7584 -32.7424 -32.7331 -32.7244 -32.7051 -32.6883 -32.6881 -32.6809
   -32.6590 -32.6412 -32.6410 -32.6360 -32.6314 -32.6285 -32.6142 -32.6122
    11.9261  14.0559  14.8483  15.2994  15.4693  15.5425  15.6783  15.7023
    15.7302  15.7704  15.8996  15.9236  15.9270  16.1969  16.3133  16.8293
    16.9128  16.9371  17.1712  17.2507  17.2609  17.2808  17.3233  17.3804
    17.3926  17.4517  17.5339  17.5850  17.7053  17.7698  17.7719  18.1185
    18.2599  18.3837  18.3856  18.4000  18.4495  18.5039  18.5340  18.7213
    18.7293  18.8914  18.9241  19.0768  19.1370  19.2152  19.2570  19.2607
    19.3152  19.4392  19.4515  19.5053  19.5361  19.6554  19.6871  20.0265
    20.1483  20.1539  20.1977  20.2287  20.2911  20.2954  20.3332  20.3758
    20.5450  20.5657  20.5672  20.6142  20.6194  20.6444  20.6468  20.6761
    20.7142  20.8175  20.8432  20.8550  20.8624  20.8934  20.9442  21.0559
    21.1562  21.3778  21.4333  21.4863  21.6497  22.1103  22.1621  22.7158
    22.8474  22.9743

          k = 0.1667 0.2778 0.1659 ( 11392 PWs)   bands (ev):

   -66.8699 -66.8195 -66.8014 -66.8009 -66.7837 -66.7832 -66.7773 -66.7686
   -66.7651 -66.7631 -66.7625 -66.7620 -66.7559 -66.7553 -66.7405 -66.7003
   -33.1495 -33.1482 -33.1439 -33.1256 -33.1106 -33.1097 -33.0409 -33.0380
   -33.0374 -33.0285 -33.0271 -33.0055 -33.0042 -32.9522 -32.9518 -32.9401
   -32.9342 -32.9010 -32.8736 -32.8681 -32.8655 -32.8363 -32.8352 -32.8317
   -32.8262 -32.8196 -32.7959 -32.7825 -32.7796 -32.7660 -32.7636 -32.7628
   -32.7615 -32.7596 -32.7243 -32.7238 -32.7035 -32.6804 -32.6795 -32.6763
   -32.6594 -32.6584 -32.6490 -32.6345 -32.6268 -32.6218 -32.6207 -32.6153
    12.0570  14.1512  14.9158  14.9347  15.4064  15.4090  15.6585  15.8235
    15.8251  15.8713  15.9666  15.9772  16.2518  16.2703  16.3746  16.7819
    16.9369  17.0037  17.1371  17.2646  17.2688  17.2726  17.3568  17.3590
    17.3735  17.3903  17.5331  17.5344  17.5660  17.7264  17.9544  17.9547
    18.2425  18.2650  18.2804  18.3536  18.3710  18.4380  18.6158  18.6321
    18.6328  18.6517  18.8599  18.9997  19.0156  19.0244  19.0336  19.0752
    19.3745  19.4728  19.4798  19.6187  19.6273  19.7737  19.8601  20.0495
    20.0732  20.1710  20.2257  20.2535  20.2796  20.3287  20.3411  20.3425
    20.3642  20.3670  20.5583  20.5592  20.5746  20.5994  20.6100  20.6131
    20.6272  20.8431  20.8888  20.8936  20.9201  20.9855  21.0584  21.0610
    21.0835  21.3583  21.3603  21.3739  21.7654  21.7681  22.6522  22.9476
    23.0055  23.4067

          k = 0.1667 0.2778 0.2766 ( 11384 PWs)   bands (ev):

   -66.8639 -66.8165 -66.8161 -66.7986 -66.7912 -66.7820 -66.7816 -66.7713
   -66.7623 -66.7621 -66.7617 -66.7567 -66.7559 -66.7423 -66.7419 -66.7047
   -33.1431 -33.1332 -33.1319 -33.1026 -33.1017 -33.0798 -33.0533 -33.0514
   -33.0514 -33.0513 -33.0374 -33.0136 -33.0002 -32.9766 -32.9456 -32.9140
   -32.9114 -32.9106 -32.9006 -32.8997 -32.8778 -32.8539 -32.8511 -32.8497
   -32.8047 -32.7950 -32.7936 -32.7881 -32.7859 -32.7649 -32.7647 -32.7498
   -32.7396 -32.7371 -32.7271 -32.7268 -32.7053 -32.6797 -32.6687 -32.6616
   -32.6609 -32.6583 -32.6570 -32.6364 -32.6355 -32.6335 -32.6178 -32.6155
    12.3141  14.3146  14.3293  15.0900  15.2511  15.6204  15.6210  15.9845
    15.9996  16.0040  16.0739  16.0983  16.3735  16.4217  16.4390  16.7495
    16.9300  16.9879  16.9888  17.1931  17.2152  17.3150  17.3441  17.4079
    17.4242  17.4439  17.4459  17.4717  17.7156  17.7289  17.8008  18.0682
    18.0730  18.1623  18.2071  18.2189  18.2698  18.2914  18.3694  18.4386
    18.4962  18.5141  18.6423  18.6654  18.7134  18.7842  18.7904  19.2237
    19.5710  19.5733  19.6099  19.7300  19.8005  19.8183  19.9436  19.9912
    20.1372  20.1480  20.1539  20.1567  20.1608  20.2337  20.2700  20.2970
    20.3250  20.5235  20.5251  20.5277  20.5605  20.5932  20.6002  20.6046
    20.6200  20.7907  20.8076  20.9181  20.9456  21.0574  21.0608  21.0768
    21.0889  21.1748  21.3450  21.4460  21.4474  22.3109  22.3156  23.2725
    23.9879  24.0550

          k = 0.1667 0.2778 0.3872 ( 11392 PWs)   bands (ev):

   -66.8551 -66.8309 -66.8114 -66.7987 -66.7953 -66.7868 -66.7795 -66.7741
   -66.7618 -66.7615 -66.7598 -66.7568 -66.7517 -66.7443 -66.7302 -66.7113
   -33.1283 -33.1158 -33.1084 -33.0909 -33.0795 -33.0742 -33.0713 -33.0658
   -33.0569 -33.0485 -33.0450 -33.0421 -33.0079 -32.9832 -32.9549 -32.9315
   -32.9293 -32.8934 -32.8856 -32.8799 -32.8783 -32.8668 -32.8661 -32.8646
   -32.8248 -32.8031 -32.7948 -32.7783 -32.7770 -32.7685 -32.7629 -32.7518
   -32.7326 -32.7172 -32.7158 -32.7045 -32.6970 -32.6891 -32.6757 -32.6667
   -32.6576 -32.6570 -32.6496 -32.6414 -32.6398 -32.6390 -32.6205 -32.6180
    12.6879  13.7160  14.5649  15.0570  15.2772  15.5600  15.9175  16.1492
    16.1589  16.2095  16.2351  16.2728  16.4042  16.4144  16.4411  16.6429
    16.6715  16.7230  17.1752  17.1884  17.2640  17.2742  17.3132  17.3513
    17.4552  17.5491  17.5647  17.6159  17.6882  17.8251  17.8771  17.8829
    17.9943  18.0449  18.1123  18.1392  18.1660  18.2031  18.2266  18.2430
    18.2781  18.2815  18.3207  18.3209  18.4028  18.4899  19.0082  19.4372
    19.6317  19.7226  19.7918  19.7953  19.7973  19.8387  19.8591  19.9131
    20.0406  20.0523  20.0714  20.1476  20.1521  20.2594  20.3423  20.3914
    20.4414  20.4572  20.4671  20.5507  20.5938  20.5973  20.6214  20.6500
    20.6582  20.6679  20.6748  20.7735  20.8758  20.9755  21.0886  21.1488
    21.2012  21.2216  21.3499  21.3797  21.4399  21.9863  22.9229  23.5847
    24.0711  24.1919

          k = 0.1667 0.2778-0.4978 ( 11398 PWs)   bands (ev):

   -66.8441 -66.8438 -66.8056 -66.8052 -66.7915 -66.7911 -66.7771 -66.7768
   -66.7617 -66.7614 -66.7582 -66.7578 -66.7478 -66.7474 -66.7199 -66.7196
   -33.1064 -33.1064 -33.0941 -33.0939 -33.0789 -33.0788 -33.0786 -33.0785
   -33.0556 -33.0556 -33.0417 -33.0416 -32.9995 -32.9994 -32.9599 -32.9595
   -32.9047 -32.9045 -32.8819 -32.8816 -32.8750 -32.8748 -32.8555 -32.8554
   -32.8210 -32.8209 -32.8005 -32.8002 -32.7729 -32.7726 -32.7412 -32.7409
   -32.7326 -32.7326 -32.6941 -32.6940 -32.6854 -32.6850 -32.6761 -32.6758
   -32.6713 -32.6708 -32.6471 -32.6470 -32.6282 -32.6281 -32.6258 -32.6257
    13.1627  13.1631  14.8205  14.8209  15.4460  15.4464  16.2733  16.2737
    16.3023  16.3025  16.3108  16.3110  16.3497  16.3502  16.4824  16.4828
    16.4846  16.4850  17.2159  17.2165  17.2885  17.2889  17.4684  17.4688
    17.4825  17.4830  17.5818  17.5820  17.6997  17.6998  17.9219  17.9223
    18.0573  18.0576  18.0914  18.0914  18.0971  18.0975  18.1430  18.1432
    18.2000  18.2001  18.2128  18.2129  18.2717  18.2720  19.2947  19.2948
    19.6674  19.6676  19.8098  19.8100  19.8957  19.8962  19.9410  19.9411
    19.9867  19.9868  19.9923  19.9924  20.3645  20.3648  20.3671  20.3673
    20.4027  20.4030  20.4946  20.4950  20.5867  20.5870  20.5947  20.5951
    20.6825  20.6828  20.7378  20.7380  20.8742  20.8744  21.0439  21.0439
    21.3026  21.3028  21.3577  21.3577  21.6691  21.6694  23.5530  23.5534
    23.8763  23.8765

          k = 0.1667 0.3889 0.0553 ( 11368 PWs)   bands (ev):

   -66.8634 -66.8370 -66.7985 -66.7891 -66.7838 -66.7787 -66.7713 -66.7699
   -66.7690 -66.7679 -66.7676 -66.7653 -66.7595 -66.7561 -66.7263 -66.7053
   -33.1348 -33.1220 -33.1206 -33.1184 -33.1029 -33.0765 -33.0694 -33.0603
   -33.0543 -33.0529 -33.0320 -33.0272 -33.0246 -32.9866 -32.9765 -32.9391
   -32.9253 -32.8828 -32.8791 -32.8507 -32.8475 -32.8389 -32.8342 -32.8281
   -32.8209 -32.8190 -32.8044 -32.7954 -32.7949 -32.7719 -32.7621 -32.7465
   -32.7208 -32.7176 -32.7110 -32.7052 -32.6951 -32.6838 -32.6804 -32.6616
   -32.6610 -32.6592 -32.6584 -32.6581 -32.6481 -32.6412 -32.6235 -32.6228
    12.3182  13.4092  15.0043  15.2393  15.5616  15.5850  15.7935  15.8874
    15.9521  15.9769  16.0304  16.0520  16.1031  16.1596  16.3097  16.6176
    16.6208  16.6363  17.1428  17.1863  17.2048  17.2285  17.4950  17.5225
    17.5416  17.6019  17.6131  17.7532  17.8027  17.9432  17.9939  18.0554
    18.1777  18.1881  18.2535  18.2605  18.3588  18.3611  18.3991  18.4472
    18.4807  18.5153  18.5681  18.7269  18.7690  18.7692  19.0479  19.4313
    19.4826  19.6192  19.6416  19.6902  19.6917  19.7245  19.8945  19.9641
    19.9740  20.0263  20.0982  20.1655  20.3063  20.3590  20.3828  20.4625
    20.5030  20.5085  20.5099  20.6119  20.6184  20.6277  20.6339  20.7010
    20.7028  20.7378  20.7901  20.8974  20.8987  21.0139  21.0487  21.1437
    21.1479  21.1597  21.3548  21.5522  21.6126  21.9790  22.2976  22.6415
    23.0230  23.1727

          k = 0.1667 0.3889 0.1659 ( 11392 PWs)   bands (ev):

   -66.8606 -66.8349 -66.7979 -66.7974 -66.7887 -66.7883 -66.7754 -66.7709
   -66.7644 -66.7632 -66.7601 -66.7596 -66.7567 -66.7563 -66.7275 -66.7073
   -33.1291 -33.1278 -33.1185 -33.1080 -33.0761 -33.0754 -33.0700 -33.0693
   -33.0640 -33.0476 -33.0364 -33.0361 -32.9938 -32.9936 -32.9866 -32.9334
   -32.9150 -32.9089 -32.8644 -32.8613 -32.8581 -32.8572 -32.8467 -32.8433
   -32.8289 -32.8201 -32.8054 -32.7754 -32.7727 -32.7651 -32.7629 -32.7412
   -32.7335 -32.7326 -32.7246 -32.6995 -32.6937 -32.6805 -32.6797 -32.6613
   -32.6593 -32.6584 -32.6579 -32.6532 -32.6442 -32.6292 -32.6281 -32.6222
    12.4443  13.5181  15.0855  15.1010  15.3432  15.3495  15.9483  15.9800
    15.9806  16.1189  16.1259  16.1442  16.2380  16.2491  16.3792  16.6361
    16.6370  16.6656  17.1462  17.2255  17.2597  17.2907  17.4014  17.4075
    17.4885  17.5202  17.7015  17.7302  17.8113  17.8257  17.8405  17.9880
    18.1471  18.1490  18.2199  18.2357  18.2947  18.3142  18.3253  18.3396
    18.3591  18.4064  18.5430  18.5627  18.5691  18.5847  19.2106  19.3305
    19.5756  19.6288  19.7201  19.7218  19.7221  19.7336  19.9345  19.9534
    19.9882  20.0042  20.0749  20.1337  20.1546  20.3109  20.3755  20.4324
    20.4876  20.4999  20.5817  20.5949  20.5958  20.6051  20.6386  20.6753
    20.6763  20.6971  20.7469  20.7991  21.0674  21.0757  21.0965  21.1109
    21.1253  21.3297  21.3309  21.3432  21.5109  21.5118  23.1864  23.2384
    23.3427  23.4963

          k = 0.1667 0.3889 0.2766 ( 11388 PWs)   bands (ev):

   -66.8550 -66.8306 -66.8116 -66.7987 -66.7952 -66.7865 -66.7798 -66.7742
   -66.7619 -66.7617 -66.7595 -66.7567 -66.7517 -66.7446 -66.7299 -66.7112
   -33.1279 -33.1143 -33.1095 -33.0917 -33.0791 -33.0730 -33.0703 -33.0660
   -33.0567 -33.0478 -33.0455 -33.0417 -33.0072 -32.9842 -32.9541 -32.9326
   -32.9285 -32.8932 -32.8860 -32.8814 -32.8761 -32.8672 -32.8668 -32.8666
   -32.8259 -32.8028 -32.7934 -32.7805 -32.7773 -32.7696 -32.7620 -32.7518
   -32.7326 -32.7168 -32.7158 -32.7041 -32.6971 -32.6887 -32.6762 -32.6660
   -32.6570 -32.6569 -32.6498 -32.6404 -32.6402 -32.6400 -32.6201 -32.6183
    12.6912  13.7271  14.5545  15.0548  15.2790  15.5614  15.9210  16.1478
    16.1554  16.2150  16.2420  16.2719  16.4037  16.4047  16.4566  16.6494
    16.6774  16.7219  17.1735  17.2014  17.2768  17.2881  17.3231  17.3707
    17.4291  17.5485  17.5496  17.5983  17.6795  17.8311  17.8637  17.8812
    17.9875  18.0465  18.1150  18.1443  18.1739  18.2015  18.2171  18.2348
    18.2590  18.2954  18.3032  18.3204  18.4019  18.4920  19.0016  19.4335
    19.6285  19.7314  19.7939  19.8048  19.8085  19.8453  19.8603  19.9059
    20.0552  20.0563  20.0638  20.1534  20.1751  20.2452  20.3206  20.3854
    20.4386  20.4544  20.4606  20.5377  20.5913  20.5935  20.6297  20.6515
    20.6523  20.6668  20.6678  20.7640  20.8648  20.9776  21.0967  21.1520
    21.2045  21.2183  21.3530  21.3810  21.4385  21.9900  22.9191  23.5893
    24.0862  24.1904

          k = 0.1667 0.3889 0.3872 ( 11391 PWs)   bands (ev):

   -66.8469 -66.8248 -66.8245 -66.8082 -66.7922 -66.7843 -66.7840 -66.7777
   -66.7607 -66.7599 -66.7596 -66.7573 -66.7446 -66.7338 -66.7335 -66.7170
   -33.1185 -33.0969 -33.0958 -33.0802 -33.0800 -33.0749 -33.0712 -33.0706
   -33.0674 -33.0624 -33.0551 -33.0262 -33.0011 -32.9703 -32.9298 -32.9233
   -32.9229 -32.9107 -32.9102 -32.8937 -32.8920 -32.8900 -32.8887 -32.8551
   -32.8194 -32.7955 -32.7932 -32.7924 -32.7861 -32.7849 -32.7743 -32.7333
   -32.7318 -32.7056 -32.7052 -32.6986 -32.6984 -32.6802 -32.6739 -32.6735
   -32.6632 -32.6563 -32.6559 -32.6553 -32.6276 -32.6270 -32.6171 -32.6160
    13.0478  14.0105  14.0181  14.7200  15.5023  15.8544  15.8554  16.2902
    16.3106  16.3828  16.3883  16.4501  16.4578  16.4667  16.4908  16.5403
    16.6973  16.9341  16.9352  17.1999  17.2604  17.3046  17.3590  17.3796
    17.3935  17.4031  17.5478  17.5581  17.5600  17.6285  17.8334  17.9176
    17.9188  17.9194  17.9804  17.9974  18.0566  18.0644  18.0772  18.1082
    18.1377  18.1600  18.1648  18.2496  18.2575  18.6807  18.6835  19.2712
    19.6809  19.8354  19.9005  19.9037  19.9317  19.9625  19.9709  19.9720
    20.0855  20.1461  20.1682  20.1785  20.2086  20.2113  20.2164  20.2326
    20.3708  20.3919  20.3923  20.4497  20.4765  20.5614  20.5680  20.5997
    20.6273  20.6284  20.6779  20.6868  20.8340  20.8906  20.8973  20.9162
    21.3301  21.3323  21.3921  21.4692  21.7322  22.5159  22.5183  23.6235
    23.9957  24.7083

          k = 0.1667 0.3889-0.4978 ( 11398 PWs)   bands (ev):

   -66.8369 -66.8365 -66.8172 -66.8168 -66.7886 -66.7883 -66.7812 -66.7809
   -66.7602 -66.7599 -66.7585 -66.7582 -66.7387 -66.7383 -66.7247 -66.7243
   -33.1020 -33.1019 -33.0842 -33.0841 -33.0746 -33.0743 -33.0739 -33.0739
   -33.0687 -33.0684 -33.0485 -33.0483 -32.9567 -32.9566 -32.9491 -32.9488
   -32.9149 -32.9148 -32.9083 -32.9080 -32.8967 -32.8965 -32.8646 -32.8645
   -32.8236 -32.8235 -32.7912 -32.7911 -32.7791 -32.7790 -32.7616 -32.7616
   -32.7180 -32.7176 -32.6843 -32.6842 -32.6823 -32.6819 -32.6767 -32.6764
   -32.6753 -32.6750 -32.6553 -32.6551 -32.6199 -32.6198 -32.6189 -32.6189
    13.4962  13.4966  14.3615  14.3619  15.7131  15.7135  16.1895  16.1899
    16.3966  16.3969  16.4024  16.4027  16.5209  16.5211  16.5990  16.5993
    16.6938  16.6942  17.2308  17.2313  17.2926  17.2930  17.2931  17.2931
    17.2978  17.2981  17.4709  17.4712  17.7255  17.7256  17.7530  17.7531
    17.8606  17.8609  17.9320  17.9322  17.9799  17.9800  18.0088  18.0089
    18.1638  18.1640  18.2038  18.2042  18.3885  18.3885  18.9474  18.9475
    19.8737  19.8739  19.9373  19.9375  20.0217  20.0220  20.0563  20.0565
    20.0785  20.0786  20.0791  20.0793  20.1979  20.1980  20.2966  20.2968
    20.3107  20.3109  20.4384  20.4387  20.4761  20.4764  20.5463  20.5464
    20.6125  20.6128  20.6596  20.6600  20.7629  20.7630  20.8964  20.8965
    21.3896  21.3897  21.4296  21.4296  22.1191  22.1194  23.0668  23.0672
    24.3925  24.3927

          k = 0.1667-0.5000 0.0553 ( 11356 PWs)   bands (ev):

   -66.8512 -66.8512 -66.7941 -66.7941 -66.7813 -66.7812 -66.7697 -66.7697
   -66.7693 -66.7693 -66.7664 -66.7664 -66.7576 -66.7575 -66.7148 -66.7148
   -33.1051 -33.1049 -33.0912 -33.0911 -33.0908 -33.0907 -33.0883 -33.0882
   -33.0663 -33.0662 -33.0336 -33.0334 -33.0310 -33.0308 -32.9531 -32.9531
   -32.9126 -32.9124 -32.8593 -32.8591 -32.8431 -32.8430 -32.8353 -32.8351
   -32.8241 -32.8239 -32.7950 -32.7948 -32.7664 -32.7663 -32.7595 -32.7594
   -32.7135 -32.7133 -32.6869 -32.6869 -32.6828 -32.6828 -32.6799 -32.6798
   -32.6693 -32.6692 -32.6586 -32.6585 -32.6396 -32.6395 -32.6393 -32.6390
    12.8195  12.8198  15.1425  15.1427  15.6013  15.6015  15.8987  15.8989
    16.0426  16.0428  16.2041  16.2042  16.3018  16.3020  16.3305  16.3307
    16.3362  16.3367  17.1631  17.1633  17.1875  17.1876  17.6990  17.6992
    17.7148  17.7150  17.7157  17.7158  17.8058  17.8059  18.0987  18.0988
    18.1569  18.1570  18.2207  18.2209  18.3458  18.3460  18.3528  18.3529
    18.3542  18.3543  18.3957  18.3958  18.4989  18.4989  19.2288  19.2291
    19.7337  19.7338  19.7635  19.7636  19.8694  19.8697  19.9154  19.9156
    19.9552  19.9553  19.9732  19.9732  20.2985  20.2986  20.4309  20.4310
    20.4440  20.4441  20.5713  20.5714  20.6116  20.6117  20.6503  20.6505
    20.7718  20.7719  20.8578  20.8578  20.9862  20.9864  21.0491  21.0491
    21.2229  21.2229  21.3846  21.3847  21.7864  21.7865  22.4890  22.4891
    23.1591  23.1594

          k = 0.1667-0.5000 0.1659 ( 11392 PWs)   bands (ev):

   -66.8488 -66.8487 -66.7937 -66.7935 -66.7931 -66.7929 -66.7732 -66.7732
   -66.7638 -66.7638 -66.7583 -66.7581 -66.7577 -66.7575 -66.7164 -66.7164
   -33.1017 -33.1017 -33.1008 -33.1006 -33.0871 -33.0870 -33.0861 -33.0860
   -33.0392 -33.0390 -33.0363 -33.0363 -33.0358 -33.0356 -32.9623 -32.9622
   -32.8872 -32.8870 -32.8833 -32.8832 -32.8569 -32.8569 -32.8534 -32.8532
   -32.8145 -32.8143 -32.7840 -32.7839 -32.7696 -32.7695 -32.7671 -32.7669
   -32.7055 -32.7053 -32.7045 -32.7043 -32.6882 -32.6881 -32.6786 -32.6785
   -32.6669 -32.6669 -32.6419 -32.6417 -32.6408 -32.6407 -32.6351 -32.6350
    12.9384  12.9387  15.2375  15.2377  15.2486  15.2487  16.1314  16.1317
    16.1361  16.1363  16.2774  16.2775  16.2958  16.2961  16.3682  16.3686
    16.3948  16.3950  17.1795  17.1797  17.2431  17.2433  17.6572  17.6574
    17.6613  17.6614  17.6618  17.6620  17.6849  17.6850  18.1140  18.1141
    18.1275  18.1276  18.1618  18.1619  18.2345  18.2347  18.2470  18.2472
    18.2819  18.2821  18.2869  18.2872  18.3694  18.3695  19.4095  19.4097
    19.6415  19.6416  19.7986  19.7987  19.8228  19.8231  19.8343  19.8344
    19.9508  19.9510  19.9671  19.9671  20.4015  20.4016  20.4074  20.4075
    20.4355  20.4356  20.5439  20.5440  20.5888  20.5889  20.6932  20.6932
    20.6934  20.6935  20.7139  20.7141  21.2244  21.2245  21.2348  21.2349
    21.2378  21.2378  21.2721  21.2722  21.2750  21.2751  23.3954  23.3956
    23.4417  23.4419

          k = 0.1667-0.5000 0.2766 ( 11384 PWs)   bands (ev):

   -66.8438 -66.8438 -66.8056 -66.8056 -66.7912 -66.7911 -66.7771 -66.7771
   -66.7617 -66.7617 -66.7579 -66.7578 -66.7477 -66.7477 -66.7196 -66.7196
   -33.1058 -33.1057 -33.0927 -33.0925 -33.0796 -33.0795 -33.0789 -33.0788
   -33.0550 -33.0549 -33.0407 -33.0405 -32.9989 -32.9989 -32.9609 -32.9607
   -32.9033 -32.9032 -32.8818 -32.8816 -32.8772 -32.8771 -32.8561 -32.8559
[...]
   -32.8917 -32.8916 -32.8727 -32.8725 -32.8571 -32.8568 -32.8500 -32.8498
   -32.8455 -32.8453 -32.8313 -32.8311 -32.8177 -32.8175 -32.7772 -32.7770
   -32.7220 -32.7220 -32.6887 -32.6887 -32.6728 -32.6727 -32.6723 -32.6722
   -32.6705 -32.6704 -32.6608 -32.6607 -32.6134 -32.6133 -32.6132 -32.6129
    13.3858  13.3861  14.2517  14.2519  16.0215  16.0217  16.2848  16.2850
    16.3002  16.3004  16.3169  16.3171  16.3357  16.3360  16.4620  16.4622
    16.6812  16.6814  17.2445  17.2447  17.2866  17.2868  17.2868  17.2870
    17.3508  17.3510  17.4069  17.4071  17.7573  17.7575  17.8932  17.8933
    17.9770  17.9771  17.9879  17.9882  17.9913  17.9914  18.0503  18.0504
    18.3285  18.3286  18.3519  18.3520  18.5837  18.5838  19.2452  19.2453
    19.6952  19.6953  19.7524  19.7527  19.9399  19.9400  20.0074  20.0076
    20.0486  20.0488  20.0496  20.0498  20.0615  20.0615  20.2811  20.2813
    20.2865  20.2866  20.3074  20.3077  20.4484  20.4485  20.5023  20.5024
    20.6481  20.6482  20.6988  20.6988  20.7100  20.7101  20.7919  20.7919
    21.5263  21.5264  21.5818  21.5819  22.7054  22.7055  23.4472  23.4474
    23.6845  23.6848

          k = 0.3889-0.5000 0.1659 ( 11392 PWs)   bands (ev):

   -66.8365 -66.8365 -66.8168 -66.8168 -66.7887 -66.7886 -66.7812 -66.7812
   -66.7603 -66.7602 -66.7586 -66.7586 -66.7383 -66.7383 -66.7243 -66.7242
   -33.1001 -33.0999 -33.0840 -33.0840 -33.0751 -33.0749 -33.0718 -33.0716
   -33.0684 -33.0683 -33.0480 -33.0480 -32.9557 -32.9556 -32.9526 -32.9526
   -32.9137 -32.9135 -32.9118 -32.9117 -32.8963 -32.8960 -32.8643 -32.8642
   -32.8235 -32.8233 -32.7907 -32.7906 -32.7790 -32.7788 -32.7616 -32.7614
   -32.7199 -32.7199 -32.6838 -32.6838 -32.6834 -32.6834 -32.6755 -32.6754
   -32.6744 -32.6744 -32.6541 -32.6541 -32.6202 -32.6200 -32.6193 -32.6190
    13.5050  13.5053  14.3686  14.3688  15.7102  15.7104  16.1955  16.1957
    16.3948  16.3950  16.4036  16.4038  16.5202  16.5204  16.6081  16.6083
    16.7048  16.7051  17.2432  17.2434  17.2997  17.2998  17.3051  17.3053
    17.3088  17.3090  17.4685  17.4687  17.7129  17.7130  17.7257  17.7260
    17.8661  17.8662  17.9148  17.9150  17.9566  17.9568  17.9995  17.9997
    18.1789  18.1790  18.2184  18.2184  18.3696  18.3697  18.9347  18.9348
    19.8784  19.8785  19.9288  19.9291  20.0458  20.0459  20.0791  20.0792
    20.0832  20.0834  20.0904  20.0906  20.1892  20.1893  20.3022  20.3023
    20.3086  20.3088  20.4344  20.4344  20.4725  20.4726  20.5460  20.5462
    20.5887  20.5888  20.6323  20.6323  20.7362  20.7363  20.8728  20.8728
    21.3969  21.3970  21.4365  21.4366  22.1211  22.1213  23.0653  23.0656
    24.3641  24.3643

          k = 0.3889-0.5000 0.2766 ( 11408 PWs)   bands (ev):

   -66.8322 -66.8322 -66.8136 -66.8135 -66.7991 -66.7990 -66.7888 -66.7888
   -66.7545 -66.7544 -66.7499 -66.7499 -66.7399 -66.7398 -66.7269 -66.7268
   -33.0860 -33.0858 -33.0795 -33.0794 -33.0632 -33.0631 -33.0598 -33.0597
   -33.0533 -33.0531 -33.0213 -33.0212 -32.9798 -32.9797 -32.9703 -32.9701
   -32.9519 -32.9517 -32.9404 -32.9404 -32.9336 -32.9333 -32.8893 -32.8891
   -32.7958 -32.7956 -32.7535 -32.7533 -32.7429 -32.7427 -32.7407 -32.7406
   -32.7159 -32.7159 -32.6999 -32.6998 -32.6800 -32.6799 -32.6798 -32.6798
   -32.6769 -32.6768 -32.6512 -32.6511 -32.6331 -32.6329 -32.6307 -32.6305
    13.7366  13.7369  14.5944  14.5946  15.3340  15.3342  15.9838  15.9840
    16.5669  16.5671  16.5764  16.5766  16.7203  16.7206  16.7489  16.7492
    16.7844  16.7845  17.2358  17.2360  17.2581  17.2582  17.3398  17.3400
    17.3534  17.3536  17.5365  17.5367  17.5476  17.5477  17.6689  17.6691
    17.7230  17.7231  17.7566  17.7568  17.8680  17.8681  17.8994  17.8996
    17.9560  17.9561  18.0314  18.0315  18.0743  18.0744  18.5646  18.5647
    20.1006  20.1007  20.1133  20.1134  20.1313  20.1314  20.1374  20.1376
    20.1856  20.1858  20.2201  20.2203  20.3366  20.3367  20.3580  20.3581
    20.4081  20.4082  20.4338  20.4339  20.4780  20.4780  20.5192  20.5192
    20.5486  20.5487  20.7465  20.7466  20.8622  20.8624  20.9315  20.9316
    21.1860  21.1861  21.2074  21.2076  21.6520  21.6522  22.5481  22.5483
    25.4373  25.4374

          k = 0.3889-0.5000 0.3872 ( 11410 PWs)   bands (ev):

   -66.8259 -66.8259 -66.8093 -66.8090 -66.8088 -66.8086 -66.7962 -66.7961
   -66.7495 -66.7495 -66.7426 -66.7424 -66.7421 -66.7419 -66.7308 -66.7307
   -33.0680 -33.0679 -33.0666 -33.0664 -33.0490 -33.0489 -33.0481 -33.0479
   -33.0335 -33.0333 -32.9997 -32.9995 -32.9899 -32.9898 -32.9896 -32.9893
   -32.9830 -32.9828 -32.9697 -32.9697 -32.9673 -32.9671 -32.9206 -32.9205
   -32.7684 -32.7682 -32.7229 -32.7228 -32.7202 -32.7202 -32.7197 -32.7195
   -32.7111 -32.7110 -32.7106 -32.7104 -32.6895 -32.6894 -32.6819 -32.6819
   -32.6733 -32.6733 -32.6514 -32.6512 -32.6507 -32.6507 -32.6446 -32.6445
    14.0658  14.0661  14.9059  14.9061  14.9109  14.9112  15.6672  15.6675
    16.7678  16.7681  16.8228  16.8229  16.8285  16.8287  16.8334  16.8337
    16.9763  16.9764  17.2022  17.2023  17.2095  17.2097  17.3794  17.3796
    17.4252  17.4253  17.4690  17.4693  17.4906  17.4908  17.5973  17.5976
    17.6124  17.6126  17.7222  17.7224  17.7304  17.7305  17.7797  17.7799
    17.7820  17.7822  17.8228  17.8231  17.8573  17.8574  18.2074  18.2075
    20.1853  20.1854  20.1971  20.1972  20.2081  20.2082  20.3227  20.3228
    20.3355  20.3357  20.3470  20.3471  20.3738  20.3738  20.4398  20.4399
    20.4558  20.4558  20.4563  20.4564  20.4631  20.4632  20.5440  20.5443
    20.5790  20.5792  20.7319  20.7321  20.9479  20.9480  20.9665  20.9667
    20.9823  20.9824  21.2489  21.2491  21.2523  21.2525  22.0904  22.0906
    26.6009  26.6038

          k = 0.3889-0.5000-0.4978 ( 11424 PWs)   bands (ev):

   -66.8184 -66.8182 -66.8180 -66.8178 -66.8032 -66.8030 -66.8028 -66.8026
   -66.7457 -66.7455 -66.7453 -66.7451 -66.7362 -66.7361 -66.7359 -66.7356
   -33.0531 -33.0531 -33.0530 -33.0530 -33.0483 -33.0480 -33.0480 -33.0478
   -33.0115 -33.0114 -33.0114 -33.0111 -32.9941 -32.9938 -32.9937 -32.9936
   -32.9905 -32.9904 -32.9904 -32.9903 -32.9554 -32.9553 -32.9552 -32.9550
   -32.7429 -32.7428 -32.7427 -32.7425 -32.7093 -32.7092 -32.7092 -32.7091
   -32.7030 -32.7030 -32.7029 -32.7027 -32.6851 -32.6848 -32.6847 -32.6846
   -32.6719 -32.6717 -32.6716 -32.6715 -32.6512 -32.6511 -32.6511 -32.6511
    14.4674  14.4678  14.4680  14.4682  15.2860  15.2863  15.2865  15.2867
    16.8377  16.8381  16.8381  16.8383  17.0346  17.0348  17.0351  17.0351
    17.1195  17.1197  17.1199  17.1201  17.1387  17.1389  17.1391  17.1391
    17.5263  17.5266  17.5267  17.5268  17.5454  17.5455  17.5456  17.5457
    17.5469  17.5470  17.5471  17.5471  17.7076  17.7079  17.7079  17.7080
    17.7622  17.7622  17.7623  17.7626  17.9136  17.9137  17.9138  17.9139
    20.2322  20.2325  20.2327  20.2328  20.2928  20.2929  20.2930  20.2932
    20.3774  20.3775  20.3777  20.3779  20.4458  20.4461  20.4463  20.4464
    20.4544  20.4545  20.4545  20.4546  20.5114  20.5115  20.5115  20.5118
    20.7808  20.7810  20.7810  20.7813  20.8879  20.8884  20.8885  20.8885
    20.9282  20.9283  20.9283  20.9284  21.6611  21.6615  21.6617  21.6617
    27.1980  27.1982

          k =-0.5000-0.5000 0.0553 ( 11412 PWs)   bands (ev):

   -66.8295 -66.8295 -66.8292 -66.8292 -66.7763 -66.7762 -66.7760 -66.7760
   -66.7675 -66.7675 -66.7673 -66.7672 -66.7296 -66.7296 -66.7294 -66.7293
   -33.0962 -33.0961 -33.0961 -33.0957 -33.0784 -33.0783 -33.0783 -33.0782
   -33.0720 -33.0719 -33.0719 -33.0718 -32.9129 -32.9129 -32.9125 -32.9125
   -32.8998 -32.8994 -32.8991 -32.8991 -32.8688 -32.8688 -32.8688 -32.8684
   -32.8264 -32.8264 -32.8264 -32.8260 -32.8115 -32.8111 -32.8108 -32.8108
   -32.7040 -32.7040 -32.7036 -32.7035 -32.6700 -32.6699 -32.6698 -32.6698
   -32.6657 -32.6656 -32.6655 -32.6655 -32.6099 -32.6099 -32.6099 -32.6095
    13.7959  13.7961  13.7961  13.7964  16.2320  16.2323  16.2323  16.2324
    16.3321  16.3322  16.3322  16.3325  16.4412  16.4415  16.4415  16.4416
    16.9501  16.9502  16.9502  16.9506  17.2781  17.2783  17.2783  17.2785
    17.3238  17.3241  17.3241  17.3242  17.8517  17.8520  17.8520  17.8522
    17.8752  17.8753  17.8753  17.8754  17.9597  17.9598  17.9598  17.9599
    18.3194  18.3194  18.3197  18.3198  18.8985  18.8987  18.8990  18.8990
    19.7808  19.7808  19.7810  19.7813  20.0255  20.0260  20.0262  20.0262
    20.0901  20.0901  20.0901  20.0902  20.1678  20.1680  20.1680  20.1683
    20.1688  20.1689  20.1689  20.1691  20.4252  20.4252  20.4253  20.4254
    20.6748  20.6748  20.6752  20.6752  20.7324  20.7324  20.7327  20.7328
    21.5884  21.5885  21.5885  21.5886  23.1975  23.1979  23.1979  23.1979
    23.9571  23.9575

          k =-0.5000-0.5000 0.1659 ( 11388 PWs)   bands (ev):

   -66.8275 -66.8275 -66.8272 -66.8272 -66.7853 -66.7853 -66.7850 -66.7850
   -66.7593 -66.7593 -66.7591 -66.7591 -66.7307 -66.7307 -66.7304 -66.7304
   -33.0886 -33.0885 -33.0885 -33.0881 -33.0767 -33.0766 -33.0766 -33.0765
   -33.0576 -33.0574 -33.0574 -33.0574 -32.9349 -32.9349 -32.9347 -32.9346
   -32.9109 -32.9109 -32.9109 -32.9105 -32.9105 -32.9102 -32.9098 -32.9098
   -32.7923 -32.7920 -32.7918 -32.7918 -32.7847 -32.7847 -32.7847 -32.7843
   -32.6999 -32.6999 -32.6996 -32.6995 -32.6772 -32.6770 -32.6769 -32.6769
   -32.6646 -32.6645 -32.6645 -32.6645 -32.6170 -32.6170 -32.6170 -32.6166
    13.9147  13.9148  13.9148  13.9152  15.9897  15.9900  15.9900  15.9902
    16.4228  16.4229  16.4229  16.4232  16.6545  16.6548  16.6548  16.6549
    16.9678  16.9679  16.9679  16.9682  17.2365  17.2366  17.2366  17.2369
    17.3787  17.3790  17.3790  17.3792  17.7177  17.7178  17.7178  17.7179
    17.8213  17.8216  17.8216  17.8218  17.9140  17.9141  17.9141  17.9142
    18.1787  18.1787  18.1789  18.1790  18.6227  18.6229  18.6231  18.6231
    20.0106  20.0106  20.0107  20.0110  20.1033  20.1033  20.1033  20.1035
    20.1966  20.1967  20.1967  20.1970  20.2126  20.2127  20.2127  20.2130
    20.2319  20.2323  20.2325  20.2325  20.4169  20.4169  20.4170  20.4171
    20.6100  20.6100  20.6103  20.6103  20.7785  20.7785  20.7788  20.7789
    21.4463  21.4464  21.4464  21.4465  22.5896  22.5901  22.5901  22.5901
    24.8854  24.8856

          k =-0.5000-0.5000 0.2766 ( 11396 PWs)   bands (ev):

   -66.8237 -66.8237 -66.8234 -66.8234 -66.7944 -66.7944 -66.7941 -66.7941
   -66.7520 -66.7520 -66.7517 -66.7517 -66.7328 -66.7328 -66.7325 -66.7325
   -33.0734 -33.0734 -33.0734 -33.0730 -33.0665 -33.0665 -33.0665 -33.0663
   -33.0370 -33.0368 -33.0368 -33.0368 -32.9650 -32.9650 -32.9649 -32.9648
   -32.9514 -32.9514 -32.9514 -32.9510 -32.9299 -32.9295 -32.9293 -32.9293
   -32.7674 -32.7671 -32.7670 -32.7670 -32.7455 -32.7455 -32.7455 -32.7451
   -32.6932 -32.6932 -32.6930 -32.6929 -32.6881 -32.6879 -32.6878 -32.6878
   -32.6667 -32.6667 -32.6667 -32.6666 -32.6309 -32.6309 -32.6309 -32.6305
    14.1449  14.1451  14.1451  14.1454  15.6744  15.6747  15.6747  15.6749
    16.5957  16.5958  16.5958  16.5961  16.8892  16.8895  16.8895  16.8896
    17.0010  17.0011  17.0011  17.0014  17.1934  17.1936  17.1936  17.1938
    17.4450  17.4452  17.4452  17.4454  17.5874  17.5874  17.5874  17.5876
    17.7477  17.7479  17.7479  17.7480  17.7649  17.7652  17.7652  17.7654
    17.9748  17.9748  17.9749  17.9751  18.2678  18.2681  18.2682  18.2682
    20.1645  20.1645  20.1645  20.1647  20.2408  20.2409  20.2409  20.2411
    20.2741  20.2741  20.2741  20.2743  20.3111  20.3113  20.3113  20.3115
    20.3999  20.3999  20.4000  20.4001  20.5314  20.5314  20.5315  20.5317
    20.5320  20.5323  20.5324  20.5324  20.7953  20.7953  20.7955  20.7957
    21.2110  21.2112  21.2112  21.2113  22.0930  22.0935  22.0935  22.0935
    25.9670  25.9671

          k =-0.5000-0.5000 0.3872 ( 11428 PWs)   bands (ev):

   -66.8182 -66.8182 -66.8180 -66.8179 -66.8032 -66.8031 -66.8029 -66.8029
   -66.7456 -66.7456 -66.7453 -66.7453 -66.7360 -66.7360 -66.7357 -66.7357
   -33.0513 -33.0513 -33.0513 -33.0509 -33.0490 -33.0489 -33.0489 -33.0488
   -33.0116 -33.0113 -33.0113 -33.0113 -32.9960 -32.9960 -32.9959 -32.9958
   -32.9891 -32.9891 -32.9891 -32.9887 -32.9556 -32.9554 -32.9552 -32.9552
   -32.7431 -32.7428 -32.7427 -32.7427 -32.7093 -32.7093 -32.7093 -32.7089
   -32.7027 -32.7025 -32.7024 -32.7024 -32.6854 -32.6854 -32.6853 -32.6852
   -32.6713 -32.6713 -32.6713 -32.6712 -32.6516 -32.6516 -32.6516 -32.6512
    14.4705  14.4707  14.4707  14.4710  15.2843  15.2845  15.2845  15.2847
    16.8312  16.8313  16.8313  16.8316  17.0453  17.0455  17.0455  17.0458
    17.1190  17.1192  17.1192  17.1193  17.1463  17.1464  17.1464  17.1467
    17.5223  17.5226  17.5226  17.5228  17.5382  17.5385  17.5385  17.5385
    17.5537  17.5537  17.5537  17.5539  17.6901  17.6904  17.6904  17.6906
    17.7755  17.7755  17.7755  17.7757  17.9100  17.9103  17.9104  17.9104
    20.2457  20.2457  20.2458  20.2460  20.2897  20.2897  20.2897  20.2900
    20.3724  20.3724  20.3724  20.3726  20.4396  20.4397  20.4398  20.4399
    20.4698  20.4700  20.4700  20.4702  20.4997  20.4997  20.4998  20.5000
    20.7619  20.7619  20.7621  20.7622  20.8861  20.8866  20.8867  20.8867
    20.9419  20.9421  20.9421  20.9423  21.6628  21.6632  21.6633  21.6633
    27.1527  27.1529

          k =-0.5000-0.5000-0.4978 ( 11392 PWs)   bands (ev):

   -66.8116 -66.8116 -66.8113 -66.8112 -66.8108 -66.8108 -66.8107 -66.8106
   -66.7406 -66.7406 -66.7403 -66.7402 -66.7398 -66.7398 -66.7397 -66.7396
   -33.0252 -33.0251 -33.0251 -33.0249 -33.0247 -33.0247 -33.0247 -33.0246
   -33.0230 -33.0227 -33.0227 -33.0224 -33.0224 -33.0224 -33.0221 -33.0218
   -32.9837 -32.9836 -32.9834 -32.9833 -32.9833 -32.9830 -32.9830 -32.9828
   -32.7213 -32.7212 -32.7210 -32.7209 -32.7209 -32.7206 -32.7206 -32.7204
   -32.6784 -32.6780 -32.6780 -32.6778 -32.6778 -32.6778 -32.6777 -32.6777
   -32.6777 -32.6776 -32.6773 -32.6773 -32.6773 -32.6773 -32.6772 -32.6771
    14.8642  14.8644  14.8644  14.8647  14.8648  14.8650  14.8650  14.8651
    17.0823  17.0823  17.0824  17.0828  17.0828  17.0830  17.0830  17.0831
    17.0956  17.0956  17.0956  17.0959  17.0960  17.0962  17.0962  17.0964
    17.5965  17.5971  17.5971  17.5971  17.5972  17.5973  17.5974  17.5974
    17.6060  17.6063  17.6066  17.6066  17.6067  17.6067  17.6068  17.6073
    17.6242  17.6242  17.6242  17.6246  17.6247  17.6247  17.6248  17.6248
    20.3347  20.3347  20.3349  20.3351  20.3354  20.3355  20.3355  20.3356
    20.3407  20.3408  20.3408  20.3412  20.3413  20.3414  20.3414  20.3415
    20.6646  20.6646  20.6647  20.6649  20.6650  20.6650  20.6652  20.6653
    20.6849  20.6851  20.6851  20.6851  20.6852  20.6854  20.6854  20.6858
    21.2648  21.2657  21.2659  21.2659  21.2659  21.2659  21.2659  21.2659
    28.3307  28.3322

     the Fermi energy is    20.4045 ev

!    total energy              =   -5267.70884481 Ry
     Harris-Foulkes estimate   =   -5267.70887793 Ry
     estimated scf accuracy    <       0.00004448 Ry

     total all-electron energy =    -40728.453374 Ry

     The total energy is the sum of the following terms:

     one-electron contribution =   -1626.76743234 Ry
     hartree contribution      =     991.68042388 Ry
     xc contribution           =    -442.95064296 Ry
     ewald contribution        =   -2864.77755975 Ry
     one-center paw contrib.   =   -1324.76159283 Ry
     smearing contrib. (-TS)   =      -0.13204081 Ry

     convergence has been achieved in  11 iterations

     Forces acting on atoms (cartesian axes, Ry/au):

     atom    1 type  1   force =     0.00000000    0.00000000    0.00000000
     atom    2 type  1   force =    -0.00014389   -0.00014389    0.00061845
     atom    3 type  1   force =     0.00000000    0.00000000    0.00000000
     atom    4 type  1   force =    -0.00014389   -0.00014389   -0.00061845
     atom    5 type  1   force =     0.00000000    0.00000000    0.00000000
     atom    6 type  1   force =    -0.00014389    0.00014389    0.00061845
     atom    7 type  1   force =     0.00000000    0.00000000    0.00000000
     atom    8 type  1   force =    -0.00014389    0.00014389   -0.00061845
     atom    9 type  1   force =     0.00000000    0.00000000    0.00000000
     atom   10 type  1   force =     0.00014389   -0.00014389    0.00061845
     atom   11 type  1   force =     0.00000000    0.00000000    0.00000000
     atom   12 type  1   force =     0.00014389   -0.00014389   -0.00061845
     atom   13 type  1   force =     0.00000000    0.00000000    0.00000000
     atom   14 type  1   force =     0.00014389    0.00014389    0.00061845
     atom   15 type  1   force =     0.00000000    0.00000000    0.00000000
     atom   16 type  1   force =     0.00014389    0.00014389   -0.00061845

     Total force =     0.001841     Total SCF correction =     0.006511
     SCF correction compared to forces is large: reduce conv_thr to get better values


     Computing stress (Cartesian axis) and pressure

          total   stress  (Ry/bohr**3)                   (kbar)     P=   28.98
   0.00017695   0.00000000   0.00000000         26.03      0.00      0.00
   0.00000000   0.00017695   0.00000000          0.00     26.03      0.00
   0.00000000   0.00000000   0.00023713          0.00      0.00     34.88


     Writing output data file ohsUNjFHtlIzWvds.save/
 
     init_run     :      6.59s CPU      6.92s WALL (       1 calls)
     electrons    :    247.92s CPU    256.32s WALL (       1 calls)
     forces       :      2.36s CPU      2.61s WALL (       1 calls)
     stress       :      5.78s CPU      5.86s WALL (       1 calls)

     Called by init_run:
     wfcinit      :      6.27s CPU      6.53s WALL (       1 calls)
     potinit      :      0.10s CPU      0.13s WALL (       1 calls)
     hinit0       :      0.15s CPU      0.16s WALL (       1 calls)

     Called by electrons:
     c_bands      :    222.20s CPU    228.95s WALL (      12 calls)
     sum_band     :     24.63s CPU     26.00s WALL (      12 calls)
     v_of_rho     :      0.12s CPU      0.23s WALL (      12 calls)
     newd         :      0.16s CPU      0.22s WALL (      12 calls)
     PAW_pot      :      0.84s CPU      0.90s WALL (      12 calls)
     mix_rho      :      0.04s CPU      0.07s WALL (      12 calls)

     Called by c_bands:
     init_us_2    :      1.27s CPU      1.29s WALL (    2025 calls)
     cegterg      :    215.96s CPU    222.63s WALL (     900 calls)

     Called by sum_band:
     sum_band:bec :      0.36s CPU      0.36s WALL (     900 calls)
     addusdens    :      0.18s CPU      0.22s WALL (      12 calls)

     Called by *egterg:
     h_psi        :     97.64s CPU    101.85s WALL (    2793 calls)
     s_psi        :      5.27s CPU      5.30s WALL (    2793 calls)
     g_psi        :      0.21s CPU      0.21s WALL (    1818 calls)
     cdiaghg      :     93.39s CPU     93.68s WALL (    2643 calls)

     Called by h_psi:
     h_psi:pot    :     97.11s CPU    101.32s WALL (    2793 calls)
     h_psi:calbec :      8.02s CPU      9.38s WALL (    2793 calls)
     vloc_psi     :     83.74s CPU     86.56s WALL (    2793 calls)
     add_vuspsi   :      5.32s CPU      5.36s WALL (    2793 calls)

     General routines
     calbec       :     12.93s CPU     15.17s WALL (    4068 calls)
     fft          :      0.13s CPU      0.34s WALL (     181 calls)
     ffts         :      0.01s CPU      0.06s WALL (      24 calls)
     fftw         :     97.58s CPU    100.86s WALL (  755226 calls)
     interpolate  :      0.02s CPU      0.04s WALL (      12 calls)
 
     Parallel routines
     fft_scatt_xy :      6.65s CPU      6.87s WALL (  755431 calls)
     fft_scatt_yz :     65.22s CPU     67.71s WALL (  755431 calls)
 
     PWSCF        :  4m28.09s CPU     4m44.96s WALL

 
   This run was terminated on:   8:25:28   5Sep2020            

=------------------------------------------------------------------------------=
   JOB DONE.
=------------------------------------------------------------------------------=
