--------------------------------------------------------------------------
WARNING: There was an error initializing an OpenFabrics device.

  Local host:   bear-pg0211u07b
  Local device: mlx5_0
--------------------------------------------------------------------------

     Program PWSCF v.6.3 starts on  5Sep2020 at  8:15:56 

     This program is part of the open-source Quantum ESPRESSO suite
     for quantum simulation of materials; please cite
         "P. Giannozzi et al., J. Phys.:Condens. Matter 21 395502 (2009);
         "P. Giannozzi et al., J. Phys.:Condens. Matter 29 465901 (2017);
          URL http://www.quantum-espresso.org", 
     in publications or presentations arising from this work. More details at
     http://www.quantum-espresso.org/quote

     Parallel version (MPI & OpenMP), running on      40 processor cores
     Number of MPI processes:                40
     Threads/MPI process:                     1

     MPI processes distributed on     1 nodes
     R & G space division:  proc/nbgrp/npool/nimage =      40
     Reading input from wd/ec/ec_3_007.in
Warning: card &IONS ignored
Warning: card ION_DYNAMICS = 'BFGS', ignored
Warning: card / ignored
Warning: card &CELL ignored
Warning: card CELL_DYNAMICS = 'BFGS', ignored
Warning: card CELL_FACTOR = 2.0, ignored
Warning: card PRESS = 0.0, ignored
Warning: card / ignored

     Current dimensions of program PWSCF are:
     Max number of different atomic species (ntypx) = 10
     Max number of k-points (npk) =  40000
     Max angular momentum in pseudopotentials (lmaxx) =  3
               file Fe.pbe-spn-kjpaw_psl.1.0.0.UPF: wavefunction(s)  3P 3D renormalized

     Subspace diagonalization in iterative solution of the eigenvalue problem:
     a serial algorithm will be used

 
     Parallelization info
     --------------------
     sticks:   dense  smooth     PW     G-vecs:    dense   smooth      PW
     Min          92      61     17                 4238     2275     339
     Max          93      62     18                 4243     2279     343
     Sum        3705    2441    681               169661    91079   13613
 


     bravais-lattice index     =            0
     lattice parameter (alat)  =      10.3915  a.u.
     unit-cell volume          =    1126.3052 (a.u.)^3
     number of atoms/cell      =           16
     number of atomic types    =            1
     number of electrons       =       256.00
     number of Kohn-Sham states=          154
     kinetic-energy cutoff     =      71.0000  Ry
     charge density cutoff     =     430.0000  Ry
     convergence threshold     =      5.0E-05
     mixing beta               =       0.1000
     number of iterations used =           10  plain     mixing
     Exchange-correlation      = SLA PW PBX PBC ( 1  4  3  4 0 0)

     celldm(1)=  10.391466  celldm(2)=   0.000000  celldm(3)=   0.000000
     celldm(4)=   0.000000  celldm(5)=   0.000000  celldm(6)=   0.000000

     crystal axes: (cart. coord. in units of alat)
               a(1) = (   1.000000   0.000000   0.000000 )  
               a(2) = (   0.000000   1.000000   0.000000 )  
               a(3) = (   0.000000   0.000000   1.003750 )  

     reciprocal axes: (cart. coord. in units 2 pi/alat)
               b(1) = (  1.000000  0.000000  0.000000 )  
               b(2) = (  0.000000  1.000000  0.000000 )  
               b(3) = (  0.000000  0.000000  0.996264 )  


     PseudoPot. # 1 for Fe read from file:
     /rds/homes/b/bxp912/pp/Fe.pbe-spn-kjpaw_psl.1.0.0.UPF
     MD5 check sum: 42f43b795421b414b0dc916aa790dbcb
     Pseudo is Projector augmented-wave + core cor, Zval = 16.0
     Generated using "atomic" code by A. Dal Corso v.6.3
     Shape of augmentation charge: PSQ
     Using radial grid of 1191 points,  6 beta functions with: 
                l(1) =   0
                l(2) =   0
                l(3) =   1
                l(4) =   1
                l(5) =   2
                l(6) =   2
     Q(r) pseudized with 0 coefficients 


     atomic species   valence    mass     pseudopotential
        Fe            16.00    55.84500     Fe( 1.00)

     16 Sym. Ops., with inversion, found



   Cartesian axes

     site n.     atom                  positions (alat units)
         1           Fe  tau(   1) = (   0.0000000   0.0000000   0.0000000  )
         2           Fe  tau(   2) = (   0.2500089   0.2500089   0.2509464  )
         3           Fe  tau(   3) = (   0.0000000   0.0000000   0.5018745  )
         4           Fe  tau(   4) = (   0.2500089   0.2500089   0.7528036  )
         5           Fe  tau(   5) = (   0.0000000   0.5000001   0.0000000  )
         6           Fe  tau(   6) = (   0.2500089   0.7499912   0.2509464  )
         7           Fe  tau(   7) = (   0.0000000   0.5000001   0.5018745  )
         8           Fe  tau(   8) = (   0.2500089   0.7499912   0.7528036  )
         9           Fe  tau(   9) = (   0.5000001   0.0000000   0.0000000  )
        10           Fe  tau(  10) = (   0.7499912   0.2500089   0.2509464  )
        11           Fe  tau(  11) = (   0.5000001   0.0000000   0.5018745  )
        12           Fe  tau(  12) = (   0.7499912   0.2500089   0.7528036  )
        13           Fe  tau(  13) = (   0.5000001   0.5000001   0.0000000  )
        14           Fe  tau(  14) = (   0.7499912   0.7499912   0.2509464  )
        15           Fe  tau(  15) = (   0.5000001   0.5000001   0.5018745  )
        16           Fe  tau(  16) = (   0.7499912   0.7499912   0.7528036  )

     number of k points=    75  Marzari-Vanderbilt smearing, width (Ry)=  0.0400
                       cart. coord. in units 2pi/alat
        k(    1) = (   0.0555556   0.0555556   0.0553480), wk =   0.0219479
        k(    2) = (   0.0555556   0.0555556   0.1660440), wk =   0.0219479
        k(    3) = (   0.0555556   0.0555556   0.2767400), wk =   0.0219479
        k(    4) = (   0.0555556   0.0555556   0.3874360), wk =   0.0219479
        k(    5) = (   0.0555556   0.0555556  -0.4981320), wk =   0.0109739
        k(    6) = (   0.0555556   0.1666667   0.0553480), wk =   0.0438957
        k(    7) = (   0.0555556   0.1666667   0.1660440), wk =   0.0438957
        k(    8) = (   0.0555556   0.1666667   0.2767400), wk =   0.0438957
        k(    9) = (   0.0555556   0.1666667   0.3874360), wk =   0.0438957
        k(   10) = (   0.0555556   0.1666667  -0.4981320), wk =   0.0219479
        k(   11) = (   0.0555556   0.2777778   0.0553480), wk =   0.0438957
        k(   12) = (   0.0555556   0.2777778   0.1660440), wk =   0.0438957
        k(   13) = (   0.0555556   0.2777778   0.2767400), wk =   0.0438957
        k(   14) = (   0.0555556   0.2777778   0.3874360), wk =   0.0438957
        k(   15) = (   0.0555556   0.2777778  -0.4981320), wk =   0.0219479
        k(   16) = (   0.0555556   0.3888889   0.0553480), wk =   0.0438957
        k(   17) = (   0.0555556   0.3888889   0.1660440), wk =   0.0438957
        k(   18) = (   0.0555556   0.3888889   0.2767400), wk =   0.0438957
        k(   19) = (   0.0555556   0.3888889   0.3874360), wk =   0.0438957
        k(   20) = (   0.0555556   0.3888889  -0.4981320), wk =   0.0219479
        k(   21) = (   0.0555556  -0.5000000   0.0553480), wk =   0.0219479
        k(   22) = (   0.0555556  -0.5000000   0.1660440), wk =   0.0219479
        k(   23) = (   0.0555556  -0.5000000   0.2767400), wk =   0.0219479
        k(   24) = (   0.0555556  -0.5000000   0.3874360), wk =   0.0219479
        k(   25) = (   0.0555556  -0.5000000  -0.4981320), wk =   0.0109739
        k(   26) = (   0.1666667   0.1666667   0.0553480), wk =   0.0219479
        k(   27) = (   0.1666667   0.1666667   0.1660440), wk =   0.0219479
        k(   28) = (   0.1666667   0.1666667   0.2767400), wk =   0.0219479
        k(   29) = (   0.1666667   0.1666667   0.3874360), wk =   0.0219479
        k(   30) = (   0.1666667   0.1666667  -0.4981320), wk =   0.0109739
        k(   31) = (   0.1666667   0.2777778   0.0553480), wk =   0.0438957
        k(   32) = (   0.1666667   0.2777778   0.1660440), wk =   0.0438957
        k(   33) = (   0.1666667   0.2777778   0.2767400), wk =   0.0438957
        k(   34) = (   0.1666667   0.2777778   0.3874360), wk =   0.0438957
        k(   35) = (   0.1666667   0.2777778  -0.4981320), wk =   0.0219479
        k(   36) = (   0.1666667   0.3888889   0.0553480), wk =   0.0438957
        k(   37) = (   0.1666667   0.3888889   0.1660440), wk =   0.0438957
        k(   38) = (   0.1666667   0.3888889   0.2767400), wk =   0.0438957
        k(   39) = (   0.1666667   0.3888889   0.3874360), wk =   0.0438957
        k(   40) = (   0.1666667   0.3888889  -0.4981320), wk =   0.0219479
        k(   41) = (   0.1666667  -0.5000000   0.0553480), wk =   0.0219479
        k(   42) = (   0.1666667  -0.5000000   0.1660440), wk =   0.0219479
        k(   43) = (   0.1666667  -0.5000000   0.2767400), wk =   0.0219479
        k(   44) = (   0.1666667  -0.5000000   0.3874360), wk =   0.0219479
        k(   45) = (   0.1666667  -0.5000000  -0.4981320), wk =   0.0109739
        k(   46) = (   0.2777778   0.2777778   0.0553480), wk =   0.0219479
        k(   47) = (   0.2777778   0.2777778   0.1660440), wk =   0.0219479
        k(   48) = (   0.2777778   0.2777778   0.2767400), wk =   0.0219479
        k(   49) = (   0.2777778   0.2777778   0.3874360), wk =   0.0219479
        k(   50) = (   0.2777778   0.2777778  -0.4981320), wk =   0.0109739
        k(   51) = (   0.2777778   0.3888889   0.0553480), wk =   0.0438957
        k(   52) = (   0.2777778   0.3888889   0.1660440), wk =   0.0438957
        k(   53) = (   0.2777778   0.3888889   0.2767400), wk =   0.0438957
        k(   54) = (   0.2777778   0.3888889   0.3874360), wk =   0.0438957
        k(   55) = (   0.2777778   0.3888889  -0.4981320), wk =   0.0219479
        k(   56) = (   0.2777778  -0.5000000   0.0553480), wk =   0.0219479
        k(   57) = (   0.2777778  -0.5000000   0.1660440), wk =   0.0219479
        k(   58) = (   0.2777778  -0.5000000   0.2767400), wk =   0.0219479
        k(   59) = (   0.2777778  -0.5000000   0.3874360), wk =   0.0219479
        k(   60) = (   0.2777778  -0.5000000  -0.4981320), wk =   0.0109739
        k(   61) = (   0.3888889   0.3888889   0.0553480), wk =   0.0219479
        k(   62) = (   0.3888889   0.3888889   0.1660440), wk =   0.0219479
        k(   63) = (   0.3888889   0.3888889   0.2767400), wk =   0.0219479
        k(   64) = (   0.3888889   0.3888889   0.3874360), wk =   0.0219479
        k(   65) = (   0.3888889   0.3888889  -0.4981320), wk =   0.0109739
        k(   66) = (   0.3888889  -0.5000000   0.0553480), wk =   0.0219479
        k(   67) = (   0.3888889  -0.5000000   0.1660440), wk =   0.0219479
        k(   68) = (   0.3888889  -0.5000000   0.2767400), wk =   0.0219479
        k(   69) = (   0.3888889  -0.5000000   0.3874360), wk =   0.0219479
        k(   70) = (   0.3888889  -0.5000000  -0.4981320), wk =   0.0109739
        k(   71) = (  -0.5000000  -0.5000000   0.0553480), wk =   0.0054870
        k(   72) = (  -0.5000000  -0.5000000   0.1660440), wk =   0.0054870
        k(   73) = (  -0.5000000  -0.5000000   0.2767400), wk =   0.0054870
        k(   74) = (  -0.5000000  -0.5000000   0.3874360), wk =   0.0054870
        k(   75) = (  -0.5000000  -0.5000000  -0.4981320), wk =   0.0027435

     Dense  grid:   169661 G-vectors     FFT dimensions: (  72,  72,  72)

     Smooth grid:    91079 G-vectors     FFT dimensions: (  60,  60,  60)

     Estimated max dynamical RAM per process >      83.49 MB

     Estimated total dynamical RAM >       3.26 GB

     Check: negative/imaginary core charge=   -0.000006    0.000000

     Initial potential from superposition of free atoms

     starting charge  255.99300, renormalised to  256.00000
     Starting wfcs are  160 randomized atomic wfcs
     Checking if some PAW data can be deallocated... 

     total cpu time spent up to now is        7.5 secs

     Self-consistent Calculation

     iteration #  1     ecut=    71.00 Ry     beta= 0.10
     Davidson diagonalization with overlap
     ethr =  1.00E-02,  avg # of iterations =  3.3

     Threshold (ethr) on eigenvalues was too large:
     Diagonalizing with lowered threshold

     Davidson diagonalization with overlap
     ethr =  2.51E-04,  avg # of iterations =  3.2

     total cpu time spent up to now is       61.9 secs

     total energy              =   -5267.75268534 Ry
     Harris-Foulkes estimate   =   -5267.86777220 Ry
     estimated scf accuracy    <       0.72952215 Ry

     iteration #  2     ecut=    71.00 Ry     beta= 0.10
     Davidson diagonalization with overlap
     ethr =  2.85E-04,  avg # of iterations =  1.0

     total cpu time spent up to now is       78.3 secs

     total energy              =   -5267.61969320 Ry
     Harris-Foulkes estimate   =   -5267.76787028 Ry
     estimated scf accuracy    <       0.36143092 Ry

     iteration #  3     ecut=    71.00 Ry     beta= 0.10
     Davidson diagonalization with overlap
     ethr =  1.41E-04,  avg # of iterations =  3.2

     total cpu time spent up to now is      109.0 secs

     total energy              =   -5267.69993497 Ry
     Harris-Foulkes estimate   =   -5267.72297791 Ry
     estimated scf accuracy    <       0.54705373 Ry

     iteration #  4     ecut=    71.00 Ry     beta= 0.10
     Davidson diagonalization with overlap
     ethr =  1.41E-04,  avg # of iterations =  1.0

     total cpu time spent up to now is      125.4 secs

     total energy              =   -5267.70678038 Ry
     Harris-Foulkes estimate   =   -5267.71229345 Ry
     estimated scf accuracy    <       0.03094920 Ry

     iteration #  5     ecut=    71.00 Ry     beta= 0.10
     Davidson diagonalization with overlap
     ethr =  1.21E-05,  avg # of iterations =  2.0

     total cpu time spent up to now is      145.3 secs

     total energy              =   -5267.70585746 Ry
     Harris-Foulkes estimate   =   -5267.70867405 Ry
     estimated scf accuracy    <       0.02180789 Ry

     iteration #  6     ecut=    71.00 Ry     beta= 0.10
     Davidson diagonalization with overlap
     ethr =  8.52E-06,  avg # of iterations =  3.0

     total cpu time spent up to now is      171.4 secs

     total energy              =   -5267.70914498 Ry
     Harris-Foulkes estimate   =   -5267.70838388 Ry
     estimated scf accuracy    <       0.01108034 Ry

     iteration #  7     ecut=    71.00 Ry     beta= 0.10
     Davidson diagonalization with overlap
     ethr =  4.33E-06,  avg # of iterations =  1.1

     total cpu time spent up to now is      188.3 secs

     total energy              =   -5267.70790970 Ry
     Harris-Foulkes estimate   =   -5267.70953117 Ry
     estimated scf accuracy    <       0.01310007 Ry

     iteration #  8     ecut=    71.00 Ry     beta= 0.10
     Davidson diagonalization with overlap
     ethr =  4.33E-06,  avg # of iterations =  1.1

     total cpu time spent up to now is      205.2 secs

     total energy              =   -5267.70824727 Ry
     Harris-Foulkes estimate   =   -5267.70871631 Ry
     estimated scf accuracy    <       0.00785062 Ry

     iteration #  9     ecut=    71.00 Ry     beta= 0.10
     Davidson diagonalization with overlap
     ethr =  3.07E-06,  avg # of iterations =  2.1

     total cpu time spent up to now is      225.7 secs

     total energy              =   -5267.70861667 Ry
     Harris-Foulkes estimate   =   -5267.70862739 Ry
     estimated scf accuracy    <       0.00044672 Ry

     iteration # 10     ecut=    71.00 Ry     beta= 0.10
     Davidson diagonalization with overlap
     ethr =  1.75E-07,  avg # of iterations =  2.4

     total cpu time spent up to now is      247.9 secs

     total energy              =   -5267.70862445 Ry
     Harris-Foulkes estimate   =   -5267.70863631 Ry
     estimated scf accuracy    <       0.00020206 Ry

     iteration # 11     ecut=    71.00 Ry     beta= 0.10
     Davidson diagonalization with overlap
     ethr =  7.89E-08,  avg # of iterations =  1.1

     total cpu time spent up to now is      264.8 secs

     End of self-consistent calculation

          k = 0.0556 0.0556 0.0553 ( 11330 PWs)   bands (ev):

   -66.8722 -66.7743 -66.7740 -66.7736 -66.7580 -66.7578 -66.7574 -66.7569
   -66.7568 -66.7563 -66.7561 -66.7560 -66.7556 -66.7488 -66.7487 -66.6734
   -33.1664 -33.1664 -33.1652 -33.1633 -33.1633 -33.1622 -33.0024 -32.9980
   -32.9929 -32.9243 -32.9216 -32.9213 -32.9211 -32.9000 -32.8998 -32.8869
   -32.8864 -32.8859 -32.8495 -32.8490 -32.8251 -32.8099 -32.8097 -32.8082
   -32.7981 -32.7979 -32.7970 -32.7863 -32.7837 -32.7833 -32.7832 -32.7804
   -32.7801 -32.7743 -32.7742 -32.7727 -32.7631 -32.7630 -32.7619 -32.6004
   -32.5992 -32.5983 -32.5983 -32.5963 -32.5952 -32.5952 -32.5940 -32.5933
    11.3950  15.2604  15.2831  15.2831  15.4030  15.4043  15.4044  15.4290
    15.4304  15.4304  15.6699  15.6803  15.7728  15.7962  15.7963  17.1611
    17.2390  17.2474  17.2529  17.2536  17.2711  17.2711  17.2850  17.2850
    17.3854  17.3976  17.4382  17.6884  17.6966  17.6967  18.0799  18.0899
    18.0902  18.5596  18.5736  18.6191  18.8883  18.8883  18.9033  18.9947
    18.9948  19.0063  19.0789  19.0791  19.0955  19.1759  19.1760  19.1906
    19.9212  19.9215  19.9321  20.1394  20.1395  20.1608  20.1715  20.1716
    20.1797  20.3037  20.3037  20.3067  20.3068  20.3326  20.3339  20.3348
    20.3614  20.5893  20.5894  20.6061  20.6064  20.6182  20.6213  20.6474
    20.6477  20.6628  20.6630  21.1354  21.1356  21.1588  21.3664  21.3897
    21.4288  21.4288  21.4429  21.4469  21.8622  21.8700  21.8700  21.8759
    21.9128  21.9128

          k = 0.0556 0.0556 0.1660 ( 11347 PWs)   bands (ev):

   -66.8687 -66.7918 -66.7732 -66.7729 -66.7599 -66.7596 -66.7569 -66.7565
   -66.7561 -66.7555 -66.7553 -66.7550 -66.7494 -66.7490 -66.7402 -66.6760
   -33.1585 -33.1584 -33.1562 -33.1536 -33.1496 -33.1495 -33.0054 -32.9917
   -32.9832 -32.9610 -32.9530 -32.9529 -32.9502 -32.9495 -32.9193 -32.9191
   -32.8834 -32.8558 -32.8456 -32.8437 -32.8317 -32.8082 -32.8080 -32.8009
   -32.7922 -32.7885 -32.7876 -32.7873 -32.7869 -32.7778 -32.7774 -32.7733
   -32.7730 -32.7710 -32.7710 -32.7383 -32.7372 -32.7370 -32.7284 -32.6157
   -32.6078 -32.6078 -32.6071 -32.6046 -32.5989 -32.5985 -32.5985 -32.5964
    11.5319  14.6307  15.3388  15.3388  15.4144  15.4145  15.4949  15.4949
    15.5029  15.5274  15.7317  15.7446  15.8388  15.8388  16.1089  17.0494
    17.1623  17.1633  17.2219  17.2346  17.2791  17.2997  17.3210  17.3210
    17.3623  17.3623  17.5877  17.6002  17.6508  17.6510  17.9899  17.9901
    18.4325  18.5440  18.5559  18.6849  18.6850  18.6865  18.7528  18.8636
    18.8636  18.9071  19.1619  19.1620  19.2772  19.2773  19.3307  19.4314
    19.6060  19.6062  19.6900  19.8953  19.8955  19.9220  20.0851  20.1512
    20.1514  20.2470  20.2471  20.2617  20.3340  20.3342  20.3525  20.3785
    20.3892  20.3942  20.3943  20.4258  20.6208  20.6286  20.6289  20.6606
    20.6610  20.8392  20.9319  20.9320  21.0852  21.1947  21.3099  21.4349
    21.4364  21.4364  21.4708  21.4710  21.7733  21.7734  21.9566  21.9566
    22.0331  22.0332

          k = 0.0556 0.0556 0.2767 ( 11367 PWs)   bands (ev):

   -66.8620 -66.8090 -66.7718 -66.7715 -66.7622 -66.7620 -66.7560 -66.7560
   -66.7557 -66.7548 -66.7548 -66.7544 -66.7504 -66.7498 -66.7247 -66.6811
   -33.1402 -33.1402 -33.1385 -33.1365 -33.1258 -33.1258 -33.0062 -33.0026
   -32.9970 -32.9946 -32.9945 -32.9791 -32.9726 -32.9683 -32.9635 -32.9633
   -32.8776 -32.8687 -32.8654 -32.8511 -32.8060 -32.8057 -32.8031 -32.8016
   -32.7983 -32.7913 -32.7909 -32.7759 -32.7755 -32.7733 -32.7729 -32.7549
   -32.7473 -32.7359 -32.7358 -32.7057 -32.7040 -32.7039 -32.6965 -32.6411
   -32.6234 -32.6233 -32.6225 -32.6208 -32.6107 -32.6080 -32.6079 -32.6056
    11.8017  13.9564  15.4245  15.4245  15.4512  15.4513  15.5927  15.5927
    15.6948  15.7164  15.8460  15.8720  15.8879  15.8879  16.2551  16.8835
    16.9284  16.9316  17.1165  17.1638  17.1918  17.2023  17.4324  17.4324
    17.5007  17.5008  17.6414  17.6416  17.8428  17.8644  17.9210  17.9212
    18.3972  18.3972  18.5262  18.5505  18.5582  18.5582  18.5932  18.6437
    18.7813  19.0297  19.0464  19.0466  19.2615  19.2617  19.4202  19.4204
    19.4583  19.4585  19.4606  19.4910  19.5385  19.6091  19.7202  20.1179
    20.1479  20.1480  20.2455  20.2456  20.3879  20.4022  20.4437  20.4542
    20.4544  20.5926  20.5939  20.6262  20.6555  20.6576  20.6627  20.6864
    20.6865  20.7088  20.8835  20.9349  21.0625  21.1297  21.1297  21.3632
    21.4496  21.4496  21.5262  21.5263  21.6464  21.6464  22.0356  22.0356
    22.1677  22.1677

          k = 0.0556 0.0556 0.3874 ( 11379 PWs)   bands (ev):

   -66.8523 -66.8252 -66.7698 -66.7695 -66.7647 -66.7645 -66.7556 -66.7552
   -66.7548 -66.7546 -66.7544 -66.7535 -66.7518 -66.7509 -66.7108 -66.6888
   -33.1129 -33.1128 -33.1128 -33.1117 -33.0930 -33.0930 -33.0433 -33.0409
   -33.0377 -33.0377 -33.0096 -33.0095 -33.0045 -32.9887 -32.9608 -32.9487
   -32.9092 -32.8967 -32.8524 -32.8404 -32.8183 -32.8118 -32.8030 -32.8027
   -32.7952 -32.7949 -32.7744 -32.7740 -32.7733 -32.7729 -32.7569 -32.7129
   -32.7086 -32.7014 -32.7014 -32.6760 -32.6744 -32.6726 -32.6725 -32.6674
   -32.6449 -32.6449 -32.6442 -32.6442 -32.6278 -32.6235 -32.6234 -32.6214
    12.1962  13.2987  15.4959  15.4959  15.4967  15.4967  15.7100  15.7101
    15.8893  15.8894  15.9625  15.9791  15.9924  16.0595  16.2465  16.5960
    16.6100  16.6176  17.1070  17.1241  17.1558  17.1647  17.6007  17.6007
    17.6943  17.6944  17.7598  17.7600  17.9582  17.9585  18.1369  18.1369
    18.1705  18.1913  18.2520  18.2520  18.5203  18.5204  18.5211  18.5495
    18.5729  18.5817  18.6955  18.6957  18.9072  19.0194  19.0237  19.2502
    19.3353  19.6585  19.6586  19.6848  19.6849  19.9087  19.9263  20.0138
    20.0139  20.0465  20.1102  20.1103  20.4352  20.4447  20.5211  20.5444
    20.5473  20.6152  20.6332  20.6489  20.6550  20.6680  20.7364  20.7448
    20.7552  20.7554  20.8828  20.9732  20.9732  21.1640  21.1641  21.2410
    21.4177  21.4177  21.4654  21.4654  21.5310  21.5311  22.1311  22.1311
    22.2363  22.2363

          k = 0.0556 0.0556-0.4981 ( 11368 PWs)   bands (ev):

   -66.8399 -66.8396 -66.7677 -66.7672 -66.7670 -66.7669 -66.7554 -66.7549
   -66.7547 -66.7546 -66.7535 -66.7531 -66.7524 -66.7520 -66.6989 -66.6985
   -33.0804 -33.0801 -33.0801 -33.0798 -33.0780 -33.0779 -33.0778 -33.0778
   -33.0538 -33.0536 -33.0535 -33.0535 -32.9990 -32.9987 -32.9374 -32.9370
   -32.9250 -32.9247 -32.8354 -32.8351 -32.8266 -32.8263 -32.7995 -32.7991
   -32.7991 -32.7988 -32.7739 -32.7735 -32.7735 -32.7731 -32.7133 -32.7131
   -32.6760 -32.6755 -32.6743 -32.6739 -32.6707 -32.6706 -32.6703 -32.6703
   -32.6499 -32.6494 -32.6453 -32.6452 -32.6451 -32.6451 -32.6422 -32.6419
    12.7017  12.7022  15.5200  15.5200  15.5203  15.5204  15.8212  15.8213
    15.8215  15.8215  16.1403  16.1409  16.2812  16.2817  16.2894  16.2898
    16.3026  16.3029  17.1236  17.1243  17.1329  17.1335  17.8144  17.8145
    17.8147  17.8148  17.9092  17.9093  17.9094  17.9096  18.1114  18.1119
    18.1120  18.1120  18.2697  18.2699  18.2701  18.2701  18.5343  18.5347
    18.5591  18.5596  18.5651  18.5655  18.5786  18.5790  19.0644  19.0646
    19.6425  19.6431  19.8484  19.8484  19.8485  19.8488  19.9209  19.9209
    19.9210  19.9213  20.2690  20.2691  20.3955  20.3957  20.4896  20.4899
    20.4952  20.4954  20.6188  20.6192  20.6409  20.6413  20.6560  20.6564
    21.0130  21.0132  21.0133  21.0133  21.0779  21.0784  21.2236  21.2238
    21.2238  21.2239  21.4833  21.4834  21.4835  21.4836  22.2117  22.2118
    22.2119  22.2120

          k = 0.0556 0.1667 0.0553 ( 11359 PWs)   bands (ev):

   -66.8686 -66.7914 -66.7735 -66.7730 -66.7598 -66.7594 -66.7573 -66.7567
   -66.7563 -66.7557 -66.7553 -66.7548 -66.7494 -66.7491 -66.7398 -66.6760
   -33.1585 -33.1573 -33.1572 -33.1545 -33.1494 -33.1485 -33.0027 -32.9945
   -32.9834 -32.9610 -32.9521 -32.9521 -32.9500 -32.9495 -32.9185 -32.9182
   -32.8839 -32.8564 -32.8463 -32.8455 -32.8328 -32.8108 -32.8081 -32.8004
   -32.7902 -32.7896 -32.7873 -32.7872 -32.7858 -32.7806 -32.7776 -32.7757
   -32.7732 -32.7694 -32.7691 -32.7394 -32.7358 -32.7353 -32.7292 -32.6150
   -32.6086 -32.6079 -32.6062 -32.6034 -32.5995 -32.5994 -32.5984 -32.5961
    11.5329  14.6511  15.3183  15.3398  15.4139  15.4142  15.4937  15.4946
    15.5052  15.5299  15.7345  15.7434  15.8178  15.8397  16.1317  17.0542
    17.1629  17.1760  17.2525  17.2649  17.2883  17.2896  17.3054  17.3213
    17.3309  17.3626  17.5754  17.5870  17.6441  17.6510  17.9828  17.9907
    18.4410  18.5381  18.5706  18.6664  18.6756  18.6898  18.7410  18.8462
    18.8700  18.9026  19.1794  19.1806  19.2947  19.2976  19.3134  19.4150
    19.6084  19.6269  19.6769  19.8990  19.9020  19.9221  20.0580  20.1503
    20.1599  20.2420  20.2710  20.2802  20.3225  20.3262  20.3519  20.3546
    20.3732  20.3938  20.4011  20.4201  20.6084  20.6329  20.6331  20.6522
    20.6525  20.8229  20.9326  20.9513  21.1132  21.1919  21.3043  21.3992
    21.4370  21.4386  21.4695  21.4863  21.7740  21.7787  21.9091  21.9578
    22.0323  22.0485

          k = 0.0556 0.1667 0.1660 ( 11363 PWs)   bands (ev):

   -66.8654 -66.7906 -66.7901 -66.7724 -66.7647 -66.7592 -66.7588 -66.7560
   -66.7548 -66.7544 -66.7513 -66.7503 -66.7491 -66.7404 -66.7400 -66.6785
   -33.1564 -33.1498 -33.1486 -33.1417 -33.1407 -33.1301 -33.0113 -32.9885
   -32.9844 -32.9796 -32.9791 -32.9717 -32.9684 -32.9642 -32.9401 -32.8942
   -32.8797 -32.8788 -32.8451 -32.8429 -32.8426 -32.8152 -32.8051 -32.8029
   -32.7969 -32.7966 -32.7941 -32.7857 -32.7832 -32.7814 -32.7787 -32.7689
   -32.7598 -32.7478 -32.7396 -32.7393 -32.7169 -32.7046 -32.7031 -32.6367
   -32.6229 -32.6148 -32.6140 -32.6071 -32.6062 -32.6040 -32.5952 -32.5940
    11.6682  14.7071  14.7259  15.3569  15.4016  15.5154  15.5170  15.5913
    15.5935  15.6048  15.7968  15.8058  15.8911  16.1520  16.1725  16.9527
    17.0638  17.2413  17.2697  17.2900  17.2947  17.2994  17.3069  17.3364
    17.3430  17.3566  17.4668  17.5667  17.5905  17.6077  17.8839  18.2595
    18.2635  18.4858  18.5414  18.5491  18.5528  18.5893  18.7332  18.7842
    19.0832  19.0910  19.1399  19.1493  19.1875  19.2531  19.3525  19.4485
    19.4548  19.4694  19.4757  19.6462  19.6707  19.7974  19.9087  19.9188
    20.1388  20.2547  20.2678  20.2917  20.3256  20.3280  20.3498  20.3510
    20.3633  20.5362  20.5821  20.6143  20.6146  20.6323  20.6375  20.6493
    20.6508  20.7451  20.7574  20.9658  21.0701  21.0716  21.0842  21.0990
    21.2053  21.4625  21.4666  21.5943  21.6646  22.0309  22.3407  22.3493
    22.5258  22.6488

          k = 0.0556 0.1667 0.2767 ( 11376 PWs)   bands (ev):

   -66.8588 -66.8072 -66.7877 -66.7710 -66.7698 -66.7615 -66.7579 -66.7556
   -66.7544 -66.7537 -66.7516 -66.7497 -66.7480 -66.7407 -66.7254 -66.6834
   -33.1442 -33.1327 -33.1317 -33.1257 -33.1196 -33.1012 -33.0184 -33.0176
   -33.0142 -33.0034 -33.0006 -32.9993 -32.9759 -32.9745 -32.9486 -32.9253
   -32.8831 -32.8761 -32.8413 -32.8384 -32.8366 -32.8352 -32.8161 -32.8092
   -32.8067 -32.7993 -32.7954 -32.7817 -32.7803 -32.7691 -32.7611 -32.7448
   -32.7413 -32.7284 -32.7198 -32.7076 -32.6917 -32.6743 -32.6732 -32.6666
   -32.6436 -32.6271 -32.6268 -32.6223 -32.6152 -32.6140 -32.5984 -32.5975
    11.9348  14.0509  14.8574  15.3085  15.4993  15.5552  15.6908  15.7104
    15.7429  15.7779  15.9095  15.9313  15.9567  16.2067  16.3046  16.8315
    16.9113  16.9459  17.1763  17.2348  17.2624  17.2652  17.3338  17.4024
    17.4262  17.4613  17.5504  17.6310  17.7370  17.7886  17.8015  18.1331
    18.2909  18.3906  18.4070  18.4290  18.4686  18.5118  18.5253  18.7176
    18.7654  18.9189  18.9403  19.0932  19.1734  19.2520  19.2537  19.2570
    19.3523  19.4319  19.4547  19.5046  19.5333  19.6840  19.7109  20.0173
    20.1400  20.1715  20.2152  20.2448  20.2771  20.3330  20.3710  20.4080
    20.5623  20.5751  20.5771  20.6465  20.6523  20.6696  20.6769  20.6819
    20.7334  20.8510  20.8596  20.8618  20.8821  20.9083  20.9678  21.0696
    21.1798  21.3919  21.4459  21.5332  21.6602  22.1674  22.1792  22.7385
    22.8563  22.9602

          k = 0.0556 0.1667 0.3874 ( 11369 PWs)   bands (ev):

   -66.8493 -66.8229 -66.7842 -66.7749 -66.7689 -66.7640 -66.7565 -66.7551
   -66.7543 -66.7532 -66.7527 -66.7505 -66.7453 -66.7417 -66.7120 -66.6908
   -33.1225 -33.1073 -33.1072 -33.1039 -33.0894 -33.0639 -33.0572 -33.0460
   -33.0399 -33.0395 -33.0207 -33.0139 -33.0123 -32.9737 -32.9578 -32.9253
   -32.9070 -32.8687 -32.8654 -32.8334 -32.8324 -32.8266 -32.8160 -32.8137
   -32.8081 -32.8045 -32.7897 -32.7808 -32.7805 -32.7543 -32.7445 -32.7327
   -32.7071 -32.7034 -32.6971 -32.6917 -32.6785 -32.6690 -32.6667 -32.6466
   -32.6466 -32.6453 -32.6445 -32.6443 -32.6318 -32.6268 -32.6080 -32.6079
    12.3240  13.4079  15.0119  15.2470  15.5858  15.5998  15.8077  15.8994
    15.9753  15.9823  16.0352  16.0549  16.1137  16.1697  16.3033  16.6212
    16.6281  16.6359  17.1429  17.1856  17.1934  17.2175  17.5026  17.5508
    17.5665  17.6171  17.6215  17.7678  17.8462  17.9812  18.0280  18.0890
    18.1865  18.2002  18.2537  18.2728  18.3911  18.3931  18.4383  18.4665
    18.4825  18.5096  18.5871  18.7255  18.8052  18.8066  19.0770  19.4603
    19.4794  19.6377  19.6533  19.6939  19.6964  19.7140  19.8878  19.9575
    19.9998  20.0405  20.1100  20.1509  20.3334  20.3902  20.4144  20.4870
    20.5201  20.5263  20.5269  20.6445  20.6513  20.6593  20.6609  20.7084
    20.7363  20.7642  20.8001  20.9229  20.9298  21.0266  21.0654  21.1622
    21.1697  21.1731  21.3681  21.5638  21.6483  21.9984  22.3446  22.6708
    23.0272  23.1642

          k = 0.0556 0.1667-0.4981 ( 11370 PWs)   bands (ev):

   -66.8373 -66.8370 -66.7800 -66.7796 -66.7667 -66.7664 -66.7551 -66.7548
   -66.7547 -66.7544 -66.7518 -66.7514 -66.7434 -66.7430 -66.7005 -66.7001
   -33.0929 -33.0929 -33.0770 -33.0767 -33.0764 -33.0760 -33.0753 -33.0752
   -33.0532 -33.0531 -33.0208 -33.0207 -33.0193 -33.0191 -32.9348 -32.9344
   -32.8986 -32.8984 -32.8460 -32.8457 -32.8249 -32.8245 -32.8217 -32.8214
   -32.8098 -32.8095 -32.7806 -32.7803 -32.7489 -32.7485 -32.7451 -32.7451
   -32.6990 -32.6990 -32.6734 -32.6730 -32.6692 -32.6688 -32.6662 -32.6662
   -32.6532 -32.6528 -32.6446 -32.6446 -32.6248 -32.6246 -32.6242 -32.6242
    12.8218  12.8223  15.1495  15.1499  15.6197  15.6200  15.9162  15.9164
    16.0536  16.0538  16.2013  16.2018  16.3041  16.3045  16.3326  16.3330
    16.3477  16.3480  17.1571  17.1577  17.1818  17.1823  17.7085  17.7087
    17.7248  17.7251  17.7570  17.7571  17.8109  17.8113  18.1389  18.1390
    18.1760  18.1762  18.2395  18.2396  18.3568  18.3570  18.3775  18.3778
    18.3900  18.3904  18.4308  18.4312  18.4966  18.4971  19.2586  19.2587
    19.7280  19.7286  19.7585  19.7587  19.8787  19.8789  19.9232  19.9234
    19.9598  19.9600  19.9862  19.9863  20.3248  20.3250  20.4555  20.4558
    20.4691  20.4693  20.5875  20.5878  20.6443  20.6447  20.6836  20.6839
    20.7873  20.7874  20.8902  20.8903  20.9981  20.9983  21.0751  21.0752
    21.2375  21.2379  21.3971  21.3972  21.8115  21.8117  22.5264  22.5266
    23.1575  23.1577

          k = 0.0556 0.2778 0.0553 ( 11369 PWs)   bands (ev):

   -66.8619 -66.8086 -66.7720 -66.7716 -66.7622 -66.7618 -66.7564 -66.7562
   -66.7557 -66.7549 -66.7548 -66.7543 -66.7505 -66.7499 -66.7243 -66.6811
   -33.1401 -33.1394 -33.1391 -33.1373 -33.1255 -33.1247 -33.0034 -33.0027
   -32.9972 -32.9938 -32.9932 -32.9821 -32.9717 -32.9690 -32.9623 -32.9622
   -32.8796 -32.8686 -32.8666 -32.8511 -32.8089 -32.8060 -32.8022 -32.8006
   -32.7961 -32.7941 -32.7912 -32.7786 -32.7760 -32.7757 -32.7733 -32.7542
   -32.7465 -32.7346 -32.7342 -32.7066 -32.7029 -32.7023 -32.6972 -32.6408
   -32.6239 -32.6230 -32.6216 -32.6200 -32.6111 -32.6087 -32.6078 -32.6058
    11.8047  13.9736  15.4082  15.4269  15.4501  15.4518  15.5916  15.5922
    15.6989  15.7207  15.8553  15.8672  15.8716  15.8901  16.2763  16.8943
    16.9345  16.9413  17.1229  17.1724  17.2190  17.2295  17.4022  17.4333
    17.4705  17.5017  17.6354  17.6423  17.8261  17.8478  17.9151  17.9221
    18.3762  18.4011  18.5228  18.5373  18.5629  18.5633  18.5894  18.6378
    18.7658  19.0407  19.0462  19.0636  19.2614  19.2807  19.4342  19.4416
    19.4454  19.4677  19.4733  19.4780  19.5137  19.5921  19.7031  20.1372
    20.1439  20.1707  20.2409  20.2691  20.3646  20.3782  20.4301  20.4535
    20.4606  20.5930  20.5939  20.6139  20.6451  20.6469  20.6596  20.6867
    20.6918  20.6952  20.9012  20.9284  21.0537  21.1241  21.1428  21.3665
    21.4164  21.4517  21.5248  21.5335  21.6470  21.6528  21.9939  22.0394
    22.1612  22.1868

          k = 0.0556 0.2778 0.1660 ( 11378 PWs)   bands (ev):

   -66.8588 -66.8068 -66.7880 -66.7709 -66.7698 -66.7612 -66.7582 -66.7555
   -66.7542 -66.7539 -66.7516 -66.7497 -66.7480 -66.7410 -66.7251 -66.6834
   -33.1440 -33.1328 -33.1314 -33.1266 -33.1186 -33.1010 -33.0178 -33.0169
   -33.0142 -33.0027 -33.0009 -32.9992 -32.9764 -32.9738 -32.9491 -32.9244
   -32.8830 -32.8762 -32.8413 -32.8386 -32.8383 -32.8357 -32.8178 -32.8071
   -32.8066 -32.8020 -32.7933 -32.7842 -32.7817 -32.7674 -32.7612 -32.7443
   -32.7416 -32.7279 -32.7194 -32.7075 -32.6914 -32.6745 -32.6731 -32.6667
   -32.6434 -32.6273 -32.6263 -32.6214 -32.6152 -32.6146 -32.5982 -32.5979
    11.9368  14.0667  14.8421  15.3077  15.5008  15.5548  15.6894  15.7139
    15.7422  15.7819  15.9180  15.9258  15.9580  16.1911  16.3240  16.8373
    16.9182  16.9482  17.1846  17.2612  17.2715  17.2911  17.3292  17.3743
    17.4267  17.4336  17.5506  17.6317  17.7235  17.7878  17.7883  18.1295
    18.2938  18.3800  18.4080  18.4312  18.4630  18.5003  18.5241  18.7170
    18.7707  18.9139  18.9573  19.1121  19.1524  19.2305  19.2508  19.2594
    19.3437  19.4411  19.4667  19.5156  19.5480  19.6732  19.6913  20.0154
    20.1537  20.1936  20.2224  20.2688  20.2767  20.3110  20.3472  20.3976
    20.5620  20.5738  20.5752  20.6420  20.6471  20.6667  20.6679  20.6772
    20.7336  20.8393  20.8585  20.8772  20.8904  20.9126  20.9624  21.0444
    21.1893  21.3931  21.4467  21.5346  21.6605  22.1697  22.1874  22.7530
    22.8056  22.9524

          k = 0.0556 0.2778 0.2767 ( 11365 PWs)   bands (ev):

   -66.8526 -66.8037 -66.8034 -66.7777 -66.7695 -66.7604 -66.7600 -66.7551
   -66.7537 -66.7534 -66.7530 -66.7500 -66.7420 -66.7270 -66.7266 -66.6880
   -33.1379 -33.1179 -33.1168 -33.1076 -33.1067 -33.0674 -33.0340 -33.0337
   -33.0303 -33.0301 -33.0205 -33.0174 -32.9952 -32.9647 -32.9244 -32.8841
   -32.8818 -32.8809 -32.8702 -32.8698 -32.8365 -32.8256 -32.8219 -32.8162
   -32.8139 -32.8025 -32.8008 -32.7939 -32.7918 -32.7874 -32.7477 -32.7207
   -32.7117 -32.7113 -32.7053 -32.7021 -32.6989 -32.6750 -32.6683 -32.6478
   -32.6466 -32.6348 -32.6341 -32.6265 -32.6258 -32.6257 -32.5953 -32.5945
    12.1965  14.2275  14.2405  15.1474  15.6230  15.7521  15.7543  15.8740
    15.8773  15.9031  16.0159  16.0582  16.0588  16.3500  16.3647  16.7722
    16.8315  17.0226  17.0250  17.2394  17.3115  17.3255  17.3501  17.3702
    17.3938  17.4536  17.4802  17.6520  17.6772  17.7762  17.8200  18.1878
    18.1880  18.2881  18.3067  18.3090  18.3273  18.3300  18.3853  18.4910
    18.7359  18.7529  18.7979  18.8169  18.9584  19.0157  19.0212  19.0938
    19.5226  19.5243  19.5843  19.6235  19.6654  19.6796  19.8840  19.9725
    19.9801  20.1374  20.2214  20.2415  20.2484  20.2672  20.2895  20.3405
    20.3790  20.5310  20.5327  20.5409  20.6440  20.6539  20.6867  20.7378
    20.7503  20.7557  20.8029  20.8131  20.8294  20.9334  20.9416  21.1106
    21.1141  21.1523  21.4984  21.6890  21.7082  22.4006  22.8090  22.8161
    23.4119  23.4231

          k = 0.0556 0.2778 0.3874 ( 11373 PWs)   bands (ev):

   -66.8435 -66.8185 -66.7985 -66.7853 -66.7675 -66.7628 -66.7586 -66.7550
   -66.7545 -66.7537 -66.7525 -66.7507 -66.7368 -66.7292 -66.7144 -66.6947
   -33.1223 -33.0965 -33.0962 -33.0902 -33.0824 -33.0683 -33.0499 -33.0443
   -33.0430 -33.0422 -33.0394 -33.0269 -33.0228 -32.9474 -32.9314 -32.8993
   -32.8965 -32.8730 -32.8611 -32.8365 -32.8352 -32.8349 -32.8339 -32.8298
   -32.8282 -32.8208 -32.8066 -32.7917 -32.7905 -32.7654 -32.7431 -32.7359
   -32.7176 -32.6976 -32.6930 -32.6845 -32.6831 -32.6784 -32.6586 -32.6469
   -32.6458 -32.6441 -32.6409 -32.6336 -32.6250 -32.6248 -32.5982 -32.5979
    12.5745  13.6174  14.4700  14.9521  15.7425  15.7968  15.9909  16.0247
    16.0669  16.1210  16.1247  16.1451  16.2434  16.3288  16.3637  16.6359
    16.6387  16.7326  17.2139  17.2265  17.2576  17.2689  17.2995  17.4472
    17.4661  17.5037  17.5860  17.5906  17.8426  17.9203  17.9381  17.9555
    18.0672  18.1574  18.1737  18.2300  18.2452  18.2661  18.3483  18.3743
    18.3874  18.4544  18.4692  18.4831  18.6032  18.6753  19.2933  19.3124
    19.6604  19.6765  19.7421  19.7692  19.7717  19.7768  19.7814  19.8846
    19.9889  20.0293  20.0987  20.1375  20.1590  20.2843  20.3101  20.3376
    20.4326  20.4508  20.4667  20.4720  20.5773  20.6510  20.6549  20.6732
    20.6937  20.7609  20.7703  20.7940  20.7989  20.8739  20.8897  20.9582
    21.2845  21.3419  21.4869  21.6411  21.9588  22.5380  22.6858  23.2343
    23.4892  24.1166

          k = 0.0556 0.2778-0.4981 ( 11378 PWs)   bands (ev):

   -66.8322 -66.8318 -66.7925 -66.7922 -66.7654 -66.7651 -66.7570 -66.7566
   -66.7542 -66.7538 -66.7518 -66.7514 -66.7327 -66.7324 -66.7038 -66.7034
   -33.0987 -33.0986 -33.0711 -33.0709 -33.0708 -33.0707 -33.0706 -33.0705
   -33.0532 -33.0531 -33.0438 -33.0437 -32.9807 -32.9806 -32.9256 -32.9253
   -32.8660 -32.8659 -32.8553 -32.8551 -32.8498 -32.8494 -32.8262 -32.8260
   -32.8195 -32.8193 -32.7917 -32.7914 -32.7882 -32.7882 -32.7302 -32.7302
   -32.7260 -32.7256 -32.6669 -32.6665 -32.6632 -32.6629 -32.6609 -32.6605
   -32.6605 -32.6604 -32.6448 -32.6447 -32.6083 -32.6083 -32.6082 -32.6082
    13.0555  13.0559  14.7192  14.7196  15.8039  15.8042  16.0895  16.0898
    16.2175  16.2177  16.2766  16.2770  16.3388  16.3392  16.4018  16.4022
    16.4704  16.4708  17.2228  17.2233  17.2495  17.2499  17.5244  17.5247
    17.5412  17.5416  17.5576  17.5579  17.7516  17.7517  18.1296  18.1299
    18.1448  18.1450  18.1569  18.1570  18.1921  18.1923  18.1957  18.1960
    18.3526  18.3528  18.3592  18.3594  18.4168  18.4172  19.5092  19.5093
    19.6391  19.6392  19.6944  19.6947  19.8619  19.8624  19.9483  19.9484
    19.9653  19.9654  19.9961  19.9962  20.1522  20.1525  20.3893  20.3895
    20.4027  20.4029  20.5311  20.5314  20.5761  20.5762  20.6648  20.6652
    20.6888  20.6891  20.7141  20.7144  20.8054  20.8056  20.9312  20.9313
    21.4124  21.4126  21.5232  21.5233  22.2475  22.2477  22.9781  22.9783
    24.1814  24.1818

          k = 0.0556 0.3889 0.0553 ( 11374 PWs)   bands (ev):

   -66.8521 -66.8249 -66.7699 -66.7695 -66.7648 -66.7643 -66.7556 -66.7554
   -66.7549 -66.7547 -66.7543 -66.7536 -66.7519 -66.7511 -66.7105 -66.6886
   -33.1137 -33.1124 -33.1123 -33.1114 -33.0924 -33.0917 -33.0436 -33.0413
   -33.0366 -33.0361 -33.0086 -33.0081 -33.0019 -32.9869 -32.9635 -32.9498
   -32.9115 -32.8979 -32.8520 -32.8401 -32.8162 -32.8100 -32.8061 -32.8029
   -32.7981 -32.7952 -32.7772 -32.7762 -32.7744 -32.7732 -32.7574 -32.7121
   -32.7078 -32.7006 -32.7000 -32.6768 -32.6742 -32.6721 -32.6713 -32.6680
   -32.6445 -32.6440 -32.6439 -32.6437 -32.6285 -32.6238 -32.6230 -32.6218
    12.2021  13.3120  15.4857  15.4931  15.4979  15.5001  15.7075  15.7106
    15.8791  15.8919  15.9692  15.9860  16.0054  16.0553  16.2656  16.5962
    16.6212  16.6291  17.1192  17.1364  17.1788  17.1875  17.5722  17.6024
    17.6661  17.6963  17.7542  17.7625  17.9537  17.9544  18.1209  18.1377
    18.1509  18.1720  18.2289  18.2553  18.5168  18.5173  18.5326  18.5591
    18.5609  18.5874  18.6912  18.7082  18.8900  18.9967  19.0004  19.2335
    19.3518  19.6674  19.6790  19.6948  19.7078  19.9106  19.9278  20.0125
    20.0299  20.0356  20.1109  20.1347  20.4166  20.4255  20.5131  20.5378
    20.5403  20.6049  20.6213  20.6377  20.6435  20.6553  20.7326  20.7443
    20.7552  20.7587  20.8818  20.9746  20.9768  21.1568  21.1695  21.2433
    21.4176  21.4219  21.4386  21.4698  21.5263  21.5394  22.0975  22.1384
    22.2212  22.2528

          k = 0.0556 0.3889 0.1660 ( 11361 PWs)   bands (ev):

   -66.8492 -66.8227 -66.7845 -66.7751 -66.7688 -66.7638 -66.7567 -66.7549
   -66.7541 -66.7532 -66.7529 -66.7507 -66.7454 -66.7419 -66.7116 -66.6907
   -33.1222 -33.1081 -33.1060 -33.1046 -33.0883 -33.0635 -33.0564 -33.0463
   -33.0403 -33.0383 -33.0199 -33.0127 -33.0117 -32.9728 -32.9584 -32.9265
   -32.9074 -32.8702 -32.8648 -32.8330 -32.8324 -32.8244 -32.8161 -32.8160
   -32.8074 -32.8063 -32.7905 -32.7834 -32.7826 -32.7545 -32.7447 -32.7314
   -32.7065 -32.7034 -32.6966 -32.6914 -32.6785 -32.6684 -32.6664 -32.6479
   -32.6457 -32.6446 -32.6445 -32.6436 -32.6318 -32.6271 -32.6086 -32.6076
    12.3289  13.4200  15.0011  15.2440  15.5883  15.6008  15.8073  15.8973
    15.9770  15.9881  16.0416  16.0672  16.1085  16.1603  16.3210  16.6276
    16.6301  16.6452  17.1550  17.1978  17.2155  17.2391  17.4978  17.5252
    17.5677  17.5974  17.6171  17.7621  17.8482  17.9827  18.0098  18.0715
    18.1829  18.1906  18.2509  18.2575  18.3943  18.3955  18.4420  18.4737
    18.4773  18.5059  18.5996  18.7214  18.7845  18.7846  19.0689  19.4509
    19.4885  19.6447  19.6455  19.7100  19.7141  19.7227  19.8867  19.9729
    19.9823  20.0609  20.1332  20.1555  20.3279  20.3721  20.3944  20.4800
    20.5130  20.5181  20.5309  20.6385  20.6437  20.6489  20.6538  20.7162
    20.7266  20.7644  20.7877  20.9242  20.9340  21.0056  21.0636  21.1643
    21.1754  21.1766  21.3685  21.5649  21.6519  22.0057  22.3501  22.6830
    22.9859  23.1449

          k = 0.0556 0.3889 0.2767 ( 11370 PWs)   bands (ev):

   -66.8434 -66.8183 -66.7987 -66.7854 -66.7675 -66.7626 -66.7588 -66.7550
   -66.7545 -66.7535 -66.7527 -66.7507 -66.7368 -66.7294 -66.7141 -66.6947
   -33.1220 -33.0970 -33.0955 -33.0910 -33.0814 -33.0678 -33.0501 -33.0436
   -33.0432 -33.0421 -33.0393 -33.0267 -33.0224 -32.9475 -32.9307 -32.8993
   -32.8971 -32.8724 -32.8612 -32.8364 -32.8357 -32.8352 -32.8333 -32.8296
   -32.8292 -32.8231 -32.8050 -32.7935 -32.7916 -32.7644 -32.7432 -32.7359
   -32.7178 -32.6971 -32.6927 -32.6843 -32.6827 -32.6784 -32.6586 -32.6463
   -32.6462 -32.6435 -32.6408 -32.6339 -32.6257 -32.6243 -32.5982 -32.5982
    12.5773  13.6272  14.4606  14.9500  15.7435  15.7962  15.9889  16.0290
    16.0655  16.1214  16.1299  16.1502  16.2423  16.3204  16.3765  16.6410
    16.6437  16.7332  17.2231  17.2235  17.2663  17.2888  17.3180  17.4453
    17.4467  17.4856  17.5825  17.5912  17.8298  17.9200  17.9266  17.9566
    18.0674  18.1539  18.1741  18.2235  18.2462  18.2650  18.3580  18.3701
    18.4001  18.4506  18.4522  18.4664  18.6011  18.6788  19.2901  19.3073
    19.6677  19.6815  19.7351  19.7716  19.7781  19.7811  19.7896  19.8722
    19.9865  20.0381  20.1161  20.1571  20.1639  20.2889  20.2940  20.3195
    20.4283  20.4455  20.4618  20.4662  20.5682  20.6491  20.6626  20.6707
    20.6899  20.7461  20.7703  20.7878  20.8015  20.8747  20.8916  20.9631
    21.2824  21.3446  21.4867  21.6422  21.9607  22.5438  22.6886  23.2429
    23.4839  24.0670

          k = 0.0556 0.3889 0.3874 ( 11373 PWs)   bands (ev):

   -66.8351 -66.8123 -66.8120 -66.7952 -66.7657 -66.7611 -66.7609 -66.7570
   -66.7539 -66.7529 -66.7527 -66.7512 -66.7294 -66.7182 -66.7179 -66.7007
   -33.1127 -33.0821 -33.0814 -33.0734 -33.0727 -33.0710 -33.0708 -33.0559
   -33.0555 -33.0530 -33.0520 -33.0368 -32.9828 -32.9318 -32.8879 -32.8875
   -32.8848 -32.8842 -32.8704 -32.8652 -32.8557 -32.8417 -32.8403 -32.8393
   -32.8251 -32.8058 -32.8045 -32.7991 -32.7989 -32.7981 -32.7883 -32.7289
   -32.7193 -32.6935 -32.6931 -32.6756 -32.6693 -32.6662 -32.6545 -32.6517
   -32.6504 -32.6500 -32.6446 -32.6444 -32.6086 -32.6081 -32.5947 -32.5946
    12.9366  13.9089  13.9155  14.6134  15.9166  16.0590  16.0613  16.2069
    16.2274  16.2310  16.2425  16.2590  16.3663  16.3729  16.4416  16.5549
    16.6129  16.9473  16.9494  17.2637  17.2799  17.3444  17.3566  17.3678
    17.3717  17.3798  17.4628  17.5819  17.6695  17.7772  17.8876  17.9690
    17.9695  18.0555  18.1195  18.1318  18.1420  18.1543  18.1776  18.1869
    18.3108  18.3119  18.3211  18.3965  18.4354  18.9575  18.9603  19.5285
    19.6283  19.7019  19.7627  19.7692  19.8814  19.8822  19.9048  19.9137
    20.0314  20.0355  20.0639  20.1473  20.1858  20.1950  20.1980  20.2035
    20.2172  20.3859  20.3898  20.4068  20.4927  20.5834  20.5909  20.6154
    20.6669  20.6975  20.7297  20.7314  20.7678  20.8214  20.8247  20.8474
    21.4674  21.4692  21.5464  21.6522  22.3338  23.0814  23.1159  23.1196
    23.8466  23.8522

          k = 0.0556 0.3889-0.4981 ( 11386 PWs)   bands (ev):

   -66.8247 -66.8244 -66.8044 -66.8041 -66.7637 -66.7633 -66.7592 -66.7589
   -66.7535 -66.7531 -66.7521 -66.7518 -66.7233 -66.7229 -66.7087 -66.7083
   -33.0953 -33.0952 -33.0667 -33.0665 -33.0665 -33.0664 -33.0660 -33.0658
   -33.0639 -33.0637 -33.0546 -33.0545 -32.9348 -32.9347 -32.9118 -32.9114
   -32.8731 -32.8728 -32.8592 -32.8591 -32.8430 -32.8428 -32.8361 -32.8361
   -32.8318 -32.8318 -32.8173 -32.8172 -32.8033 -32.8031 -32.7631 -32.7631
   -32.7051 -32.7047 -32.6722 -32.6718 -32.6590 -32.6587 -32.6585 -32.6582
   -32.6566 -32.6565 -32.6469 -32.6468 -32.5982 -32.5982 -32.5979 -32.5979
    13.3888  13.3893  14.2562  14.2566  16.0351  16.0354  16.2973  16.2975
    16.3123  16.3126  16.3264  16.3267  16.3401  16.3405  16.4653  16.4656
    16.6822  16.6826  17.2452  17.2457  17.2880  17.2882  17.2890  17.2892
    17.3593  17.3596  17.4183  17.4186  17.7977  17.7978  17.9203  17.9205
    18.0054  18.0056  18.0057  18.0058  18.0251  18.0253  18.0693  18.0694
    18.3280  18.3283  18.3497  18.3501  18.6231  18.6233  19.2802  19.2803
    19.6984  19.6987  19.7771  19.7773  19.9542  19.9545  19.9974  19.9978
    20.0503  20.0504  20.0541  20.0542  20.0579  20.0580  20.2933  20.2935
    20.3011  20.3013  20.3270  20.3272  20.4673  20.4677  20.5190  20.5194
    20.6918  20.6922  20.7432  20.7435  20.7550  20.7553  20.8353  20.8354
    21.5393  21.5394  21.5937  21.5937  22.7274  22.7277  23.4803  23.4805
    23.7092  23.7095

          k = 0.0556-0.5000 0.0553 ( 11372 PWs)   bands (ev):

   -66.8396 -66.8396 -66.7676 -66.7674 -66.7669 -66.7668 -66.7553 -66.7551
   -66.7547 -66.7545 -66.7535 -66.7534 -66.7524 -66.7524 -66.6985 -66.6985
   -33.0809 -33.0807 -33.0806 -33.0805 -33.0770 -33.0769 -33.0763 -33.0762
   -33.0529 -33.0528 -33.0521 -33.0519 -32.9968 -32.9966 -32.9398 -32.9397
   -32.9262 -32.9260 -32.8343 -32.8341 -32.8256 -32.8254 -32.8024 -32.8023
   -32.7994 -32.7992 -32.7763 -32.7763 -32.7738 -32.7736 -32.7135 -32.7134
   -32.6749 -32.6749 -32.6733 -32.6732 -32.6704 -32.6702 -32.6695 -32.6695
   -32.6506 -32.6506 -32.6451 -32.6449 -32.6446 -32.6445 -32.6427 -32.6426
    12.7112  12.7115  15.5139  15.5141  15.5233  15.5234  15.8159  15.8161
    15.8231  15.8232  16.1566  16.1567  16.2907  16.2909  16.2988  16.2991
    16.3003  16.3008  17.1417  17.1419  17.1509  17.1511  17.7888  17.7890
    17.8170  17.8171  17.8887  17.8888  17.9115  17.9116  18.1067  18.1068
    18.1136  18.1137  18.2635  18.2637  18.2766  18.2767  18.5280  18.5282
    18.5436  18.5437  18.5574  18.5575  18.5657  18.5658  19.0466  19.0470
    19.6610  19.6611  19.8514  19.8517  19.8694  19.8695  19.9262  19.9265
    19.9452  19.9453  20.2555  20.2556  20.3806  20.3807  20.4763  20.4764
    20.4815  20.4815  20.6181  20.6182  20.6294  20.6296  20.6440  20.6441
    21.0120  21.0121  21.0146  21.0148  21.0790  21.0791  21.2254  21.2254
    21.2263  21.2265  21.4662  21.4663  21.4908  21.4910  22.1872  22.1874
    22.2236  22.2238

          k = 0.0556-0.5000 0.1660 ( 11376 PWs)   bands (ev):

   -66.8370 -66.8369 -66.7800 -66.7800 -66.7664 -66.7663 -66.7552 -66.7551
   -66.7544 -66.7543 -66.7519 -66.7518 -66.7434 -66.7434 -66.7002 -66.7001
   -33.0924 -33.0924 -33.0775 -33.0773 -33.0769 -33.0768 -33.0738 -33.0736
   -33.0519 -33.0517 -33.0201 -33.0200 -33.0185 -33.0184 -32.9352 -32.9349
   -32.9001 -32.9000 -32.8449 -32.8448 -32.8250 -32.8247 -32.8208 -32.8206
   -32.8123 -32.8123 -32.7830 -32.7830 -32.7491 -32.7489 -32.7456 -32.7455
   -32.6983 -32.6982 -32.6725 -32.6724 -32.6684 -32.6684 -32.6661 -32.6659
   -32.6530 -32.6529 -32.6447 -32.6445 -32.6256 -32.6256 -32.6236 -32.6235
    12.8302  12.8305  15.1433  15.1435  15.6221  15.6222  15.9172  15.9173
    16.0488  16.0490  16.2166  16.2167  16.3122  16.3125  16.3411  16.3413
    16.3446  16.3450  17.1744  17.1745  17.1984  17.1986  17.6891  17.6892
    17.7135  17.7137  17.7588  17.7589  17.8077  17.8078  18.1405  18.1406
    18.1723  18.1725  18.2434  18.2436  18.3517  18.3519  18.3695  18.3696
    18.3806  18.3807  18.4113  18.4114  18.4901  18.4902  19.2486  19.2488
    19.7425  19.7426  19.7606  19.7609  19.8973  19.8974  19.9443  19.9444
    19.9672  19.9674  19.9786  19.9787  20.3103  20.3105  20.4422  20.4423
    20.4545  20.4545  20.5872  20.5873  20.6377  20.6378  20.6752  20.6754
    20.7819  20.7820  20.8916  20.8918  20.9890  20.9891  21.0784  21.0786
    21.2371  21.2372  21.3993  21.3993  21.8172  21.8174  22.5354  22.5356
    23.1266  23.1267

          k = 0.0556-0.5000 0.2767 ( 11378 PWs)   bands (ev):

   -66.8319 -66.8318 -66.7925 -66.7925 -66.7651 -66.7651 -66.7570 -66.7569
   -66.7539 -66.7539 -66.7517 -66.7517 -66.7327 -66.7327 -66.7035 -66.7034
   -33.0983 -33.0982 -33.0714 -33.0712 -33.0712 -33.0710 -33.0700 -33.0698
   -33.0524 -33.0522 -33.0438 -33.0437 -32.9801 -32.9801 -32.9256 -32.9254
   -32.8671 -32.8670 -32.8543 -32.8541 -32.8499 -32.8496 -32.8280 -32.8279
   -32.8187 -32.8186 -32.7932 -32.7932 -32.7886 -32.7886 -32.7296 -32.7295
   -32.7260 -32.7258 -32.6662 -32.6662 -32.6626 -32.6625 -32.6607 -32.6606
   -32.6605 -32.6603 -32.6449 -32.6447 -32.6088 -32.6088 -32.6077 -32.6076
    13.0617  13.0620  14.7139  14.7141  15.8048  15.8049  16.0891  16.0893
    16.2136  16.2138  16.2861  16.2864  16.3447  16.3449  16.4084  16.4086
    16.4697  16.4699  17.2379  17.2380  17.2629  17.2630  17.5177  17.5179
    17.5386  17.5387  17.5450  17.5452  17.7528  17.7529  18.1126  18.1127
    18.1483  18.1485  18.1545  18.1547  18.1803  18.1804  18.1933  18.1934
    18.3545  18.3546  18.3568  18.3570  18.4130  18.4132  19.5038  19.5040
    19.6350  19.6351  19.6968  19.6971  19.8708  19.8709  19.9619  19.9620
    19.9804  19.9805  20.0021  20.0023  20.1427  20.1429  20.3785  20.3785
    20.3904  20.3905  20.5315  20.5315  20.5740  20.5741  20.6621  20.6623
    20.6813  20.6813  20.7098  20.7099  20.8065  20.8067  20.9335  20.9337
    21.4114  21.4114  21.5250  21.5251  22.2514  22.2516  22.9840  22.9842
    24.1781  24.1784

          k = 0.0556-0.5000 0.3874 ( 11388 PWs)   bands (ev):

   -66.8245 -66.8245 -66.8044 -66.8043 -66.7634 -66.7634 -66.7591 -66.7591
   -66.7533 -66.7532 -66.7520 -66.7519 -66.7232 -66.7232 -66.7085 -66.7084
   -33.0952 -33.0951 -33.0666 -33.0665 -33.0665 -33.0663 -33.0660 -33.0658
   -33.0642 -33.0641 -33.0541 -33.0539 -32.9346 -32.9346 -32.9117 -32.9115
   -32.8731 -32.8728 -32.8584 -32.8583 -32.8438 -32.8437 -32.8364 -32.8364
   -32.8323 -32.8322 -32.8168 -32.8167 -32.8040 -32.8040 -32.7628 -32.7627
   -32.7051 -32.7049 -32.6721 -32.6719 -32.6588 -32.6587 -32.6581 -32.6580
   -32.6568 -32.6566 -32.6470 -32.6469 -32.5983 -32.5982 -32.5979 -32.5979
    13.3922  13.3925  14.2532  14.2534  16.0347  16.0349  16.2959  16.2960
    16.3098  16.3101  16.3301  16.3305  16.3428  16.3431  16.4689  16.4691
    16.6831  16.6832  17.2440  17.2441  17.2946  17.2947  17.2978  17.2979
    17.3564  17.3565  17.4118  17.4119  17.7981  17.7983  17.9109  17.9111
    17.9983  17.9985  18.0088  18.0090  18.0252  18.0253  18.0698  18.0700
    18.3276  18.3279  18.3484  18.3485  18.6245  18.6245  19.2786  19.2786
    19.7005  19.7008  19.7749  19.7751  19.9501  19.9503  20.0006  20.0007
    20.0526  20.0527  20.0610  20.0611  20.0655  20.0656  20.2873  20.2873
    20.2942  20.2943  20.3285  20.3287  20.4685  20.4686  20.5135  20.5136
    20.6910  20.6912  20.7415  20.7417  20.7557  20.7558  20.8365  20.8367
    21.5386  21.5386  21.5946  21.5946  22.7295  22.7297  23.4832  23.4834
    23.7074  23.7077

          k = 0.0556-0.5000-0.4981 ( 11404 PWs)   bands (ev):

   -66.8155 -66.8153 -66.8151 -66.8149 -66.7616 -66.7614 -66.7612 -66.7610
   -66.7529 -66.7527 -66.7525 -66.7523 -66.7154 -66.7152 -66.7150 -66.7148
   -33.0842 -33.0842 -33.0842 -33.0841 -33.0647 -33.0644 -33.0644 -33.0642
   -33.0582 -33.0580 -33.0580 -33.0578 -32.8944 -32.8939 -32.8938 -32.8937
   -32.8861 -32.8861 -32.8857 -32.8856 -32.8549 -32.8549 -32.8548 -32.8548
   -32.8122 -32.8121 -32.8121 -32.8121 -32.7976 -32.7975 -32.7972 -32.7971
   -32.6874 -32.6870 -32.6868 -32.6867 -32.6560 -32.6560 -32.6559 -32.6557
   -32.6519 -32.6518 -32.6517 -32.6515 -32.5947 -32.5946 -32.5946 -32.5946
    13.7995  13.7998  13.8000  13.8002  16.2408  16.2409  16.2410  16.2413
    16.3433  16.3438  16.3438  16.3439  16.4484  16.4485  16.4486  16.4489
    16.9503  16.9505  16.9508  16.9509  17.2858  17.2859  17.2860  17.2861
    17.3337  17.3338  17.3338  17.3340  17.8906  17.8909  17.8909  17.8910
    17.8925  17.8926  17.8926  17.8929  17.9814  17.9814  17.9815  17.9817
    18.3178  18.3179  18.3180  18.3185  18.9359  18.9360  18.9363  18.9365
    19.7893  19.7894  19.7895  19.7899  20.0458  20.0460  20.0462  20.0463
    20.0793  20.0795  20.0796  20.0796  20.1764  20.1765  20.1765  20.1766
    20.1791  20.1791  20.1793  20.1793  20.4454  20.4454  20.4457  20.4460
    20.7205  20.7209  20.7211  20.7211  20.7782  20.7785  20.7787  20.7787
    21.6004  21.6005  21.6006  21.6006  23.2208  23.2211  23.2212  23.2213
    23.9906  23.9908

          k = 0.1667 0.1667 0.0553 ( 11365 PWs)   bands (ev):

   -66.8653 -66.7902 -66.7900 -66.7727 -66.7643 -66.7594 -66.7591 -66.7563
   -66.7550 -66.7547 -66.7510 -66.7503 -66.7492 -66.7402 -66.7399 -66.6785
   -33.1553 -33.1497 -33.1497 -33.1416 -33.1416 -33.1291 -33.0085 -32.9923
   -32.9844 -32.9788 -32.9786 -32.9713 -32.9675 -32.9645 -32.9394 -32.8945
   -32.8792 -32.8787 -32.8459 -32.8455 -32.8454 -32.8140 -32.8034 -32.8030
   -32.7998 -32.7943 -32.7940 -32.7834 -32.7831 -32.7810 -32.7776 -32.7717
   -32.7596 -32.7465 -32.7417 -32.7414 -32.7156 -32.7033 -32.7032 -32.6360
   -32.6238 -32.6140 -32.6140 -32.6061 -32.6061 -32.6049 -32.5961 -32.5935
    11.6693  14.7268  14.7269  15.3578  15.3822  15.5167  15.5168  15.5932
    15.5933  15.6036  15.7952  15.8089  15.8714  16.1733  16.1733  16.9570
    17.0709  17.2458  17.2950  17.2951  17.2997  17.2998  17.3119  17.3367
    17.3368  17.3654  17.4357  17.5562  17.5855  17.5954  17.8790  18.2661
    18.2664  18.4720  18.5320  18.5320  18.5624  18.6013  18.7450  18.7749
    19.0678  19.0681  19.1562  19.1562  19.2054  19.2605  19.3649  19.4495
    19.4495  19.4692  19.4694  19.6482  19.6482  19.8251  19.9070  19.9074
    20.1637  20.2656  20.2657  20.2761  20.3226  20.3226  20.3333  20.3445
    20.3782  20.5389  20.5924  20.6253  20.6255  20.6324  20.6324  20.6343
    20.6353  20.7416  20.7419  20.9632  21.0673  21.0676  21.0993  21.0993
    21.2006  21.4321  21.4660  21.5970  21.6722  21.9869  22.3406  22.3408
    22.5539  22.7094

          k = 0.1667 0.1667 0.1660 ( 11357 PWs)   bands (ev):

   -66.8620 -66.7893 -66.7890 -66.7887 -66.7641 -66.7640 -66.7636 -66.7520
   -66.7512 -66.7510 -66.7506 -66.7485 -66.7407 -66.7404 -66.7401 -66.6809
   -33.1476 -33.1476 -33.1465 -33.1238 -33.1238 -33.1229 -33.0052 -33.0049
   -33.0018 -32.9961 -32.9960 -32.9959 -32.9487 -32.9431 -32.9429 -32.9023
   -32.9019 -32.9014 -32.8514 -32.8514 -32.8499 -32.8084 -32.8058 -32.8055
   -32.7973 -32.7966 -32.7798 -32.7795 -32.7783 -32.7761 -32.7735 -32.7731
   -32.7431 -32.7431 -32.7422 -32.7346 -32.6878 -32.6878 -32.6869 -32.6574
   -32.6275 -32.6266 -32.6266 -32.6042 -32.6032 -32.6031 -32.6000 -32.5993
    11.8032  14.7876  14.8055  14.8056  15.4638  15.4640  15.4640  15.6984
    15.7005  15.7006  15.8590  15.8688  16.2063  16.2257  16.2258  16.8727
    17.1737  17.1741  17.2658  17.2694  17.2695  17.2924  17.3220  17.3220
    17.4022  17.4312  17.4313  17.4480  17.5191  17.5357  18.1100  18.1132
    18.1134  18.4603  18.4623  18.4624  18.4741  18.4777  18.8928  18.8930
    18.8958  18.9043  19.0805  19.0806  19.0989  19.2632  19.2633  19.2635
    19.4764  19.4765  19.5013  19.5380  19.5381  19.5535  20.1076  20.1080
    20.1154  20.1754  20.1754  20.1984  20.2847  20.3086  20.3254  20.3255
    20.3509  20.5850  20.5852  20.5954  20.6123  20.6142  20.6253  20.6286
    20.6899  20.7397  20.7397  20.7405  21.0701  21.0957  21.0957  21.2963
    21.2965  21.3093  21.3227  21.3301  22.0435  22.0437  22.0484  22.7666
    22.8212  22.8212

          k = 0.1667 0.1667 0.2767 ( 11381 PWs)   bands (ev):

   -66.8557 -66.8055 -66.7866 -66.7863 -66.7692 -66.7689 -66.7624 -66.7540
   -66.7502 -66.7484 -66.7480 -66.7477 -66.7410 -66.7408 -66.7262 -66.6856
   -33.1357 -33.1357 -33.1291 -33.1107 -33.0969 -33.0969 -33.0269 -33.0246
   -33.0245 -33.0166 -33.0134 -32.9900 -32.9887 -32.9385 -32.9383 -32.9260
   -32.9201 -32.8849 -32.8588 -32.8519 -32.8518 -32.8243 -32.8175 -32.8171
   -32.8106 -32.8051 -32.7833 -32.7654 -32.7650 -32.7522 -32.7495 -32.7493
   -32.7454 -32.7452 -32.7092 -32.7088 -32.6888 -32.6660 -32.6659 -32.6605
   -32.6439 -32.6439 -32.6351 -32.6202 -32.6113 -32.6060 -32.6060 -32.6004
    12.0669  14.1477  14.9449  14.9450  15.4193  15.4194  15.6682  15.8373
    15.8374  15.8786  15.9762  15.9869  16.2810  16.2810  16.3673  16.7889
    16.9472  17.0042  17.1430  17.2574  17.2796  17.2797  17.3449  17.3740
    17.4007  17.4007  17.5643  17.5759  17.5760  17.7555  17.9710  17.9712
    18.2547  18.2853  18.2854  18.3782  18.3967  18.4384  18.6409  18.6410
    18.6482  18.6483  18.8938  19.0161  19.0163  19.0527  19.0544  19.1010
    19.3812  19.4826  19.4827  19.6253  19.6253  19.8059  19.8846  20.0662
    20.0663  20.1683  20.2615  20.2663  20.2664  20.3610  20.3683  20.3703
    20.3801  20.3804  20.5700  20.5725  20.6007  20.6236  20.6362  20.6363
    20.6394  20.8413  20.9079  20.9079  20.9352  21.0159  21.0861  21.0977
    21.0977  21.3687  21.3797  21.3798  21.7803  21.7805  22.6751  23.0168
    23.0168  23.4326

          k = 0.1667 0.1667 0.3874 ( 11375 PWs)   bands (ev):

   -66.8464 -66.8207 -66.7832 -66.7829 -66.7742 -66.7739 -66.7606 -66.7562
   -66.7496 -66.7485 -66.7455 -66.7451 -66.7419 -66.7417 -66.7131 -66.6927
   -33.1155 -33.1155 -33.1038 -33.0935 -33.0626 -33.0625 -33.0567 -33.0567
   -33.0498 -33.0329 -33.0241 -33.0230 -32.9806 -32.9804 -32.9700 -32.9170
   -32.9003 -32.8952 -32.8473 -32.8471 -32.8457 -32.8418 -32.8291 -32.8288
   -32.8138 -32.8056 -32.7923 -32.7583 -32.7580 -32.7484 -32.7481 -32.7267
   -32.7191 -32.7190 -32.7107 -32.6851 -32.6781 -32.6654 -32.6654 -32.6474
   -32.6446 -32.6445 -32.6440 -32.6376 -32.6287 -32.6138 -32.6137 -32.6070
    12.4514  13.5181  15.1098  15.1098  15.3584  15.3584  15.9552  15.9938
    15.9939  16.1238  16.1256  16.1599  16.2603  16.2603  16.3733  16.6401
    16.6486  16.6671  17.1465  17.2146  17.2595  17.2817  17.4162  17.4163
    17.5302  17.5302  17.7377  17.7378  17.8447  17.8544  17.8545  18.0198
    18.1595  18.1596  18.2394  18.2395  18.3239  18.3316  18.3387  18.3708
    18.3708  18.4101  18.5606  18.5608  18.6062  18.6186  19.2329  19.3558
    19.5775  19.6532  19.7240  19.7240  19.7301  19.7302  19.9493  19.9494
    20.0015  20.0097  20.1072  20.1428  20.1429  20.3415  20.4101  20.4558
    20.5057  20.5209  20.6073  20.6199  20.6205  20.6207  20.6665  20.6840
    20.7095  20.7095  20.7753  20.8289  21.0887  21.0888  21.1104  21.1387
    21.1387  21.3410  21.3517  21.3518  21.5244  21.5245  23.2456  23.2456
    23.3654  23.5336

          k = 0.1667 0.1667-0.4981 ( 11388 PWs)   bands (ev):

   -66.8347 -66.8344 -66.7793 -66.7788 -66.7786 -66.7785 -66.7587 -66.7583
   -66.7492 -66.7488 -66.7438 -66.7433 -66.7431 -66.7431 -66.7021 -66.7017
   -33.0885 -33.0884 -33.0883 -33.0883 -33.0728 -33.0725 -33.0716 -33.0713
   -33.0265 -33.0264 -33.0231 -33.0229 -33.0227 -33.0227 -32.9458 -32.9455
   -32.8723 -32.8721 -32.8702 -32.8700 -32.8394 -32.8392 -32.8391 -32.8388
   -32.8009 -32.8006 -32.7692 -32.7691 -32.7528 -32.7524 -32.7524 -32.7521
   -32.6911 -32.6910 -32.6907 -32.6906 -32.6745 -32.6740 -32.6644 -32.6641
   -32.6516 -32.6511 -32.6268 -32.6267 -32.6267 -32.6266 -32.6197 -32.6196
    12.9421  12.9425  15.2566  15.2566  15.2570  15.2570  16.1482  16.1484
    16.1485  16.1486  16.2736  16.2741  16.2998  16.3002  16.3827  16.3830
    16.3976  16.3980  17.1737  17.1743  17.2391  17.2396  17.6723  17.6726
    17.6728  17.6730  17.6952  17.6954  17.6956  17.6956  18.1437  18.1438
    18.1439  18.1440  18.1971  18.1974  18.2508  18.2510  18.2510  18.2511
    18.3120  18.3122  18.3150  18.3154  18.3760  18.3764  19.4337  19.4339
    19.6654  19.6655  19.7969  19.7975  19.8330  19.8331  19.8332  19.8334
    19.9588  19.9588  19.9589  19.9589  20.4264  20.4266  20.4382  20.4384
    20.4638  20.4641  20.5598  20.5602  20.6140  20.6144  20.7223  20.7226
    20.7283  20.7285  20.7285  20.7287  21.2457  21.2458  21.2458  21.2459
    21.2501  21.2504  21.2877  21.2878  21.2879  21.2880  23.4440  23.4440
    23.4442  23.4442

          k = 0.1667 0.2778 0.0553 ( 11378 PWs)   bands (ev):

   -66.8588 -66.8068 -66.7876 -66.7713 -66.7695 -66.7616 -66.7582 -66.7559
   -66.7545 -66.7540 -66.7516 -66.7498 -66.7476 -66.7407 -66.7251 -66.6834
   -33.1429 -33.1327 -33.1324 -33.1264 -33.1193 -33.1001 -33.0171 -33.0148
   -33.0141 -33.0028 -33.0009 -32.9983 -32.9801 -32.9737 -32.9478 -32.9243
   -32.8831 -32.8793 -32.8420 -32.8414 -32.8367 -32.8352 -32.8157 -32.8097
   -32.8069 -32.7993 -32.7934 -32.7817 -32.7800 -32.7678 -32.7637 -32.7439
   -32.7438 -32.7278 -32.7185 -32.7095 -32.6905 -32.6735 -32.6733 -32.6662
   -32.6441 -32.6264 -32.6262 -32.6212 -32.6164 -32.6137 -32.5992 -32.5973
    11.9378  14.0676  14.8599  15.3110  15.4839  15.5543  15.6900  15.7138
    15.7420  15.7819  15.9113  15.9340  15.9414  16.2083  16.3244  16.8409
    16.9243  16.9489  17.1835  17.2617  17.2729  17.2918  17.3353  17.3963
    17.4035  17.4627  17.5469  17.6011  17.7198  17.7843  17.7851  18.1318
    18.2751  18.3960  18.4003  18.4152  18.4629  18.5163  18.5453  18.7334
    18.7456  18.9063  18.9393  19.0923  19.1526  19.2309  19.2698  19.2730
    19.3313  19.4519  19.4653  19.5188  19.5495  19.6709  19.7016  20.0390
    20.1617  20.1703  20.2134  20.2452  20.3034  20.3118  20.3496  20.3921
    20.5606  20.5806  20.5822  20.6309  20.6361  20.6610  20.6629  20.6905
    20.7301  20.8343  20.8590  20.8722  20.8772  20.9092  20.9604  21.0705
    21.1734  21.3939  21.4492  21.5058  21.6656  22.1313  22.1793  22.7342
    22.8614  22.9878

          k = 0.1667 0.2778 0.1660 ( 11385 PWs)   bands (ev):

   -66.8557 -66.8051 -66.7868 -66.7864 -66.7691 -66.7687 -66.7627 -66.7540
   -66.7505 -66.7485 -66.7479 -66.7474 -66.7412 -66.7408 -66.7258 -66.6856
   -33.1356 -33.1345 -33.1301 -33.1117 -33.0967 -33.0959 -33.0268 -33.0240
   -33.0234 -33.0144 -33.0130 -32.9911 -32.9901 -32.9380 -32.9377 -32.9259
   -32.9199 -32.8865 -32.8592 -32.8534 -32.8512 -32.8220 -32.8204 -32.8173
   -32.8115 -32.8051 -32.7814 -32.7677 -32.7652 -32.7515 -32.7490 -32.7483
   -32.7467 -32.7451 -32.7096 -32.7090 -32.6888 -32.6656 -32.6648 -32.6614
   -32.6445 -32.6437 -32.6342 -32.6196 -32.6118 -32.6068 -32.6058 -32.6004
    12.0689  14.1630  14.9303  14.9465  15.4185  15.4207  15.6703  15.8353
    15.8368  15.8828  15.9785  15.9876  16.2660  16.2819  16.3859  16.7940
    16.9488  17.0157  17.1492  17.2773  17.2809  17.2837  17.3702  17.3725
    17.3857  17.4013  17.5483  17.5490  17.5771  17.7404  17.9676  17.9679
    18.2559  18.2794  18.2927  18.3675  18.3854  18.4506  18.6309  18.6454
    18.6470  18.6638  18.8751  19.0153  19.0313  19.0365  19.0479  19.0900
    19.3883  19.4872  19.4932  19.6332  19.6406  19.7892  19.8754  20.0657
    20.0860  20.1852  20.2420  20.2698  20.2922  20.3454  20.3568  20.3579
    20.3797  20.3820  20.5739  20.5749  20.5904  20.6150  20.6268  20.6289
    20.6416  20.8579  20.9050  20.9090  20.9359  21.0020  21.0767  21.0774
    21.0983  21.3742  21.3772  21.3889  21.7819  21.7842  22.6696  22.9704
    23.0200  23.4262

          k = 0.1667 0.2778 0.2767 ( 11380 PWs)   bands (ev):

   -66.8495 -66.8021 -66.8017 -66.7841 -66.7767 -66.7675 -66.7671 -66.7568
   -66.7477 -66.7475 -66.7472 -66.7421 -66.7413 -66.7277 -66.7273 -66.6900
   -33.1292 -33.1193 -33.1182 -33.0887 -33.0879 -33.0658 -33.0393 -33.0374
   -33.0373 -33.0372 -33.0232 -32.9995 -32.9862 -32.9624 -32.9313 -32.8997
   -32.8970 -32.8964 -32.8863 -32.8856 -32.8634 -32.8393 -32.8368 -32.8353
   -32.7901 -32.7804 -32.7791 -32.7733 -32.7714 -32.7502 -32.7502 -32.7351
   -32.7249 -32.7224 -32.7125 -32.7122 -32.6905 -32.6649 -32.6539 -32.6467
   -32.6461 -32.6433 -32.6423 -32.6214 -32.6206 -32.6187 -32.6030 -32.6006
    12.3263  14.3289  14.3414  15.1020  15.2634  15.6325  15.6330  15.9962
    16.0118  16.0156  16.0852  16.1098  16.3854  16.4356  16.4505  16.7620
    16.9434  17.0003  17.0011  17.2057  17.2275  17.3303  17.3553  17.4214
    17.4366  17.4550  17.4611  17.4833  17.7280  17.7404  17.8136  18.0811
    18.0853  18.1761  18.2213  18.2314  18.2842  18.3041  18.3835  18.4524
    18.5107  18.5261  18.6575  18.6773  18.7286  18.7979  18.8032  19.2376
    19.5861  19.5882  19.6244  19.7453  19.8163  19.8316  19.9594  20.0059
    20.1533  20.1633  20.1683  20.1699  20.1770  20.2502  20.2868  20.3099
    20.3392  20.5393  20.5411  20.5434  20.5754  20.6079  20.6151  20.6190
    20.6345  20.8080  20.8226  20.9332  20.9609  21.0737  21.0766  21.0930
    21.1034  21.1902  21.3614  21.4622  21.4642  22.3281  22.3320  23.2878
    24.0125  24.0702

          k = 0.1667 0.2778 0.3874 ( 11386 PWs)   bands (ev):

   -66.8407 -66.8165 -66.7970 -66.7841 -66.7808 -66.7723 -66.7650 -66.7596
   -66.7473 -66.7469 -66.7452 -66.7422 -66.7371 -66.7297 -66.7155 -66.6966
   -33.1143 -33.1018 -33.0946 -33.0771 -33.0654 -33.0601 -33.0571 -33.0518
   -33.0428 -33.0343 -33.0311 -33.0279 -32.9937 -32.9692 -32.9406 -32.9174
   -32.9149 -32.8792 -32.8713 -32.8656 -32.8637 -32.8526 -32.8517 -32.8503
   -32.8103 -32.7885 -32.7801 -32.7638 -32.7624 -32.7539 -32.7482 -32.7373
   -32.7180 -32.7025 -32.7010 -32.6898 -32.6823 -32.6743 -32.6609 -32.6518
   -32.6427 -32.6422 -32.6347 -32.6265 -32.6249 -32.6242 -32.6055 -32.6030
    12.7006  13.7298  14.5774  15.0696  15.2895  15.5723  15.9301  16.1609
    16.1706  16.2213  16.2478  16.2846  16.4163  16.4261  16.4545  16.6565
    16.6845  16.7350  17.1879  17.2020  17.2788  17.2869  17.3270  17.3658
    17.4667  17.5604  17.5770  17.6273  17.7005  17.8385  17.8888  17.8947
    18.0064  18.0586  18.1247  18.1532  18.1794  18.2155  18.2399  18.2559
    18.2926  18.2932  18.3326  18.3350  18.4173  18.5028  19.0213  19.4510
    19.6458  19.7383  19.8074  19.8106  19.8130  19.8545  19.8746  19.9273
    20.0565  20.0689  20.0849  20.1643  20.1686  20.2735  20.3559  20.4058
    20.4565  20.4727  20.4822  20.5656  20.6082  20.6116  20.6377  20.6645
    20.6724  20.6823  20.6893  20.7887  20.8901  20.9909  21.1043  21.1650
    21.2176  21.2377  21.3666  21.3959  21.4564  22.0033  22.9399  23.6009
    24.0887  24.2098

          k = 0.1667 0.2778-0.4981 ( 11386 PWs)   bands (ev):

   -66.8297 -66.8294 -66.7911 -66.7908 -66.7770 -66.7766 -66.7626 -66.7623
   -66.7472 -66.7468 -66.7436 -66.7432 -66.7332 -66.7328 -66.7052 -66.7049
   -33.0924 -33.0923 -33.0800 -33.0799 -33.0650 -33.0648 -33.0647 -33.0645
   -33.0415 -33.0414 -33.0274 -33.0273 -32.9853 -32.9852 -32.9458 -32.9455
   -32.8902 -32.8901 -32.8677 -32.8674 -32.8607 -32.8605 -32.8410 -32.8409
   -32.8065 -32.8064 -32.7858 -32.7856 -32.7583 -32.7581 -32.7267 -32.7263
   -32.7178 -32.7178 -32.6793 -32.6792 -32.6705 -32.6701 -32.6613 -32.6610
   -32.6565 -32.6561 -32.6322 -32.6322 -32.6133 -32.6132 -32.6109 -32.6108
    13.1759  13.1763  14.8331  14.8335  15.4585  15.4589  16.2864  16.2868
    16.3140  16.3142  16.3227  16.3229  16.3624  16.3628  16.4943  16.4947
    16.4976  16.4980  17.2301  17.2307  17.3025  17.3030  17.4814  17.4819
    17.4958  17.4963  17.5935  17.5938  17.7112  17.7113  17.9335  17.9338
    18.0714  18.0716  18.1039  18.1039  18.1088  18.1092  18.1553  18.1555
    18.2141  18.2143  18.2251  18.2252  18.2855  18.2858  19.3083  19.3084
    19.6814  19.6816  19.8253  19.8255  19.9119  19.9124  19.9569  19.9570
    20.0028  20.0029  20.0085  20.0086  20.3793  20.3795  20.3811  20.3813
    20.4170  20.4173  20.5099  20.5103  20.6013  20.6016  20.6092  20.6095
    20.6969  20.6972  20.7519  20.7521  20.8902  20.8904  21.0593  21.0593
    21.3192  21.3194  21.3741  21.3742  21.6859  21.6862  23.5705  23.5709
    23.8933  23.8935

          k = 0.1667 0.3889 0.0553 ( 11364 PWs)   bands (ev):

   -66.8491 -66.8226 -66.7841 -66.7747 -66.7692 -66.7642 -66.7567 -66.7553
   -66.7544 -66.7533 -66.7530 -66.7507 -66.7450 -66.7416 -66.7116 -66.6906
   -33.1211 -33.1081 -33.1066 -33.1044 -33.0890 -33.0626 -33.0556 -33.0463
   -33.0403 -33.0389 -33.0181 -33.0131 -33.0107 -32.9725 -32.9619 -32.9249
   -32.9106 -32.8685 -32.8648 -32.8359 -32.8331 -32.8245 -32.8193 -32.8138
   -32.8064 -32.8045 -32.7899 -32.7809 -32.7805 -32.7571 -32.7472 -32.7318
   -32.7061 -32.7029 -32.6963 -32.6906 -32.6802 -32.6690 -32.6657 -32.6469
   -32.6462 -32.6444 -32.6437 -32.6434 -32.6331 -32.6264 -32.6085 -32.6079
    12.3299  13.4209  15.0159  15.2508  15.5755  15.5973  15.8056  15.8991
    15.9657  15.9884  16.0419  16.0632  16.1140  16.1712  16.3207  16.6292
    16.6323  16.6479  17.1547  17.1981  17.2160  17.2397  17.5070  17.5383
    17.5526  17.6149  17.6243  17.7660  17.8188  17.9588  18.0086  18.0700
    18.1904  18.2008  18.2656  18.2730  18.3745  18.3764  18.4153  18.4621
    18.4926  18.5268  18.5831  18.7393  18.7843  18.7846  19.0631  19.4467
    19.4956  19.6353  19.6547  19.7045  19.7062  19.7371  19.9071  19.9775
    19.9891  20.0422  20.1141  20.1779  20.3224  20.3751  20.3989  20.4784
    20.5184  20.5239  20.5256  20.6287  20.6351  20.6444  20.6498  20.7161
    20.7196  20.7547  20.8046  20.9150  20.9154  21.0285  21.0645  21.1610
    21.1638  21.1755  21.3707  21.5681  21.6311  21.9962  22.3178  22.6604
    23.0371  23.1864

          k = 0.1667 0.3889 0.1660 ( 11388 PWs)   bands (ev):

   -66.8463 -66.8205 -66.7834 -66.7829 -66.7742 -66.7738 -66.7609 -66.7563
   -66.7498 -66.7487 -66.7454 -66.7450 -66.7421 -66.7417 -66.7128 -66.6926
   -33.1152 -33.1141 -33.1046 -33.0941 -33.0621 -33.0615 -33.0560 -33.0554
   -33.0501 -33.0335 -33.0223 -33.0221 -32.9797 -32.9796 -32.9723 -32.9190
   -32.9007 -32.8946 -32.8498 -32.8470 -32.8438 -32.8427 -32.8319 -32.8290
   -32.8144 -32.8056 -32.7909 -32.7605 -32.7582 -32.7503 -32.7484 -32.7266
   -32.7188 -32.7180 -32.7100 -32.6848 -32.6789 -32.6657 -32.6649 -32.6465
   -32.6444 -32.6437 -32.6431 -32.6384 -32.6293 -32.6142 -32.6133 -32.6073
    12.4562  13.5300  15.0995  15.1128  15.3558  15.3613  15.9600  15.9920
    15.9925  16.1304  16.1370  16.1557  16.2514  16.2609  16.3903  16.6479
    16.6488  16.6775  17.1580  17.2367  17.2717  17.3021  17.4144  17.4197
    17.5041  17.5313  17.7169  17.7415  17.8257  17.8402  17.8529  18.0024
    18.1604  18.1620  18.2344  18.2479  18.3097  18.3284  18.3376  18.3548
    18.3716  18.4191  18.5581  18.5750  18.5844  18.5997  19.2252  19.3454
    19.5895  19.6438  19.7343  19.7359  19.7366  19.7468  19.9503  19.9664
    20.0035  20.0182  20.0907  20.1494  20.1673  20.3270  20.3919  20.4480
    20.5032  20.5157  20.5975  20.6107  20.6122  20.6201  20.6545  20.6914
    20.6928  20.7115  20.7631  20.8154  21.0840  21.0911  21.1124  21.1281
    21.1405  21.3456  21.3479  21.3584  21.5272  21.5279  23.2085  23.2531
    23.3605  23.5168

          k = 0.1667 0.3889 0.2767 ( 11380 PWs)   bands (ev):

   -66.8407 -66.8163 -66.7971 -66.7842 -66.7808 -66.7720 -66.7652 -66.7597
   -66.7473 -66.7472 -66.7450 -66.7421 -66.7371 -66.7299 -66.7153 -66.6965
   -33.1140 -33.1006 -33.0955 -33.0777 -33.0650 -33.0590 -33.0563 -33.0520
   -33.0426 -33.0337 -33.0315 -33.0276 -32.9931 -32.9701 -32.9399 -32.9183
   -32.9143 -32.8790 -32.8716 -32.8669 -32.8618 -32.8526 -32.8525 -32.8522
   -32.8112 -32.7883 -32.7789 -32.7655 -32.7626 -32.7549 -32.7474 -32.7373
   -32.7180 -32.7021 -32.7009 -32.6894 -32.6824 -32.6740 -32.6614 -32.6512
   -32.6422 -32.6421 -32.6349 -32.6256 -32.6253 -32.6250 -32.6052 -32.6033
    12.7034  13.7393  14.5684  15.0677  15.2910  15.5735  15.9331  16.1597
    16.1676  16.2260  16.2537  16.2839  16.4158  16.4178  16.4678  16.6620
    16.6895  16.7341  17.1864  17.2131  17.2891  17.2995  17.3356  17.3825
    17.4443  17.5609  17.5631  17.6122  17.6931  17.8438  17.8773  17.8933
    18.0006  18.0600  18.1270  18.1576  18.1862  18.2142  18.2317  18.2489
    18.2738  18.3075  18.3175  18.3346  18.4166  18.5045  19.0157  19.4479
    19.6430  19.7459  19.8092  19.8187  19.8226  19.8601  19.8757  19.9210
    20.0699  20.0710  20.0788  20.1694  20.1885  20.2613  20.3373  20.4006
    20.4542  20.4704  20.4766  20.5545  20.6061  20.6083  20.6448  20.6658
    20.6673  20.6822  20.6825  20.7805  20.8806  20.9926  21.1113  21.1677
    21.2205  21.2348  21.3692  21.3970  21.4553  22.0065  22.9366  23.6048
    24.1017  24.2085

          k = 0.1667 0.3889 0.3874 ( 11382 PWs)   bands (ev):

   -66.8325 -66.8104 -66.8101 -66.7938 -66.7777 -66.7698 -66.7695 -66.7632
   -66.7461 -66.7454 -66.7451 -66.7428 -66.7299 -66.7192 -66.7189 -66.7023
   -33.1045 -33.0829 -33.0820 -33.0662 -33.0660 -33.0609 -33.0571 -33.0566
   -33.0533 -33.0481 -33.0411 -33.0121 -32.9870 -32.9562 -32.9155 -32.9092
   -32.9088 -32.8963 -32.8957 -32.8793 -32.8774 -32.8758 -32.8745 -32.8406
   -32.8048 -32.7810 -32.7786 -32.7779 -32.7714 -32.7703 -32.7596 -32.7187
   -32.7171 -32.6909 -32.6906 -32.6838 -32.6836 -32.6654 -32.6590 -32.6587
   -32.6483 -32.6414 -32.6410 -32.6404 -32.6127 -32.6121 -32.6023 -32.6011
    13.0605  14.0242  14.0306  14.7329  15.5147  15.8670  15.8678  16.3020
    16.3221  16.3955  16.4002  16.4626  16.4693  16.4790  16.5040  16.5527
    16.7100  16.9468  16.9478  17.2125  17.2731  17.3178  17.3735  17.3912
    17.4075  17.4156  17.5605  17.5708  17.5735  17.6399  17.8459  17.9296
    17.9306  17.9329  17.9948  18.0093  18.0699  18.0766  18.0895  18.1214
    18.1499  18.1743  18.1784  18.2639  18.2717  18.6940  18.6963  19.2851
    19.6952  19.8506  19.9162  19.9190  19.9465  19.9780  19.9861  19.9863
    20.1017  20.1624  20.1841  20.1930  20.2238  20.2262  20.2327  20.2466
    20.3854  20.4077  20.4078  20.4646  20.4919  20.5775  20.5831  20.6142
    20.6417  20.6427  20.6921  20.7011  20.8496  20.9058  20.9116  20.9308
    21.3467  21.3485  21.4086  21.4858  21.7488  22.5332  22.5352  23.6413
    24.0120  24.7306

          k = 0.1667 0.3889-0.4981 ( 11394 PWs)   bands (ev):

   -66.8225 -66.8221 -66.8028 -66.8024 -66.7741 -66.7738 -66.7667 -66.7663
   -66.7457 -66.7453 -66.7440 -66.7436 -66.7241 -66.7237 -66.7100 -66.7096
   -33.0880 -33.0879 -33.0702 -33.0701 -33.0607 -33.0604 -33.0599 -33.0598
   -33.0546 -33.0544 -33.0344 -33.0342 -32.9423 -32.9422 -32.9351 -32.9348
   -32.9005 -32.9004 -32.8941 -32.8938 -32.8824 -32.8822 -32.8502 -32.8501
   -32.8091 -32.8090 -32.7765 -32.7764 -32.7646 -32.7644 -32.7470 -32.7469
   -32.7034 -32.7030 -32.6695 -32.6694 -32.6676 -32.6672 -32.6618 -32.6615
   -32.6604 -32.6602 -32.6404 -32.6403 -32.6049 -32.6049 -32.6041 -32.6040
    13.5093  13.5097  14.3743  14.3747  15.7257  15.7261  16.2026  16.2030
    16.4083  16.4086  16.4144  16.4147  16.5331  16.5333  16.6119  16.6122
    16.7063  16.7067  17.2439  17.2444  17.3056  17.3060  17.3064  17.3066
    17.3116  17.3119  17.4829  17.4832  17.7374  17.7376  17.7646  17.7647
    17.8744  17.8747  17.9442  17.9444  17.9919  17.9920  18.0215  18.0216
    18.1779  18.1782  18.2177  18.2180  18.4011  18.4011  18.9607  18.9607
    19.8889  19.8891  19.9518  19.9520  20.0378  20.0382  20.0724  20.0726
    20.0943  20.0943  20.0948  20.0949  20.2123  20.2124  20.3118  20.3120
    20.3254  20.3256  20.4535  20.4538  20.4908  20.4910  20.5620  20.5622
    20.6268  20.6271  20.6739  20.6742  20.7770  20.7771  20.9112  20.9112
    21.4062  21.4063  21.4461  21.4461  22.1360  22.1363  23.0842  23.0846
    24.4096  24.4098

          k = 0.1667-0.5000 0.0553 ( 11350 PWs)   bands (ev):

   -66.8369 -66.8369 -66.7797 -66.7796 -66.7667 -66.7667 -66.7551 -66.7551
   -66.7547 -66.7547 -66.7519 -66.7518 -66.7430 -66.7430 -66.7001 -66.7001
   -33.0913 -33.0911 -33.0772 -33.0771 -33.0768 -33.0767 -33.0743 -33.0742
   -33.0523 -33.0523 -33.0196 -33.0194 -33.0171 -33.0169 -32.9385 -32.9384
   -32.8984 -32.8982 -32.8450 -32.8448 -32.8283 -32.8282 -32.8208 -32.8206
   -32.8097 -32.8095 -32.7806 -32.7804 -32.7515 -32.7514 -32.7449 -32.7448
   -32.6988 -32.6986 -32.6721 -32.6720 -32.6681 -32.6680 -32.6652 -32.6651
   -32.6544 -32.6543 -32.6439 -32.6438 -32.6248 -32.6247 -32.6244 -32.6241
    12.8312  12.8315  15.1541  15.1543  15.6143  15.6145  15.9115  15.9117
    16.0543  16.0544  16.2151  16.2152  16.3134  16.3136  16.3420  16.3422
    16.3476  16.3480  17.1747  17.1749  17.1990  17.1991  17.7106  17.7107
    17.7277  17.7278  17.7307  17.7309  17.8179  17.8181  18.1146  18.1148
    18.1707  18.1708  18.2349  18.2351  18.3612  18.3614  18.3652  18.3653
    18.3692  18.3693  18.4107  18.4108  18.5105  18.5106  19.2440  19.2444
    19.7470  19.7471  19.7763  19.7764  19.8846  19.8848  19.9305  19.9308
    19.9713  19.9714  19.9856  19.9857  20.3141  20.3141  20.4466  20.4467
    20.4598  20.4599  20.5868  20.5869  20.6285  20.6286  20.6671  20.6672
    20.7871  20.7873  20.8752  20.8753  21.0012  21.0014  21.0662  21.0663
    21.2387  21.2388  21.4005  21.4006  21.8040  21.8041  22.5086  22.5087
    23.1731  23.1733

          k = 0.1667-0.5000 0.1660 ( 11386 PWs)   bands (ev):

   -66.8344 -66.8344 -66.7792 -66.7790 -66.7786 -66.7784 -66.7587 -66.7586
   -66.7492 -66.7492 -66.7437 -66.7435 -66.7431 -66.7429 -66.7017 -66.7017
   -33.0878 -33.0877 -33.0869 -33.0867 -33.0732 -33.0730 -33.0721 -33.0720
   -33.0252 -33.0250 -33.0223 -33.0223 -33.0219 -33.0217 -32.9480 -32.9479
   -32.8728 -32.8726 -32.8690 -32.8689 -32.8421 -32.8420 -32.8391 -32.8389
   -32.8000 -32.7998 -32.7695 -32.7693 -32.7548 -32.7547 -32.7526 -32.7524
   -32.6907 -32.6905 -32.6898 -32.6897 -32.6735 -32.6734 -32.6637 -32.6637
   -32.6521 -32.6520 -32.6270 -32.6268 -32.6260 -32.6260 -32.6202 -32.6201
    12.9503  12.9506  15.2508  15.2510  15.2603  15.2605  16.1439  16.1442
    16.1479  16.1481  16.2884  16.2885  16.3077  16.3079  16.3798  16.3803
    16.4064  16.4066  17.1910  17.1912  17.2548  17.2550  17.6726  17.6728
    17.6743  17.6743  17.6748  17.6750  17.6964  17.6965  18.1287  18.1289
    18.1403  18.1404  18.1766  18.1767  18.2488  18.2490  18.2595  18.2597
    18.2966  18.2967  18.3012  18.3015  18.3822  18.3822  19.4244  19.4246
    19.6566  19.6567  19.8124  19.8125  19.8379  19.8381  19.8477  19.8478
    19.9661  19.9663  19.9800  19.9801  20.4175  20.4176  20.4234  20.4236
    20.4517  20.4518  20.5593  20.5594  20.6046  20.6047  20.7096  20.7098
    20.7107  20.7107  20.7285  20.7286  21.2413  21.2413  21.2502  21.2504
    21.2536  21.2537  21.2883  21.2884  21.2907  21.2909  23.4167  23.4168
    23.4564  23.4567

          k = 0.1667-0.5000 0.2767 ( 11382 PWs)   bands (ev):

   -66.8295 -66.8294 -66.7911 -66.7911 -66.7767 -66.7767 -66.7626 -66.7625
   -66.7472 -66.7471 -66.7433 -66.7433 -66.7331 -66.7331 -66.7049 -66.7049
   -33.0918 -33.0918 -33.0789 -33.0787 -33.0656 -33.0655 -33.0649 -33.0648
   -33.0410 -33.0409 -33.0267 -33.0265 -32.9848 -32.9848 -32.9467 -32.9465
   -32.8891 -32.8889 -32.8676 -32.8673 -32.8626 -32.8625 -32.8416 -32.8415
[...]
   -32.8769 -32.8769 -32.8584 -32.8582 -32.8427 -32.8425 -32.8357 -32.8355
   -32.8311 -32.8309 -32.8167 -32.8165 -32.8032 -32.8030 -32.7627 -32.7624
   -32.7070 -32.7070 -32.6738 -32.6737 -32.6580 -32.6579 -32.6575 -32.6574
   -32.6558 -32.6557 -32.6461 -32.6460 -32.5985 -32.5984 -32.5983 -32.5979
    13.3975  13.3978  14.2633  14.2636  16.0341  16.0343  16.2972  16.2974
    16.3119  16.3121  16.3286  16.3288  16.3476  16.3478  16.4736  16.4738
    16.6921  16.6924  17.2559  17.2561  17.2985  17.2987  17.2988  17.2990
    17.3629  17.3631  17.4191  17.4193  17.7730  17.7732  17.9076  17.9077
    17.9915  17.9917  18.0034  18.0037  18.0048  18.0050  18.0642  18.0644
    18.3407  18.3408  18.3638  18.3638  18.5999  18.6001  19.2614  19.2615
    19.7088  19.7089  19.7680  19.7683  19.9545  19.9546  20.0200  20.0201
    20.0629  20.0632  20.0643  20.0645  20.0740  20.0740  20.2957  20.2959
    20.3014  20.3015  20.3232  20.3234  20.4641  20.4642  20.5175  20.5176
    20.6664  20.6665  20.7171  20.7172  20.7286  20.7286  20.8104  20.8104
    21.5423  21.5423  21.5978  21.5979  22.7231  22.7233  23.4666  23.4667
    23.7030  23.7033

          k = 0.3889-0.5000 0.1660 ( 11384 PWs)   bands (ev):

   -66.8222 -66.8221 -66.8024 -66.8024 -66.7741 -66.7741 -66.7667 -66.7666
   -66.7457 -66.7456 -66.7440 -66.7439 -66.7237 -66.7237 -66.7096 -66.7095
   -33.0864 -33.0862 -33.0701 -33.0700 -33.0611 -33.0609 -33.0579 -33.0577
   -33.0544 -33.0543 -33.0341 -33.0340 -32.9416 -32.9414 -32.9380 -32.9379
   -32.8994 -32.8992 -32.8971 -32.8971 -32.8820 -32.8818 -32.8500 -32.8498
   -32.8090 -32.8088 -32.7762 -32.7760 -32.7645 -32.7643 -32.7470 -32.7468
   -32.7050 -32.7050 -32.6690 -32.6689 -32.6687 -32.6686 -32.6607 -32.6607
   -32.6596 -32.6595 -32.6394 -32.6393 -32.6052 -32.6051 -32.6043 -32.6041
    13.5169  13.5172  14.3804  14.3806  15.7232  15.7234  16.2077  16.2079
    16.4067  16.4069  16.4155  16.4157  16.5324  16.5326  16.6198  16.6200
    16.7158  16.7161  17.2546  17.2547  17.3116  17.3118  17.3169  17.3171
    17.3210  17.3212  17.4808  17.4810  17.7266  17.7267  17.7412  17.7414
    17.8792  17.8793  17.9294  17.9296  17.9719  17.9721  18.0136  18.0137
    18.1909  18.1910  18.2302  18.2303  18.3849  18.3850  18.9498  18.9499
    19.8929  19.8930  19.9445  19.9447  20.0585  20.0586  20.0920  20.0921
    20.0982  20.0983  20.1045  20.1048  20.2049  20.2050  20.3166  20.3168
    20.3237  20.3238  20.4501  20.4501  20.4876  20.4877  20.5618  20.5620
    20.6065  20.6066  20.6504  20.6505  20.7541  20.7542  20.8909  20.8909
    21.4126  21.4126  21.4520  21.4522  22.1377  22.1379  23.0829  23.0831
    24.3852  24.3854

          k = 0.3889-0.5000 0.2767 ( 11400 PWs)   bands (ev):

   -66.8178 -66.8178 -66.7991 -66.7991 -66.7845 -66.7845 -66.7743 -66.7743
   -66.7399 -66.7398 -66.7353 -66.7353 -66.7253 -66.7252 -66.7122 -66.7122
   -33.0722 -33.0720 -33.0655 -33.0654 -33.0492 -33.0491 -33.0460 -33.0458
   -33.0393 -33.0391 -33.0072 -33.0071 -32.9653 -32.9653 -32.9560 -32.9559
   -32.9378 -32.9376 -32.9259 -32.9259 -32.9194 -32.9192 -32.8749 -32.8748
   -32.7812 -32.7811 -32.7389 -32.7387 -32.7282 -32.7280 -32.7260 -32.7259
   -32.7010 -32.7010 -32.6852 -32.6851 -32.6653 -32.6651 -32.6651 -32.6650
   -32.6620 -32.6620 -32.6363 -32.6362 -32.6182 -32.6180 -32.6158 -32.6156
    13.7488  13.7491  14.6065  14.6067  15.3473  15.3475  15.9966  15.9968
    16.5791  16.5793  16.5887  16.5889  16.7326  16.7329  16.7601  16.7603
    16.7962  16.7964  17.2473  17.2475  17.2702  17.2703  17.3515  17.3517
    17.3657  17.3658  17.5490  17.5492  17.5607  17.5608  17.6840  17.6842
    17.7374  17.7375  17.7693  17.7695  17.8817  17.8818  17.9144  17.9146
    17.9679  17.9680  18.0431  18.0432  18.0885  18.0887  18.5788  18.5789
    20.1146  20.1147  20.1286  20.1287  20.1447  20.1448  20.1528  20.1529
    20.1996  20.1999  20.2351  20.2353  20.3519  20.3520  20.3725  20.3726
    20.4238  20.4238  20.4501  20.4502  20.4931  20.4931  20.5358  20.5358
    20.5661  20.5661  20.7637  20.7639  20.8783  20.8785  20.9492  20.9492
    21.2010  21.2011  21.2223  21.2225  21.6681  21.6683  22.5651  22.5654
    25.4600  25.4601

          k = 0.3889-0.5000 0.3874 ( 11408 PWs)   bands (ev):

   -66.8115 -66.8115 -66.7948 -66.7946 -66.7944 -66.7941 -66.7817 -66.7817
   -66.7349 -66.7349 -66.7280 -66.7277 -66.7275 -66.7273 -66.7161 -66.7160
   -33.0539 -33.0538 -33.0527 -33.0525 -33.0349 -33.0348 -33.0341 -33.0339
   -33.0194 -33.0193 -32.9854 -32.9853 -32.9757 -32.9757 -32.9754 -32.9751
   -32.9689 -32.9687 -32.9554 -32.9553 -32.9533 -32.9530 -32.9064 -32.9062
   -32.7537 -32.7535 -32.7082 -32.7081 -32.7055 -32.7055 -32.7050 -32.7048
   -32.6963 -32.6963 -32.6959 -32.6957 -32.6747 -32.6746 -32.6672 -32.6671
   -32.6585 -32.6585 -32.6365 -32.6363 -32.6359 -32.6359 -32.6298 -32.6296
    14.0784  14.0786  14.9192  14.9194  14.9235  14.9237  15.6804  15.6806
    16.7803  16.7806  16.8344  16.8345  16.8413  16.8415  16.8456  16.8459
    16.9883  16.9885  17.2149  17.2150  17.2212  17.2213  17.3919  17.3921
    17.4371  17.4373  17.4823  17.4826  17.5039  17.5041  17.6118  17.6121
    17.6248  17.6250  17.7350  17.7352  17.7421  17.7422  17.7931  17.7933
    17.7951  17.7952  17.8371  17.8373  17.8691  17.8692  18.2209  18.2210
    20.2000  20.2001  20.2128  20.2129  20.2222  20.2223  20.3387  20.3387
    20.3497  20.3499  20.3626  20.3627  20.3890  20.3890  20.4548  20.4549
    20.4712  20.4712  20.4723  20.4724  20.4782  20.4782  20.5596  20.5598
    20.5953  20.5954  20.7482  20.7483  20.9651  20.9651  20.9810  20.9812
    20.9974  20.9975  21.2651  21.2654  21.2681  21.2683  22.1071  22.1073
    26.6243  26.6260

          k = 0.3889-0.5000-0.4981 ( 11412 PWs)   bands (ev):

   -66.8040 -66.8038 -66.8036 -66.8034 -66.7887 -66.7885 -66.7883 -66.7882
   -66.7311 -66.7309 -66.7307 -66.7305 -66.7216 -66.7214 -66.7212 -66.7210
   -33.0390 -33.0390 -33.0389 -33.0389 -33.0342 -33.0340 -33.0339 -33.0338
   -32.9974 -32.9973 -32.9973 -32.9970 -32.9800 -32.9797 -32.9797 -32.9796
   -32.9762 -32.9762 -32.9761 -32.9761 -32.9411 -32.9411 -32.9410 -32.9408
   -32.7282 -32.7282 -32.7281 -32.7279 -32.6945 -32.6944 -32.6944 -32.6944
   -32.6882 -32.6882 -32.6881 -32.6879 -32.6703 -32.6700 -32.6698 -32.6698
   -32.6570 -32.6569 -32.6567 -32.6566 -32.6363 -32.6363 -32.6363 -32.6362
    14.4804  14.4808  14.4810  14.4812  15.2989  15.2992  15.2995  15.2997
    16.8496  16.8500  16.8500  16.8502  17.0474  17.0476  17.0479  17.0480
    17.1323  17.1325  17.1327  17.1329  17.1512  17.1514  17.1516  17.1516
    17.5398  17.5401  17.5402  17.5403  17.5579  17.5579  17.5581  17.5582
    17.5591  17.5591  17.5592  17.5593  17.7199  17.7201  17.7201  17.7202
    17.7755  17.7756  17.7757  17.7760  17.9266  17.9267  17.9268  17.9269
    20.2480  20.2483  20.2485  20.2486  20.3079  20.3080  20.3081  20.3083
    20.3924  20.3925  20.3927  20.3929  20.4608  20.4611  20.4613  20.4614
    20.4705  20.4706  20.4706  20.4707  20.5263  20.5264  20.5264  20.5267
    20.7957  20.7958  20.7959  20.7961  20.9036  20.9041  20.9042  20.9042
    20.9446  20.9446  20.9447  20.9447  21.6776  21.6781  21.6782  21.6783
    27.2152  27.2154

          k =-0.5000-0.5000 0.0553 ( 11412 PWs)   bands (ev):

   -66.8151 -66.8151 -66.8148 -66.8148 -66.7617 -66.7617 -66.7614 -66.7614
   -66.7529 -66.7529 -66.7527 -66.7526 -66.7150 -66.7150 -66.7148 -66.7147
   -33.0824 -33.0824 -33.0824 -33.0820 -33.0645 -33.0644 -33.0644 -33.0643
   -33.0581 -33.0579 -33.0579 -33.0579 -32.8982 -32.8982 -32.8978 -32.8978
   -32.8855 -32.8852 -32.8848 -32.8848 -32.8545 -32.8545 -32.8545 -32.8541
   -32.8120 -32.8120 -32.8120 -32.8116 -32.7971 -32.7967 -32.7964 -32.7964
   -32.6890 -32.6890 -32.6887 -32.6885 -32.6553 -32.6551 -32.6551 -32.6551
   -32.6510 -32.6509 -32.6508 -32.6508 -32.5949 -32.5949 -32.5949 -32.5946
    13.8076  13.8077  13.8077  13.8081  16.2442  16.2445  16.2445  16.2446
    16.3438  16.3439  16.3439  16.3442  16.4531  16.4534  16.4534  16.4535
    16.9612  16.9613  16.9613  16.9617  17.2902  17.2904  17.2904  17.2906
    17.3361  17.3364  17.3364  17.3365  17.8672  17.8676  17.8676  17.8677
    17.8889  17.8890  17.8890  17.8891  17.9739  17.9740  17.9740  17.9741
    18.3314  18.3314  18.3316  18.3318  18.9148  18.9149  18.9153  18.9153
    19.7949  19.7949  19.7951  19.7954  20.0411  20.0416  20.0418  20.0418
    20.1024  20.1024  20.1024  20.1025  20.1823  20.1826  20.1826  20.1829
    20.1832  20.1832  20.1832  20.1834  20.4410  20.4410  20.4411  20.4412
    20.6934  20.6934  20.6937  20.6938  20.7510  20.7510  20.7514  20.7515
    21.6043  21.6045  21.6045  21.6045  23.2156  23.2160  23.2160  23.2160
    23.9769  23.9770

          k =-0.5000-0.5000 0.1660 ( 11376 PWs)   bands (ev):

   -66.8131 -66.8131 -66.8129 -66.8128 -66.7707 -66.7707 -66.7705 -66.7705
   -66.7447 -66.7447 -66.7445 -66.7445 -66.7160 -66.7160 -66.7158 -66.7157
   -33.0747 -33.0747 -33.0747 -33.0743 -33.0627 -33.0627 -33.0627 -33.0625
   -33.0436 -33.0434 -33.0434 -33.0434 -32.9202 -32.9202 -32.9200 -32.9199
   -32.8967 -32.8967 -32.8967 -32.8963 -32.8962 -32.8959 -32.8956 -32.8956
   -32.7776 -32.7772 -32.7770 -32.7770 -32.7702 -32.7701 -32.7701 -32.7698
   -32.6850 -32.6850 -32.6847 -32.6846 -32.6625 -32.6623 -32.6622 -32.6622
   -32.6499 -32.6498 -32.6498 -32.6498 -32.6020 -32.6020 -32.6020 -32.6017
    13.9265  13.9267  13.9267  13.9270  16.0024  16.0027  16.0027  16.0028
    16.4348  16.4349  16.4349  16.4352  16.6664  16.6667  16.6667  16.6668
    16.9791  16.9792  16.9792  16.9795  17.2484  17.2485  17.2485  17.2487
    17.3914  17.3916  17.3916  17.3918  17.7307  17.7307  17.7308  17.7309
    17.8367  17.8370  17.8370  17.8372  17.9283  17.9284  17.9284  17.9285
    18.1906  18.1906  18.1908  18.1909  18.6379  18.6382  18.6384  18.6384
    20.0258  20.0258  20.0259  20.0261  20.1163  20.1163  20.1163  20.1165
    20.2116  20.2117  20.2117  20.2119  20.2266  20.2268  20.2268  20.2270
    20.2470  20.2475  20.2476  20.2476  20.4327  20.4327  20.4328  20.4329
    20.6280  20.6280  20.6283  20.6283  20.7969  20.7969  20.7971  20.7973
    21.4619  21.4621  21.4621  21.4621  22.6068  22.6072  22.6072  22.6072
    24.9066  24.9067

          k =-0.5000-0.5000 0.2767 ( 11396 PWs)   bands (ev):

   -66.8093 -66.8093 -66.8090 -66.8090 -66.7799 -66.7799 -66.7796 -66.7796
   -66.7374 -66.7374 -66.7371 -66.7371 -66.7182 -66.7182 -66.7179 -66.7179
   -33.0596 -33.0596 -33.0596 -33.0592 -33.0525 -33.0525 -33.0524 -33.0523
   -33.0230 -33.0228 -33.0227 -33.0227 -32.9505 -32.9505 -32.9504 -32.9503
   -32.9373 -32.9373 -32.9373 -32.9369 -32.9156 -32.9153 -32.9151 -32.9151
   -32.7528 -32.7525 -32.7523 -32.7523 -32.7309 -32.7309 -32.7309 -32.7305
   -32.6784 -32.6784 -32.6781 -32.6781 -32.6733 -32.6731 -32.6730 -32.6730
   -32.6520 -32.6520 -32.6519 -32.6519 -32.6160 -32.6160 -32.6160 -32.6156
    14.1571  14.1572  14.1572  14.1576  15.6876  15.6878  15.6878  15.6880
    16.6080  16.6081  16.6081  16.6084  16.9014  16.9016  16.9017  16.9017
    17.0122  17.0123  17.0123  17.0126  17.2052  17.2053  17.2053  17.2056
    17.4580  17.4583  17.4583  17.4584  17.5996  17.5996  17.5996  17.5997
    17.7618  17.7620  17.7620  17.7621  17.7799  17.7802  17.7802  17.7804
    17.9866  17.9866  17.9866  17.9868  18.2821  18.2823  18.2825  18.2825
    20.1777  20.1777  20.1777  20.1779  20.2561  20.2561  20.2561  20.2564
    20.2900  20.2900  20.2901  20.2903  20.3250  20.3252  20.3252  20.3254
    20.4157  20.4157  20.4158  20.4159  20.5474  20.5479  20.5480  20.5480
    20.5485  20.5485  20.5487  20.5488  20.8132  20.8132  20.8134  20.8136
    21.2260  21.2262  21.2262  21.2263  22.1096  22.1100  22.1100  22.1100
    25.9895  25.9897

          k =-0.5000-0.5000 0.3874 ( 11416 PWs)   bands (ev):

   -66.8038 -66.8038 -66.8035 -66.8035 -66.7887 -66.7887 -66.7884 -66.7884
   -66.7310 -66.7310 -66.7307 -66.7307 -66.7213 -66.7213 -66.7211 -66.7211
   -33.0374 -33.0374 -33.0374 -33.0370 -33.0348 -33.0348 -33.0348 -33.0346
   -32.9974 -32.9972 -32.9971 -32.9971 -32.9817 -32.9817 -32.9816 -32.9815
   -32.9751 -32.9750 -32.9750 -32.9746 -32.9413 -32.9411 -32.9409 -32.9409
   -32.7284 -32.7281 -32.7280 -32.7280 -32.6946 -32.6946 -32.6946 -32.6942
   -32.6880 -32.6878 -32.6877 -32.6877 -32.6706 -32.6706 -32.6704 -32.6704
   -32.6564 -32.6564 -32.6564 -32.6563 -32.6367 -32.6367 -32.6367 -32.6363
    14.4831  14.4833  14.4833  14.4836  15.2975  15.2977  15.2977  15.2980
    16.8440  16.8441  16.8441  16.8444  17.0567  17.0568  17.0568  17.0571
    17.1317  17.1320  17.1320  17.1321  17.1579  17.1580  17.1580  17.1583
    17.5359  17.5362  17.5362  17.5364  17.5517  17.5519  17.5519  17.5520
    17.5653  17.5654  17.5654  17.5655  17.7047  17.7049  17.7049  17.7051
    17.7871  17.7871  17.7871  17.7873  17.9235  17.9237  17.9238  17.9238
    20.2596  20.2596  20.2597  20.2599  20.3052  20.3052  20.3052  20.3055
    20.3881  20.3881  20.3882  20.3883  20.4557  20.4557  20.4559  20.4560
    20.4837  20.4839  20.4839  20.4841  20.5162  20.5162  20.5163  20.5165
    20.7793  20.7793  20.7795  20.7797  20.9021  20.9026  20.9026  20.9026
    20.9564  20.9566  20.9566  20.9567  21.6790  21.6795  21.6795  21.6795
    27.1764  27.1766

          k =-0.5000-0.5000-0.4981 ( 11376 PWs)   bands (ev):

   -66.7971 -66.7971 -66.7968 -66.7967 -66.7964 -66.7964 -66.7963 -66.7961
   -66.7259 -66.7259 -66.7256 -66.7255 -66.7252 -66.7252 -66.7250 -66.7250
   -33.0109 -33.0109 -33.0109 -33.0106 -33.0104 -33.0104 -33.0104 -33.0104
   -33.0090 -33.0086 -33.0086 -33.0084 -33.0083 -33.0083 -33.0081 -33.0078
   -32.9696 -32.9695 -32.9692 -32.9691 -32.9691 -32.9688 -32.9688 -32.9686
   -32.7065 -32.7064 -32.7062 -32.7061 -32.7061 -32.7058 -32.7058 -32.7056
   -32.6635 -32.6632 -32.6632 -32.6630 -32.6630 -32.6630 -32.6629 -32.6629
   -32.6629 -32.6628 -32.6626 -32.6625 -32.6625 -32.6625 -32.6625 -32.6623
    14.8772  14.8773  14.8774  14.8777  14.8778  14.8779  14.8779  14.8781
    17.0956  17.0956  17.0957  17.0961  17.0962  17.0963  17.0963  17.0964
    17.1071  17.1071  17.1071  17.1074  17.1075  17.1077  17.1077  17.1079
    17.6094  17.6100  17.6100  17.6100  17.6101  17.6102  17.6103  17.6103
    17.6200  17.6204  17.6206  17.6206  17.6208  17.6208  17.6208  17.6213
    17.6357  17.6357  17.6357  17.6361  17.6362  17.6362  17.6363  17.6363
    20.3503  20.3503  20.3505  20.3507  20.3510  20.3511  20.3511  20.3512
    20.3555  20.3555  20.3556  20.3560  20.3561  20.3561  20.3562  20.3563
    20.6817  20.6817  20.6817  20.6820  20.6820  20.6820  20.6822  20.6823
    20.6993  20.6994  20.6994  20.6994  20.6995  20.6997  20.6997  20.7001
    21.2809  21.2817  21.2819  21.2819  21.2819  21.2819  21.2820  21.2820
    28.3479  28.3479

     the Fermi energy is    20.4198 ev

!    total energy              =   -5267.70859787 Ry
     Harris-Foulkes estimate   =   -5267.70863128 Ry
     estimated scf accuracy    <       0.00004480 Ry

     total all-electron energy =    -40728.453127 Ry

     The total energy is the sum of the following terms:

     one-electron contribution =   -1625.83654506 Ry
     hartree contribution      =     991.35351616 Ry
     xc contribution           =    -442.95977646 Ry
     ewald contribution        =   -2865.37229040 Ry
     one-center paw contrib.   =   -1324.76161983 Ry
     smearing contrib. (-TS)   =      -0.13188228 Ry

     convergence has been achieved in  11 iterations

     Forces acting on atoms (cartesian axes, Ry/au):

     atom    1 type  1   force =     0.00000000    0.00000000    0.00000000
     atom    2 type  1   force =    -0.00014248   -0.00014248    0.00061842
     atom    3 type  1   force =     0.00000000    0.00000000    0.00000000
     atom    4 type  1   force =    -0.00014248   -0.00014248   -0.00061842
     atom    5 type  1   force =     0.00000000    0.00000000    0.00000000
     atom    6 type  1   force =    -0.00014248    0.00014248    0.00061842
     atom    7 type  1   force =     0.00000000    0.00000000    0.00000000
     atom    8 type  1   force =    -0.00014248    0.00014248   -0.00061842
     atom    9 type  1   force =     0.00000000    0.00000000    0.00000000
     atom   10 type  1   force =     0.00014248   -0.00014248    0.00061842
     atom   11 type  1   force =     0.00000000    0.00000000    0.00000000
     atom   12 type  1   force =     0.00014248   -0.00014248   -0.00061842
     atom   13 type  1   force =     0.00000000    0.00000000    0.00000000
     atom   14 type  1   force =     0.00014248    0.00014248    0.00061842
     atom   15 type  1   force =     0.00000000    0.00000000    0.00000000
     atom   16 type  1   force =     0.00014248    0.00014248   -0.00061842

     Total force =     0.001840     Total SCF correction =     0.006235
     SCF correction compared to forces is large: reduce conv_thr to get better values


     Computing stress (Cartesian axis) and pressure

          total   stress  (Ry/bohr**3)                   (kbar)     P=   31.14
   0.00019451   0.00000000   0.00000000         28.61      0.00      0.00
   0.00000000   0.00019451   0.00000000          0.00     28.61      0.00
   0.00000000   0.00000000   0.00024606          0.00      0.00     36.20


     Writing output data file jYYqscExkIANrMsT.save/
 
     init_run     :      6.49s CPU      6.85s WALL (       1 calls)
     electrons    :    249.07s CPU    257.38s WALL (       1 calls)
     forces       :      2.30s CPU      2.59s WALL (       1 calls)
     stress       :      5.85s CPU      5.93s WALL (       1 calls)

     Called by init_run:
     wfcinit      :      6.17s CPU      6.45s WALL (       1 calls)
     potinit      :      0.14s CPU      0.17s WALL (       1 calls)
     hinit0       :      0.10s CPU      0.14s WALL (       1 calls)

     Called by electrons:
     c_bands      :    222.95s CPU    229.58s WALL (      12 calls)
     sum_band     :     24.93s CPU     26.31s WALL (      12 calls)
     v_of_rho     :      0.22s CPU      0.33s WALL (      12 calls)
     newd         :      0.17s CPU      0.22s WALL (      12 calls)
     PAW_pot      :      0.83s CPU      0.90s WALL (      12 calls)
     mix_rho      :      0.03s CPU      0.06s WALL (      12 calls)

     Called by c_bands:
     init_us_2    :      1.25s CPU      1.27s WALL (    2025 calls)
     cegterg      :    216.78s CPU    223.32s WALL (     900 calls)

     Called by sum_band:
     sum_band:bec :      0.38s CPU      0.38s WALL (     900 calls)
     addusdens    :      0.17s CPU      0.23s WALL (      12 calls)

     Called by *egterg:
     h_psi        :     97.88s CPU    102.03s WALL (    2812 calls)
     s_psi        :      5.25s CPU      5.28s WALL (    2812 calls)
     g_psi        :      0.21s CPU      0.21s WALL (    1837 calls)
     cdiaghg      :     94.15s CPU     94.44s WALL (    2662 calls)

     Called by h_psi:
     h_psi:pot    :     97.35s CPU    101.49s WALL (    2812 calls)
     h_psi:calbec :      8.02s CPU      9.34s WALL (    2812 calls)
     vloc_psi     :     84.00s CPU     86.78s WALL (    2812 calls)
     add_vuspsi   :      5.31s CPU      5.35s WALL (    2812 calls)

     General routines
     calbec       :     13.23s CPU     15.47s WALL (    4087 calls)
     fft          :      0.24s CPU      0.47s WALL (     181 calls)
     ffts         :      0.02s CPU      0.08s WALL (      24 calls)
     fftw         :     98.11s CPU    101.31s WALL (  755236 calls)
     interpolate  :      0.03s CPU      0.06s WALL (      12 calls)
 
     Parallel routines
     fft_scatt_xy :      6.65s CPU      6.87s WALL (  755441 calls)
     fft_scatt_yz :     65.97s CPU     68.41s WALL (  755441 calls)
 
     PWSCF        :  4m28.80s CPU     4m46.18s WALL

 
   This run was terminated on:   8:20:42   5Sep2020            

=------------------------------------------------------------------------------=
   JOB DONE.
=------------------------------------------------------------------------------=
