--------------------------------------------------------------------------
WARNING: There was an error initializing an OpenFabrics device.

  Local host:   bear-pg0211u07b
  Local device: mlx5_0
--------------------------------------------------------------------------

     Program PWSCF v.6.3 starts on  5Sep2020 at  8:25:29 

     This program is part of the open-source Quantum ESPRESSO suite
     for quantum simulation of materials; please cite
         "P. Giannozzi et al., J. Phys.:Condens. Matter 21 395502 (2009);
         "P. Giannozzi et al., J. Phys.:Condens. Matter 29 465901 (2017);
          URL http://www.quantum-espresso.org", 
     in publications or presentations arising from this work. More details at
     http://www.quantum-espresso.org/quote

     Parallel version (MPI & OpenMP), running on      40 processor cores
     Number of MPI processes:                40
     Threads/MPI process:                     1

     MPI processes distributed on     1 nodes
     R & G space division:  proc/nbgrp/npool/nimage =      40
     Reading input from wd/ec/ec_3_009.in
Warning: card &IONS ignored
Warning: card ION_DYNAMICS = 'BFGS', ignored
Warning: card / ignored
Warning: card &CELL ignored
Warning: card CELL_DYNAMICS = 'BFGS', ignored
Warning: card CELL_FACTOR = 2.0, ignored
Warning: card PRESS = 0.0, ignored
Warning: card / ignored

     Current dimensions of program PWSCF are:
     Max number of different atomic species (ntypx) = 10
     Max number of k-points (npk) =  40000
     Max angular momentum in pseudopotentials (lmaxx) =  3
               file Fe.pbe-spn-kjpaw_psl.1.0.0.UPF: wavefunction(s)  3P 3D renormalized

     Subspace diagonalization in iterative solution of the eigenvalue problem:
     a serial algorithm will be used

 
     Parallelization info
     --------------------
     sticks:   dense  smooth     PW     G-vecs:    dense   smooth      PW
     Min          92      60     17                 4242     2277     339
     Max          93      62     18                 4247     2283     343
     Sum        3705    2441    681               169813    91209   13613
 


     bravais-lattice index     =            0
     lattice parameter (alat)  =      10.3915  a.u.
     unit-cell volume          =    1127.7078 (a.u.)^3
     number of atoms/cell      =           16
     number of atomic types    =            1
     number of electrons       =       256.00
     number of Kohn-Sham states=          154
     kinetic-energy cutoff     =      71.0000  Ry
     charge density cutoff     =     430.0000  Ry
     convergence threshold     =      5.0E-05
     mixing beta               =       0.1000
     number of iterations used =           10  plain     mixing
     Exchange-correlation      = SLA PW PBX PBC ( 1  4  3  4 0 0)

     celldm(1)=  10.391466  celldm(2)=   0.000000  celldm(3)=   0.000000
     celldm(4)=   0.000000  celldm(5)=   0.000000  celldm(6)=   0.000000

     crystal axes: (cart. coord. in units of alat)
               a(1) = (   1.000000   0.000000   0.000000 )  
               a(2) = (   0.000000   1.000000   0.000000 )  
               a(3) = (   0.000000   0.000000   1.005000 )  

     reciprocal axes: (cart. coord. in units 2 pi/alat)
               b(1) = (  1.000000  0.000000  0.000000 )  
               b(2) = (  0.000000  1.000000  0.000000 )  
               b(3) = (  0.000000  0.000000  0.995025 )  


     PseudoPot. # 1 for Fe read from file:
     /rds/homes/b/bxp912/pp/Fe.pbe-spn-kjpaw_psl.1.0.0.UPF
     MD5 check sum: 42f43b795421b414b0dc916aa790dbcb
     Pseudo is Projector augmented-wave + core cor, Zval = 16.0
     Generated using "atomic" code by A. Dal Corso v.6.3
     Shape of augmentation charge: PSQ
     Using radial grid of 1191 points,  6 beta functions with: 
                l(1) =   0
                l(2) =   0
                l(3) =   1
                l(4) =   1
                l(5) =   2
                l(6) =   2
     Q(r) pseudized with 0 coefficients 


     atomic species   valence    mass     pseudopotential
        Fe            16.00    55.84500     Fe( 1.00)

     16 Sym. Ops., with inversion, found



   Cartesian axes

     site n.     atom                  positions (alat units)
         1           Fe  tau(   1) = (   0.0000000   0.0000000   0.0000000  )
         2           Fe  tau(   2) = (   0.2500089   0.2500089   0.2512590  )
         3           Fe  tau(   3) = (   0.0000000   0.0000000   0.5024995  )
         4           Fe  tau(   4) = (   0.2500089   0.2500089   0.7537410  )
         5           Fe  tau(   5) = (   0.0000000   0.5000001   0.0000000  )
         6           Fe  tau(   6) = (   0.2500089   0.7499912   0.2512590  )
         7           Fe  tau(   7) = (   0.0000000   0.5000001   0.5024995  )
         8           Fe  tau(   8) = (   0.2500089   0.7499912   0.7537410  )
         9           Fe  tau(   9) = (   0.5000001   0.0000000   0.0000000  )
        10           Fe  tau(  10) = (   0.7499912   0.2500089   0.2512590  )
        11           Fe  tau(  11) = (   0.5000001   0.0000000   0.5024995  )
        12           Fe  tau(  12) = (   0.7499912   0.2500089   0.7537410  )
        13           Fe  tau(  13) = (   0.5000001   0.5000001   0.0000000  )
        14           Fe  tau(  14) = (   0.7499912   0.7499912   0.2512590  )
        15           Fe  tau(  15) = (   0.5000001   0.5000001   0.5024995  )
        16           Fe  tau(  16) = (   0.7499912   0.7499912   0.7537410  )

     number of k points=    75  Marzari-Vanderbilt smearing, width (Ry)=  0.0400
                       cart. coord. in units 2pi/alat
        k(    1) = (   0.0555556   0.0555556   0.0552792), wk =   0.0219479
        k(    2) = (   0.0555556   0.0555556   0.1658375), wk =   0.0219479
        k(    3) = (   0.0555556   0.0555556   0.2763958), wk =   0.0219479
        k(    4) = (   0.0555556   0.0555556   0.3869541), wk =   0.0219479
        k(    5) = (   0.0555556   0.0555556  -0.4975124), wk =   0.0109739
        k(    6) = (   0.0555556   0.1666667   0.0552792), wk =   0.0438957
        k(    7) = (   0.0555556   0.1666667   0.1658375), wk =   0.0438957
        k(    8) = (   0.0555556   0.1666667   0.2763958), wk =   0.0438957
        k(    9) = (   0.0555556   0.1666667   0.3869541), wk =   0.0438957
        k(   10) = (   0.0555556   0.1666667  -0.4975124), wk =   0.0219479
        k(   11) = (   0.0555556   0.2777778   0.0552792), wk =   0.0438957
        k(   12) = (   0.0555556   0.2777778   0.1658375), wk =   0.0438957
        k(   13) = (   0.0555556   0.2777778   0.2763958), wk =   0.0438957
        k(   14) = (   0.0555556   0.2777778   0.3869541), wk =   0.0438957
        k(   15) = (   0.0555556   0.2777778  -0.4975124), wk =   0.0219479
        k(   16) = (   0.0555556   0.3888889   0.0552792), wk =   0.0438957
        k(   17) = (   0.0555556   0.3888889   0.1658375), wk =   0.0438957
        k(   18) = (   0.0555556   0.3888889   0.2763958), wk =   0.0438957
        k(   19) = (   0.0555556   0.3888889   0.3869541), wk =   0.0438957
        k(   20) = (   0.0555556   0.3888889  -0.4975124), wk =   0.0219479
        k(   21) = (   0.0555556  -0.5000000   0.0552792), wk =   0.0219479
        k(   22) = (   0.0555556  -0.5000000   0.1658375), wk =   0.0219479
        k(   23) = (   0.0555556  -0.5000000   0.2763958), wk =   0.0219479
        k(   24) = (   0.0555556  -0.5000000   0.3869541), wk =   0.0219479
        k(   25) = (   0.0555556  -0.5000000  -0.4975124), wk =   0.0109739
        k(   26) = (   0.1666667   0.1666667   0.0552792), wk =   0.0219479
        k(   27) = (   0.1666667   0.1666667   0.1658375), wk =   0.0219479
        k(   28) = (   0.1666667   0.1666667   0.2763958), wk =   0.0219479
        k(   29) = (   0.1666667   0.1666667   0.3869541), wk =   0.0219479
        k(   30) = (   0.1666667   0.1666667  -0.4975124), wk =   0.0109739
        k(   31) = (   0.1666667   0.2777778   0.0552792), wk =   0.0438957
        k(   32) = (   0.1666667   0.2777778   0.1658375), wk =   0.0438957
        k(   33) = (   0.1666667   0.2777778   0.2763958), wk =   0.0438957
        k(   34) = (   0.1666667   0.2777778   0.3869541), wk =   0.0438957
        k(   35) = (   0.1666667   0.2777778  -0.4975124), wk =   0.0219479
        k(   36) = (   0.1666667   0.3888889   0.0552792), wk =   0.0438957
        k(   37) = (   0.1666667   0.3888889   0.1658375), wk =   0.0438957
        k(   38) = (   0.1666667   0.3888889   0.2763958), wk =   0.0438957
        k(   39) = (   0.1666667   0.3888889   0.3869541), wk =   0.0438957
        k(   40) = (   0.1666667   0.3888889  -0.4975124), wk =   0.0219479
        k(   41) = (   0.1666667  -0.5000000   0.0552792), wk =   0.0219479
        k(   42) = (   0.1666667  -0.5000000   0.1658375), wk =   0.0219479
        k(   43) = (   0.1666667  -0.5000000   0.2763958), wk =   0.0219479
        k(   44) = (   0.1666667  -0.5000000   0.3869541), wk =   0.0219479
        k(   45) = (   0.1666667  -0.5000000  -0.4975124), wk =   0.0109739
        k(   46) = (   0.2777778   0.2777778   0.0552792), wk =   0.0219479
        k(   47) = (   0.2777778   0.2777778   0.1658375), wk =   0.0219479
        k(   48) = (   0.2777778   0.2777778   0.2763958), wk =   0.0219479
        k(   49) = (   0.2777778   0.2777778   0.3869541), wk =   0.0219479
        k(   50) = (   0.2777778   0.2777778  -0.4975124), wk =   0.0109739
        k(   51) = (   0.2777778   0.3888889   0.0552792), wk =   0.0438957
        k(   52) = (   0.2777778   0.3888889   0.1658375), wk =   0.0438957
        k(   53) = (   0.2777778   0.3888889   0.2763958), wk =   0.0438957
        k(   54) = (   0.2777778   0.3888889   0.3869541), wk =   0.0438957
        k(   55) = (   0.2777778   0.3888889  -0.4975124), wk =   0.0219479
        k(   56) = (   0.2777778  -0.5000000   0.0552792), wk =   0.0219479
        k(   57) = (   0.2777778  -0.5000000   0.1658375), wk =   0.0219479
        k(   58) = (   0.2777778  -0.5000000   0.2763958), wk =   0.0219479
        k(   59) = (   0.2777778  -0.5000000   0.3869541), wk =   0.0219479
        k(   60) = (   0.2777778  -0.5000000  -0.4975124), wk =   0.0109739
        k(   61) = (   0.3888889   0.3888889   0.0552792), wk =   0.0219479
        k(   62) = (   0.3888889   0.3888889   0.1658375), wk =   0.0219479
        k(   63) = (   0.3888889   0.3888889   0.2763958), wk =   0.0219479
        k(   64) = (   0.3888889   0.3888889   0.3869541), wk =   0.0219479
        k(   65) = (   0.3888889   0.3888889  -0.4975124), wk =   0.0109739
        k(   66) = (   0.3888889  -0.5000000   0.0552792), wk =   0.0219479
        k(   67) = (   0.3888889  -0.5000000   0.1658375), wk =   0.0219479
        k(   68) = (   0.3888889  -0.5000000   0.2763958), wk =   0.0219479
        k(   69) = (   0.3888889  -0.5000000   0.3869541), wk =   0.0219479
        k(   70) = (   0.3888889  -0.5000000  -0.4975124), wk =   0.0109739
        k(   71) = (  -0.5000000  -0.5000000   0.0552792), wk =   0.0054870
        k(   72) = (  -0.5000000  -0.5000000   0.1658375), wk =   0.0054870
        k(   73) = (  -0.5000000  -0.5000000   0.2763958), wk =   0.0054870
        k(   74) = (  -0.5000000  -0.5000000   0.3869541), wk =   0.0054870
        k(   75) = (  -0.5000000  -0.5000000  -0.4975124), wk =   0.0027435

     Dense  grid:   169813 G-vectors     FFT dimensions: (  72,  72,  72)

     Smooth grid:    91209 G-vectors     FFT dimensions: (  60,  60,  60)

     Estimated max dynamical RAM per process >      83.49 MB

     Estimated total dynamical RAM >       3.26 GB

     Check: negative/imaginary core charge=   -0.000006    0.000000

     Initial potential from superposition of free atoms

     starting charge  255.99300, renormalised to  256.00000
     Starting wfcs are  160 randomized atomic wfcs
     Checking if some PAW data can be deallocated... 

     total cpu time spent up to now is        7.5 secs

     Self-consistent Calculation

     iteration #  1     ecut=    71.00 Ry     beta= 0.10
     Davidson diagonalization with overlap
     ethr =  1.00E-02,  avg # of iterations =  3.4

     Threshold (ethr) on eigenvalues was too large:
     Diagonalizing with lowered threshold

     Davidson diagonalization with overlap
     ethr =  2.49E-04,  avg # of iterations =  3.2

     total cpu time spent up to now is       62.3 secs

     total energy              =   -5267.75300653 Ry
     Harris-Foulkes estimate   =   -5267.86785789 Ry
     estimated scf accuracy    <       0.72799312 Ry

     iteration #  2     ecut=    71.00 Ry     beta= 0.10
     Davidson diagonalization with overlap
     ethr =  2.84E-04,  avg # of iterations =  1.0

     total cpu time spent up to now is       78.6 secs

     total energy              =   -5267.62034538 Ry
     Harris-Foulkes estimate   =   -5267.76809473 Ry
     estimated scf accuracy    <       0.36063649 Ry

     iteration #  3     ecut=    71.00 Ry     beta= 0.10
     Davidson diagonalization with overlap
     ethr =  1.41E-04,  avg # of iterations =  3.2

     total cpu time spent up to now is      109.4 secs

     total energy              =   -5267.70032676 Ry
     Harris-Foulkes estimate   =   -5267.72350233 Ry
     estimated scf accuracy    <       0.55120678 Ry

     iteration #  4     ecut=    71.00 Ry     beta= 0.10
     Davidson diagonalization with overlap
     ethr =  1.41E-04,  avg # of iterations =  1.0

     total cpu time spent up to now is      125.9 secs

     total energy              =   -5267.70724335 Ry
     Harris-Foulkes estimate   =   -5267.71275742 Ry
     estimated scf accuracy    <       0.03104267 Ry

     iteration #  5     ecut=    71.00 Ry     beta= 0.10
     Davidson diagonalization with overlap
     ethr =  1.21E-05,  avg # of iterations =  1.9

     total cpu time spent up to now is      145.7 secs

     total energy              =   -5267.70629370 Ry
     Harris-Foulkes estimate   =   -5267.70913387 Ry
     estimated scf accuracy    <       0.02187663 Ry

     iteration #  6     ecut=    71.00 Ry     beta= 0.10
     Davidson diagonalization with overlap
     ethr =  8.55E-06,  avg # of iterations =  2.9

     total cpu time spent up to now is      171.9 secs

     total energy              =   -5267.70958912 Ry
     Harris-Foulkes estimate   =   -5267.70883374 Ry
     estimated scf accuracy    <       0.01105702 Ry

     iteration #  7     ecut=    71.00 Ry     beta= 0.10
     Davidson diagonalization with overlap
     ethr =  4.32E-06,  avg # of iterations =  1.1

     total cpu time spent up to now is      188.7 secs

     total energy              =   -5267.70837142 Ry
     Harris-Foulkes estimate   =   -5267.70997295 Ry
     estimated scf accuracy    <       0.01310298 Ry

     iteration #  8     ecut=    71.00 Ry     beta= 0.10
     Davidson diagonalization with overlap
     ethr =  4.32E-06,  avg # of iterations =  1.0

     total cpu time spent up to now is      205.3 secs

     total energy              =   -5267.70870100 Ry
     Harris-Foulkes estimate   =   -5267.70917347 Ry
     estimated scf accuracy    <       0.00791526 Ry

     iteration #  9     ecut=    71.00 Ry     beta= 0.10
     Davidson diagonalization with overlap
     ethr =  3.09E-06,  avg # of iterations =  2.2

     total cpu time spent up to now is      226.0 secs

     total energy              =   -5267.70907105 Ry
     Harris-Foulkes estimate   =   -5267.70908211 Ry
     estimated scf accuracy    <       0.00045996 Ry

     iteration # 10     ecut=    71.00 Ry     beta= 0.10
     Davidson diagonalization with overlap
     ethr =  1.80E-07,  avg # of iterations =  2.3

     total cpu time spent up to now is      247.5 secs

     total energy              =   -5267.70907866 Ry
     Harris-Foulkes estimate   =   -5267.70909085 Ry
     estimated scf accuracy    <       0.00020610 Ry

     iteration # 11     ecut=    71.00 Ry     beta= 0.10
     Davidson diagonalization with overlap
     ethr =  8.05E-08,  avg # of iterations =  1.0

     total cpu time spent up to now is      263.9 secs

     End of self-consistent calculation

          k = 0.0556 0.0556 0.0553 ( 11350 PWs)   bands (ev):

   -66.9007 -66.8035 -66.8030 -66.8027 -66.7872 -66.7870 -66.7866 -66.7861
   -66.7860 -66.7855 -66.7853 -66.7852 -66.7848 -66.7781 -66.7779 -66.7030
   -33.1941 -33.1941 -33.1927 -33.1910 -33.1910 -33.1897 -33.0317 -33.0257
   -33.0208 -32.9529 -32.9502 -32.9499 -32.9496 -32.9287 -32.9286 -32.9156
   -32.9152 -32.9144 -32.8785 -32.8780 -32.8541 -32.8393 -32.8391 -32.8370
   -32.8272 -32.8270 -32.8258 -32.8163 -32.8131 -32.8125 -32.8122 -32.8095
   -32.8091 -32.8038 -32.8037 -32.8017 -32.7923 -32.7923 -32.7911 -32.6303
   -32.6294 -32.6282 -32.6282 -32.6265 -32.6252 -32.6252 -32.6240 -32.6231
    11.3717  15.2297  15.2599  15.2599  15.3798  15.3815  15.3815  15.4057
    15.4076  15.4077  15.6462  15.6600  15.7421  15.7733  15.7733  17.1357
    17.2070  17.2207  17.2210  17.2292  17.2495  17.2496  17.2634  17.2635
    17.3577  17.3738  17.4125  17.6613  17.6723  17.6724  18.0517  18.0651
    18.0653  18.5294  18.5464  18.5945  18.8581  18.8581  18.8783  18.9662
    18.9662  18.9809  19.0481  19.0483  19.0707  19.1467  19.1468  19.1657
    19.8904  19.8907  19.9048  20.1065  20.1067  20.1352  20.1405  20.1406
    20.1514  20.2695  20.2695  20.2734  20.2735  20.2999  20.3083  20.3093
    20.3354  20.5548  20.5548  20.5745  20.5747  20.5901  20.5973  20.6136
    20.6141  20.6342  20.6344  21.1012  21.1014  21.1323  21.3340  21.3484
    21.4003  21.4003  21.4097  21.4152  21.8175  21.8361  21.8361  21.8439
    21.8847  21.8847

          k = 0.0556 0.0556 0.1658 ( 11357 PWs)   bands (ev):

   -66.8973 -66.8209 -66.8023 -66.8020 -66.7891 -66.7889 -66.7860 -66.7856
   -66.7853 -66.7846 -66.7845 -66.7842 -66.7786 -66.7782 -66.7695 -66.7056
   -33.1862 -33.1862 -33.1836 -33.1810 -33.1773 -33.1773 -33.0345 -33.0195
   -33.0113 -32.9894 -32.9816 -32.9815 -32.9787 -32.9780 -32.9482 -32.9480
   -32.9121 -32.8845 -32.8744 -32.8723 -32.8604 -32.8371 -32.8368 -32.8301
   -32.8219 -32.8182 -32.8169 -32.8161 -32.8158 -32.8067 -32.8064 -32.8023
   -32.8020 -32.8006 -32.8005 -32.7675 -32.7670 -32.7668 -32.7576 -32.6459
   -32.6376 -32.6376 -32.6372 -32.6348 -32.6289 -32.6283 -32.6283 -32.6263
    11.5082  14.6005  15.3152  15.3153  15.3914  15.3915  15.4720  15.4720
    15.4793  15.5038  15.7077  15.7241  15.8155  15.8155  16.0788  17.0232
    17.1352  17.1369  17.1904  17.2030  17.2515  17.2739  17.2994  17.2994
    17.3406  17.3407  17.5642  17.5769  17.6263  17.6265  17.9646  17.9648
    18.4039  18.5166  18.5258  18.6589  18.6590  18.6619  18.7275  18.8370
    18.8370  18.8805  19.1296  19.1297  19.2445  19.2446  19.3057  19.4065
    19.5741  19.5743  19.6636  19.8617  19.8620  19.8972  20.0608  20.1202
    20.1205  20.2145  20.2146  20.2270  20.3024  20.3025  20.3277  20.3536
    20.3626  20.3630  20.3631  20.3965  20.5927  20.5958  20.5962  20.6321
    20.6324  20.8114  20.8983  20.8984  21.0468  21.1632  21.2789  21.4017
    21.4076  21.4076  21.4369  21.4371  21.7396  21.7397  21.9280  21.9280
    21.9984  21.9985

          k = 0.0556 0.0556 0.2764 ( 11377 PWs)   bands (ev):

   -66.8907 -66.8380 -66.8009 -66.8006 -66.7914 -66.7912 -66.7852 -66.7851
   -66.7849 -66.7840 -66.7840 -66.7835 -66.7797 -66.7790 -66.7541 -66.7107
   -33.1681 -33.1681 -33.1660 -33.1640 -33.1537 -33.1537 -33.0352 -33.0309
   -33.0252 -33.0232 -33.0231 -33.0069 -33.0012 -32.9965 -32.9921 -32.9920
   -32.9061 -32.8975 -32.8939 -32.8801 -32.8348 -32.8345 -32.8327 -32.8307
   -32.8279 -32.8201 -32.8198 -32.8048 -32.8045 -32.8022 -32.8018 -32.7844
   -32.7768 -32.7657 -32.7656 -32.7350 -32.7338 -32.7337 -32.7258 -32.6709
   -32.6531 -32.6531 -32.6525 -32.6509 -32.6404 -32.6378 -32.6378 -32.6355
    11.7773  13.9272  15.4005  15.4006  15.4278  15.4279  15.5695  15.5696
    15.6705  15.6921  15.8212  15.8510  15.8641  15.8642  16.2259  16.8562
    16.9004  16.9070  17.0899  17.1367  17.1610  17.1714  17.4104  17.4104
    17.4786  17.4786  17.6165  17.6167  17.8197  17.8414  17.8956  17.8958
    18.3722  18.3722  18.4986  18.5211  18.5327  18.5327  18.5663  18.6180
    18.7573  18.9996  19.0161  19.0163  19.2305  19.2307  19.3876  19.3877
    19.4256  19.4257  19.4351  19.4669  19.5145  19.5836  19.6948  20.0836
    20.1157  20.1158  20.2129  20.2131  20.3623  20.3766  20.4162  20.4230
    20.4232  20.5613  20.5625  20.5981  20.6271  20.6292  20.6325  20.6547
    20.6548  20.6807  20.8478  20.9048  21.0327  21.0970  21.0970  21.3302
    21.4203  21.4203  21.4929  21.4930  21.6129  21.6129  22.0061  22.0061
    22.1331  22.1331

          k = 0.0556 0.0556 0.3870 ( 11401 PWs)   bands (ev):

   -66.8810 -66.8541 -66.7989 -66.7986 -66.7939 -66.7937 -66.7848 -66.7844
   -66.7840 -66.7838 -66.7836 -66.7826 -66.7810 -66.7801 -66.7403 -66.7183
   -33.1409 -33.1409 -33.1405 -33.1394 -33.1212 -33.1212 -33.0713 -33.0689
   -33.0662 -33.0662 -33.0381 -33.0380 -33.0335 -33.0177 -32.9888 -32.9771
   -32.9375 -32.9252 -32.8814 -32.8694 -32.8477 -32.8414 -32.8318 -32.8314
   -32.8240 -32.8237 -32.8034 -32.8030 -32.8023 -32.8019 -32.7860 -32.7425
   -32.7384 -32.7312 -32.7311 -32.7055 -32.7040 -32.7024 -32.7023 -32.6969
   -32.6749 -32.6749 -32.6740 -32.6740 -32.6575 -32.6535 -32.6534 -32.6511
    12.1708  13.2708  15.4720  15.4720  15.4725  15.4725  15.6865  15.6866
    15.8653  15.8654  15.9373  15.9539  15.9667  16.0378  16.2182  16.5726
    16.5829  16.5904  17.0794  17.0963  17.1259  17.1348  17.5780  17.5780
    17.6715  17.6716  17.7342  17.7344  17.9328  17.9330  18.1121  18.1121
    18.1475  18.1682  18.2275  18.2275  18.4917  18.4919  18.4938  18.5209
    18.5467  18.5547  18.6665  18.6667  18.8833  18.9958  19.0001  19.2255
    19.3033  19.6260  19.6262  19.6519  19.6520  19.8749  19.8999  19.9816
    19.9818  20.0203  20.0773  20.0774  20.4086  20.4179  20.4921  20.5148
    20.5177  20.5863  20.6049  20.6205  20.6265  20.6398  20.7034  20.7162
    20.7236  20.7237  20.8517  20.9410  20.9410  21.1320  21.1321  21.2084
    21.3847  21.3847  21.4351  21.4352  21.4980  21.4980  22.1003  22.1003
    22.2026  22.2026

          k = 0.0556 0.0556-0.4975 ( 11388 PWs)   bands (ev):

   -66.8688 -66.8685 -66.7969 -66.7963 -66.7961 -66.7961 -66.7846 -66.7841
   -66.7839 -66.7838 -66.7826 -66.7823 -66.7815 -66.7811 -66.7284 -66.7280
   -33.1083 -33.1079 -33.1079 -33.1076 -33.1062 -33.1061 -33.1060 -33.1059
   -33.0821 -33.0820 -33.0818 -33.0818 -33.0278 -33.0275 -32.9655 -32.9651
   -32.9533 -32.9530 -32.8646 -32.8643 -32.8558 -32.8555 -32.8283 -32.8279
   -32.8279 -32.8275 -32.8028 -32.8024 -32.8024 -32.8021 -32.7430 -32.7428
   -32.7058 -32.7054 -32.7041 -32.7037 -32.7005 -32.7004 -32.7002 -32.7002
   -32.6797 -32.6793 -32.6752 -32.6751 -32.6750 -32.6749 -32.6720 -32.6717
    12.6751  12.6755  15.4958  15.4958  15.4961  15.4961  15.7973  15.7974
    15.7977  15.7977  16.1134  16.1140  16.2550  16.2555  16.2632  16.2636
    16.2802  16.2805  17.0948  17.0955  17.1041  17.1047  17.7910  17.7912
    17.7914  17.7914  17.8850  17.8851  17.8852  17.8854  18.0852  18.0856
    18.0858  18.0858  18.2425  18.2428  18.2429  18.2429  18.5073  18.5077
    18.5312  18.5317  18.5419  18.5423  18.5553  18.5557  19.0400  19.0402
    19.6095  19.6101  19.8161  19.8161  19.8162  19.8165  19.8879  19.8879
    19.8880  19.8882  20.2416  20.2417  20.3683  20.3685  20.4616  20.4619
    20.4672  20.4675  20.5877  20.5881  20.6125  20.6129  20.6278  20.6281
    20.9812  20.9815  20.9815  20.9815  21.0459  21.0464  21.1911  21.1912
    21.1912  21.1913  21.4517  21.4518  21.4519  21.4520  22.1794  22.1795
    22.1796  22.1797

          k = 0.0556 0.1667 0.0553 ( 11374 PWs)   bands (ev):

   -66.8972 -66.8204 -66.8027 -66.8021 -66.7890 -66.7885 -66.7865 -66.7859
   -66.7854 -66.7850 -66.7845 -66.7839 -66.7787 -66.7783 -66.7690 -66.7056
   -33.1862 -33.1850 -33.1847 -33.1822 -33.1772 -33.1760 -33.0312 -33.0232
   -33.0116 -32.9894 -32.9805 -32.9805 -32.9785 -32.9780 -32.9471 -32.9467
   -32.9127 -32.8854 -32.8753 -32.8747 -32.8618 -32.8404 -32.8369 -32.8294
   -32.8201 -32.8185 -32.8164 -32.8162 -32.8147 -32.8104 -32.8066 -32.8055
   -32.8022 -32.7986 -32.7981 -32.7690 -32.7651 -32.7645 -32.7586 -32.6449
   -32.6388 -32.6377 -32.6361 -32.6332 -32.6297 -32.6295 -32.6282 -32.6260
    11.5096  14.6277  15.2880  15.3166  15.3907  15.3910  15.4704  15.4716
    15.4824  15.5071  15.7108  15.7229  15.7876  15.8168  16.1091  17.0296
    17.1377  17.1520  17.2309  17.2432  17.2576  17.2638  17.2815  17.2989
    17.2998  17.3410  17.5479  17.5595  17.6173  17.6265  17.9553  17.9658
    18.4151  18.5084  18.5457  18.6343  18.6477  18.6654  18.7117  18.8137
    18.8455  18.8748  19.1529  19.1544  19.2678  19.2717  19.2823  19.3849
    19.5773  19.6019  19.6463  19.8666  19.8705  19.8973  20.0248  20.1190
    20.1318  20.2080  20.2463  20.2509  20.2871  20.2926  20.3179  20.3298
    20.3419  20.3624  20.3722  20.3890  20.5765  20.6002  20.6004  20.6223
    20.6225  20.7900  20.8993  20.9240  21.0841  21.1596  21.2715  21.3582
    21.4065  21.4085  21.4351  21.4573  21.7404  21.7469  21.8649  21.9296
    21.9972  22.0189

          k = 0.0556 0.1667 0.1658 ( 11379 PWs)   bands (ev):

   -66.8940 -66.8197 -66.8191 -66.8014 -66.7939 -66.7885 -66.7879 -66.7852
   -66.7841 -66.7836 -66.7806 -66.7795 -66.7784 -66.7698 -66.7693 -66.7081
   -33.1841 -33.1776 -33.1761 -33.1695 -33.1682 -33.1579 -33.0401 -33.0165
   -33.0127 -33.0081 -33.0078 -33.0002 -32.9968 -32.9926 -32.9687 -32.9229
   -32.9086 -32.9074 -32.8739 -32.8716 -32.8713 -32.8445 -32.8346 -32.8318
   -32.8265 -32.8257 -32.8230 -32.8155 -32.8121 -32.8106 -32.8081 -32.7979
   -32.7891 -32.7774 -32.7688 -32.7685 -32.7465 -32.7345 -32.7324 -32.6666
   -32.6526 -32.6450 -32.6438 -32.6372 -32.6361 -32.6339 -32.6251 -32.6241
    11.6445  14.6772  14.7022  15.3335  15.3781  15.4918  15.4939  15.5676
    15.5706  15.5818  15.7729  15.7850  15.8678  16.1222  16.1496  16.9273
    17.0379  17.2154  17.2382  17.2643  17.2706  17.2752  17.2776  17.3145
    17.3214  17.3298  17.4450  17.5417  17.5657  17.5830  17.8587  18.2318
    18.2370  18.4597  18.5118  18.5234  18.5283  18.5605  18.7042  18.7579
    19.0558  19.0661  19.1088  19.1214  19.1569  19.2240  19.3226  19.4170
    19.4221  19.4447  19.4497  19.6136  19.6462  19.7644  19.8782  19.8914
    20.1058  20.2215  20.2350  20.2666  20.2926  20.2970  20.3169  20.3247
    20.3355  20.5050  20.5504  20.5817  20.5820  20.6008  20.6076  20.6203
    20.6218  20.7130  20.7293  20.9345  21.0336  21.0372  21.0556  21.0698
    21.1738  21.4296  21.4376  21.5612  21.6309  22.0020  22.3060  22.3175
    22.4893  22.6011

          k = 0.0556 0.1667 0.2764 ( 11391 PWs)   bands (ev):

   -66.8875 -66.8362 -66.8167 -66.8001 -66.7990 -66.7907 -66.7870 -66.7847
   -66.7836 -66.7828 -66.7808 -66.7789 -66.7773 -66.7699 -66.7549 -66.7130
   -33.1720 -33.1606 -33.1593 -33.1533 -33.1475 -33.1293 -33.0469 -33.0463
   -33.0423 -33.0318 -33.0289 -33.0278 -33.0038 -33.0030 -32.9772 -32.9543
   -32.9119 -32.9046 -32.8702 -32.8671 -32.8653 -32.8641 -32.8451 -32.8388
   -32.8354 -32.8282 -32.8250 -32.8106 -32.8093 -32.7986 -32.7901 -32.7743
   -32.7704 -32.7579 -32.7494 -32.7369 -32.7215 -32.7042 -32.7026 -32.6963
   -32.6732 -32.6573 -32.6566 -32.6523 -32.6451 -32.6438 -32.6283 -32.6274
    11.9104  14.0219  14.8333  15.2846  15.4753  15.5318  15.6676  15.6862
    15.7198  15.7536  15.8852  15.9098  15.9329  16.1833  16.2758  16.8051
    16.8841  16.9213  17.1494  17.2040  17.2342  17.2349  17.3093  17.3802
    17.4042  17.4389  17.5255  17.6086  17.7138  17.7634  17.7782  18.1071
    18.2657  18.3642  18.3803  18.4030  18.4432  18.4854  18.4959  18.6881
    18.7393  18.8930  18.9103  19.0624  19.1492  19.2206  19.2271  19.2298
    19.3268  19.3999  19.4235  19.4730  19.5008  19.6573  19.6848  19.9852
    20.1059  20.1388  20.1843  20.2116  20.2437  20.3072  20.3453  20.3804
    20.5316  20.5435  20.5456  20.6178  20.6237  20.6396  20.6486  20.6505
    20.7025  20.8226  20.8242  20.8311  20.8509  20.8761  20.9375  21.0403
    21.1474  21.3590  21.4129  21.5032  21.6266  22.1373  22.1448  22.7033
    22.8265  22.9240

          k = 0.0556 0.1667 0.3870 ( 11386 PWs)   bands (ev):

   -66.8780 -66.8518 -66.8132 -66.8041 -66.7980 -66.7932 -66.7856 -66.7843
   -66.7835 -66.7824 -66.7818 -66.7798 -66.7746 -66.7709 -66.7415 -66.7203
   -33.1505 -33.1353 -33.1350 -33.1317 -33.1175 -33.0921 -33.0855 -33.0740
   -33.0680 -33.0678 -33.0493 -33.0424 -33.0409 -33.0023 -32.9858 -32.9539
   -32.9353 -32.8975 -32.8945 -32.8625 -32.8611 -32.8559 -32.8447 -32.8426
   -32.8376 -32.8333 -32.8188 -32.8098 -32.8094 -32.7835 -32.7736 -32.7624
   -32.7368 -32.7329 -32.7268 -32.7214 -32.7080 -32.6987 -32.6965 -32.6765
   -32.6763 -32.6753 -32.6744 -32.6741 -32.6615 -32.6566 -32.6380 -32.6378
    12.2987  13.3801  14.9874  15.2226  15.5614  15.5759  15.7841  15.8761
    15.9512  15.9571  16.0100  16.0295  16.0917  16.1461  16.2754  16.5944
    16.6045  16.6088  17.1152  17.1578  17.1636  17.1878  17.4772  17.5279
    17.5439  17.5917  17.5982  17.7427  17.8230  17.9573  18.0051  18.0659
    18.1598  18.1745  18.2257  18.2476  18.3652  18.3678  18.4133  18.4383
    18.4551  18.4810  18.5583  18.6962  18.7815  18.7830  19.0513  19.4336
    19.4484  19.6058  19.6270  19.6617  19.6641  19.6812  19.8561  19.9239
    19.9729  20.0081  20.0768  20.1171  20.3048  20.3633  20.3875  20.4581
    20.4900  20.4958  20.4965  20.6159  20.6230  20.6305  20.6325  20.6755
    20.7081  20.7339  20.7695  20.8920  20.8994  20.9968  21.0339  21.1296
    21.1380  21.1405  21.3354  21.5303  21.6168  21.9645  22.3129  22.6364
    22.9958  23.1293

          k = 0.0556 0.1667-0.4975 ( 11382 PWs)   bands (ev):

   -66.8661 -66.8658 -66.8091 -66.8087 -66.7959 -66.7955 -66.7843 -66.7840
   -66.7838 -66.7836 -66.7810 -66.7806 -66.7727 -66.7723 -66.7300 -66.7296
   -33.1212 -33.1211 -33.1048 -33.1045 -33.1042 -33.1039 -33.1035 -33.1035
   -33.0816 -33.0815 -33.0492 -33.0491 -33.0478 -33.0476 -32.9629 -32.9626
   -32.9271 -32.9270 -32.8751 -32.8749 -32.8536 -32.8532 -32.8509 -32.8507
   -32.8387 -32.8383 -32.8096 -32.8092 -32.7779 -32.7775 -32.7745 -32.7744
   -32.7287 -32.7286 -32.7032 -32.7028 -32.6990 -32.6986 -32.6959 -32.6959
   -32.6828 -32.6823 -32.6745 -32.6745 -32.6545 -32.6543 -32.6541 -32.6541
    12.7953  12.7957  15.1249  15.1253  15.5954  15.5958  15.8922  15.8925
    16.0300  16.0302  16.1747  16.1752  16.2778  16.2783  16.3064  16.3068
    16.3250  16.3253  17.1283  17.1289  17.1531  17.1537  17.6846  17.6848
    17.6999  17.7002  17.7339  17.7340  17.7843  17.7847  18.1149  18.1150
    18.1502  18.1504  18.2124  18.2125  18.3292  18.3293  18.3519  18.3522
    18.3669  18.3672  18.4075  18.4079  18.4688  18.4692  19.2328  19.2329
    19.6952  19.6958  19.7269  19.7271  19.8463  19.8465  19.8903  19.8905
    19.9264  19.9266  19.9589  19.9590  20.2972  20.2974  20.4272  20.4274
    20.4409  20.4411  20.5567  20.5570  20.6159  20.6163  20.6553  20.6556
    20.7565  20.7566  20.8600  20.8601  20.9671  20.9672  21.0440  21.0440
    21.2054  21.2057  21.3640  21.3641  21.7786  21.7787  22.4932  22.4934
    23.1243  23.1245

          k = 0.0556 0.2778 0.0553 ( 11384 PWs)   bands (ev):

   -66.8906 -66.8375 -66.8012 -66.8006 -66.7914 -66.7909 -66.7856 -66.7855
   -66.7849 -66.7841 -66.7840 -66.7835 -66.7797 -66.7791 -66.7536 -66.7107
   -33.1679 -33.1672 -33.1665 -33.1650 -33.1533 -33.1522 -33.0314 -33.0310
   -33.0254 -33.0221 -33.0213 -33.0110 -33.0000 -32.9973 -32.9906 -32.9905
   -32.9088 -32.8974 -32.8954 -32.8800 -32.8388 -32.8349 -32.8314 -32.8296
   -32.8251 -32.8240 -32.8201 -32.8085 -32.8059 -32.8047 -32.8023 -32.7834
   -32.7758 -32.7640 -32.7633 -32.7364 -32.7325 -32.7316 -32.7268 -32.6706
   -32.6539 -32.6528 -32.6513 -32.6497 -32.6412 -32.6388 -32.6376 -32.6358
    11.7814  13.9501  15.3788  15.4038  15.4264  15.4286  15.5681  15.5688
    15.6760  15.6979  15.8329  15.8424  15.8454  15.8671  16.2541  16.8706
    16.9109  16.9176  17.0986  17.1481  17.1971  17.2076  17.3702  17.4116
    17.4385  17.4799  17.6086  17.6177  17.7976  17.8194  17.8878  17.8970
    18.3442  18.3774  18.4933  18.5047  18.5388  18.5391  18.5602  18.6112
    18.7366  19.0140  19.0159  19.0390  19.2303  19.2559  19.4062  19.4150
    19.4160  19.4358  19.4456  19.4517  19.4816  19.5607  19.6723  20.1091
    20.1102  20.1458  20.2068  20.2443  20.3310  20.3445  20.3983  20.4220
    20.4314  20.5612  20.5621  20.5821  20.6139  20.6156  20.6282  20.6550
    20.6618  20.6629  20.8714  20.8962  21.0210  21.0896  21.1144  21.3345
    21.3762  21.4230  21.4910  21.5026  21.6137  21.6213  21.9507  22.0110
    22.1245  22.1585

          k = 0.0556 0.2778 0.1658 ( 11397 PWs)   bands (ev):

   -66.8875 -66.8357 -66.8172 -66.8000 -66.7990 -66.7903 -66.7874 -66.7847
   -66.7834 -66.7831 -66.7808 -66.7790 -66.7773 -66.7704 -66.7544 -66.7129
   -33.1719 -33.1607 -33.1589 -33.1544 -33.1462 -33.1289 -33.0459 -33.0454
   -33.0424 -33.0309 -33.0292 -33.0277 -33.0046 -33.0022 -32.9779 -32.9530
   -32.9118 -32.9048 -32.8702 -32.8679 -32.8672 -32.8649 -32.8472 -32.8359
   -32.8354 -32.8317 -32.8223 -32.8140 -32.8113 -32.7965 -32.7902 -32.7736
   -32.7708 -32.7574 -32.7489 -32.7368 -32.7210 -32.7045 -32.7026 -32.6964
   -32.6731 -32.6573 -32.6561 -32.6513 -32.6450 -32.6447 -32.6280 -32.6280
    11.9131  14.0429  14.8128  15.2834  15.4772  15.5312  15.6657  15.6907
    15.7188  15.7589  15.8965  15.9025  15.9346  16.1625  16.3016  16.8126
    16.8933  16.9243  17.1604  17.2391  17.2469  17.2689  17.3032  17.3427
    17.4021  17.4049  17.5257  17.6096  17.6959  17.7608  17.7624  18.1023
    18.2695  18.3501  18.3813  18.4059  18.4359  18.4700  18.4945  18.6873
    18.7464  18.8864  18.9328  19.0876  19.1214  19.1988  19.2190  19.2302
    19.3154  19.4121  19.4394  19.4876  19.5204  19.6431  19.6586  19.9827
    20.1239  20.1684  20.1938  20.2430  20.2436  20.2778  20.3134  20.3668
    20.5313  20.5414  20.5429  20.6121  20.6171  20.6357  20.6368  20.6444
    20.7028  20.8072  20.8266  20.8474  20.8618  20.8819  20.9304  21.0068
    21.1601  21.3607  21.4139  21.5051  21.6269  22.1404  22.1556  22.7226
    22.7591  22.9136

          k = 0.0556 0.2778 0.2764 ( 11382 PWs)   bands (ev):

   -66.8813 -66.8328 -66.8323 -66.8068 -66.7986 -66.7896 -66.7891 -66.7843
   -66.7829 -66.7826 -66.7822 -66.7792 -66.7713 -66.7564 -66.7560 -66.7175
   -33.1657 -33.1458 -33.1445 -33.1357 -33.1343 -33.0957 -33.0624 -33.0619
   -33.0586 -33.0585 -33.0487 -33.0456 -33.0235 -32.9928 -32.9531 -32.9128
   -32.9108 -32.9098 -32.8987 -32.8983 -32.8655 -32.8547 -32.8506 -32.8458
   -32.8428 -32.8320 -32.8298 -32.8235 -32.8209 -32.8167 -32.7768 -32.7503
   -32.7410 -32.7406 -32.7349 -32.7316 -32.7285 -32.7048 -32.6979 -32.6778
   -32.6762 -32.6648 -32.6640 -32.6565 -32.6556 -32.6554 -32.6251 -32.6245
    12.1721  14.1989  14.2162  15.1226  15.5990  15.7279  15.7307  15.8497
    15.8540  15.8797  15.9933  16.0348  16.0350  16.3222  16.3418  16.7466
    16.8053  16.9973  17.0006  17.2136  17.2850  17.2949  17.3275  17.3395
    17.3709  17.4286  17.4581  17.6266  17.6521  17.7512  17.7974  18.1635
    18.1637  18.2603  18.2786  18.2818  18.3012  18.3023  18.3576  18.4616
    18.7061  18.7287  18.7675  18.7928  18.9273  18.9889  18.9963  19.0668
    19.4917  19.4941  19.5548  19.5934  19.6333  19.6519  19.8521  19.9422
    19.9521  20.1049  20.1885  20.2149  20.2153  20.2336  20.2634  20.3110
    20.3504  20.4991  20.5009  20.5096  20.6149  20.6250  20.6570  20.7071
    20.7202  20.7273  20.7729  20.7778  20.7997  20.9022  20.9130  21.0781
    21.0827  21.1204  21.4654  21.6555  21.6773  22.3697  22.7738  22.7834
    23.3762  23.3911

          k = 0.0556 0.2778 0.3870 ( 11391 PWs)   bands (ev):

   -66.8723 -66.8475 -66.8275 -66.8144 -66.7967 -66.7920 -66.7877 -66.7842
   -66.7837 -66.7829 -66.7817 -66.7799 -66.7661 -66.7585 -66.7439 -66.7243
   -33.1503 -33.1246 -33.1239 -33.1181 -33.1105 -33.0965 -33.0780 -33.0726
   -33.0710 -33.0705 -33.0679 -33.0552 -33.0512 -32.9754 -32.9602 -32.9277
   -32.9252 -32.9019 -32.8896 -32.8651 -32.8646 -32.8639 -32.8628 -32.8589
   -32.8572 -32.8497 -32.8361 -32.8207 -32.8196 -32.7951 -32.7724 -32.7650
   -32.7468 -32.7271 -32.7227 -32.7139 -32.7128 -32.7081 -32.6884 -32.6768
   -32.6756 -32.6741 -32.6706 -32.6635 -32.6550 -32.6545 -32.6280 -32.6279
    12.5492  13.5899  14.4452  14.9270  15.7180  15.7727  15.9672  15.9995
    16.0435  16.0966  16.0994  16.1213  16.2198  16.3055  16.3371  16.6092
    16.6124  16.7081  17.1865  17.2011  17.2301  17.2393  17.2700  17.4219
    17.4428  17.4798  17.5609  17.5681  17.8192  17.8927  17.9145  17.9318
    18.0437  18.1307  18.1494  18.2038  18.2202  18.2382  18.3204  18.3466
    18.3587  18.4256  18.4455  18.4593  18.5738  18.6498  19.2664  19.2866
    19.6288  19.6451  19.7146  19.7381  19.7403  19.7446  19.7499  19.8568
    19.9607  19.9960  20.0661  20.1043  20.1252  20.2537  20.2825  20.3101
    20.4037  20.4213  20.4361  20.4415  20.5473  20.6221  20.6224  20.6448
    20.6654  20.7311  20.7410  20.7657  20.7695  20.8442  20.8581  20.9278
    21.2525  21.3089  21.4540  21.6076  21.9262  22.5034  22.6532  23.1993
    23.4553  24.0846

          k = 0.0556 0.2778-0.4975 ( 11390 PWs)   bands (ev):

   -66.8610 -66.8607 -66.8216 -66.8212 -66.7946 -66.7942 -66.7862 -66.7858
   -66.7834 -66.7830 -66.7809 -66.7806 -66.7620 -66.7617 -66.7333 -66.7329
   -33.1267 -33.1267 -33.0993 -33.0992 -33.0988 -33.0987 -33.0985 -33.0984
   -33.0814 -33.0813 -33.0722 -33.0721 -33.0093 -33.0092 -32.9538 -32.9534
   -32.8950 -32.8949 -32.8844 -32.8842 -32.8783 -32.8779 -32.8551 -32.8548
   -32.8487 -32.8485 -32.8206 -32.8204 -32.8174 -32.8173 -32.7597 -32.7597
   -32.7552 -32.7548 -32.6967 -32.6963 -32.6930 -32.6927 -32.6904 -32.6903
   -32.6902 -32.6900 -32.6746 -32.6745 -32.6382 -32.6382 -32.6381 -32.6380
    13.0290  13.0294  14.6940  14.6944  15.7794  15.7798  16.0653  16.0656
    16.1941  16.1943  16.2513  16.2518  16.3126  16.3130  16.3757  16.3761
    16.4464  16.4467  17.1944  17.1950  17.2212  17.2217  17.4991  17.4995
    17.5147  17.5152  17.5333  17.5336  17.7285  17.7286  18.1063  18.1066
    18.1178  18.1179  18.1308  18.1309  18.1675  18.1677  18.1722  18.1725
    18.3283  18.3284  18.3310  18.3312  18.3887  18.3891  19.4821  19.4822
    19.6122  19.6123  19.6633  19.6635  19.8293  19.8298  19.9161  19.9162
    19.9330  19.9331  19.9630  19.9630  20.1236  20.1239  20.3602  20.3604
    20.3739  20.3741  20.5004  20.5007  20.5455  20.5456  20.6365  20.6368
    20.6585  20.6588  20.6859  20.6861  20.7765  20.7767  20.9014  20.9015
    21.3799  21.3801  21.4899  21.4900  22.2138  22.2140  22.9443  22.9445
    24.1464  24.1468

          k = 0.0556 0.3889 0.0553 ( 11387 PWs)   bands (ev):

   -66.8808 -66.8537 -66.7991 -66.7986 -66.7940 -66.7934 -66.7849 -66.7846
   -66.7841 -66.7839 -66.7835 -66.7829 -66.7812 -66.7803 -66.7398 -66.7182
   -33.1416 -33.1403 -33.1402 -33.1389 -33.1204 -33.1194 -33.0717 -33.0694
   -33.0647 -33.0640 -33.0367 -33.0361 -33.0299 -33.0151 -32.9925 -32.9783
   -32.9406 -32.9266 -32.8809 -32.8690 -32.8451 -32.8389 -32.8359 -32.8317
   -32.8280 -32.8241 -32.8073 -32.8061 -32.8034 -32.8022 -32.7867 -32.7414
   -32.7372 -32.7301 -32.7293 -32.7066 -32.7038 -32.7017 -32.7007 -32.6977
   -32.6743 -32.6737 -32.6736 -32.6733 -32.6584 -32.6538 -32.6529 -32.6516
    12.1787  13.2885  15.4578  15.4683  15.4747  15.4769  15.6831  15.6873
    15.8517  15.8688  15.9462  15.9630  15.9839  16.0324  16.2437  16.5729
    16.5979  16.6057  17.0956  17.1128  17.1565  17.1651  17.5402  17.5803
    17.6340  17.6742  17.7267  17.7378  17.9265  17.9276  18.0911  18.1133
    18.1215  18.1426  18.1969  18.2319  18.4871  18.4878  18.5080  18.5297
    18.5348  18.5633  18.6608  18.6834  18.8603  18.9656  18.9691  19.2032
    19.3252  19.6378  19.6533  19.6651  19.6824  19.8789  19.9002  19.9798
    19.9984  20.0105  20.0780  20.1098  20.3834  20.3921  20.4816  20.5056
    20.5080  20.5727  20.5894  20.6061  20.6118  20.6231  20.7001  20.7139
    20.7237  20.7282  20.8504  20.9428  20.9458  21.1225  21.1394  21.2115
    21.3846  21.3904  21.3995  21.4410  21.4918  21.5091  22.0556  22.1100
    22.1825  22.2245

          k = 0.0556 0.3889 0.1658 ( 11384 PWs)   bands (ev):

   -66.8779 -66.8515 -66.8136 -66.8043 -66.7979 -66.7929 -66.7859 -66.7841
   -66.7833 -66.7825 -66.7822 -66.7799 -66.7747 -66.7713 -66.7410 -66.7202
   -33.1500 -33.1361 -33.1336 -33.1325 -33.1160 -33.0918 -33.0845 -33.0745
   -33.0685 -33.0662 -33.0482 -33.0408 -33.0401 -33.0011 -32.9866 -32.9553
   -32.9359 -32.8995 -32.8936 -32.8621 -32.8612 -32.8534 -32.8457 -32.8448
   -32.8370 -32.8352 -32.8199 -32.8131 -32.8123 -32.7836 -32.7740 -32.7607
   -32.7359 -32.7330 -32.7261 -32.7210 -32.7079 -32.6980 -32.6961 -32.6779
   -32.6754 -32.6745 -32.6743 -32.6733 -32.6614 -32.6571 -32.6387 -32.6375
    12.3051  13.3962  14.9730  15.2186  15.5648  15.5773  15.7836  15.8733
    15.9535  15.9648  16.0184  16.0461  16.0847  16.1335  16.2990  16.6039
    16.6063  16.6212  17.1313  17.1739  17.1930  17.2163  17.4708  17.4939
    17.5456  17.5662  17.5917  17.7351  17.8256  17.9590  17.9809  18.0426
    18.1550  18.1617  18.2220  18.2274  18.3694  18.3711  18.4182  18.4435
    18.4526  18.4761  18.5749  18.6906  18.7538  18.7541  19.0406  19.4214
    19.4601  19.6156  19.6161  19.6830  19.6876  19.6927  19.8546  19.9443
    19.9498  20.0353  20.1077  20.1232  20.2974  20.3389  20.3608  20.4488
    20.4804  20.4854  20.5010  20.6081  20.6131  20.6167  20.6233  20.6858
    20.6952  20.7342  20.7532  20.8936  20.9049  20.9689  21.0315  21.1326
    21.1449  21.1456  21.3360  21.5319  21.6217  21.9742  22.3202  22.6527
    22.9407  23.1037

          k = 0.0556 0.3889 0.2764 ( 11386 PWs)   bands (ev):

   -66.8722 -66.8472 -66.8278 -66.8145 -66.7966 -66.7917 -66.7880 -66.7842
   -66.7836 -66.7827 -66.7819 -66.7800 -66.7662 -66.7588 -66.7436 -66.7242
   -33.1499 -33.1250 -33.1232 -33.1190 -33.1092 -33.0960 -33.0781 -33.0717
   -33.0714 -33.0706 -33.0677 -33.0549 -33.0505 -32.9756 -32.9594 -32.9277
   -32.9260 -32.9012 -32.8897 -32.8651 -32.8648 -32.8645 -32.8621 -32.8588
   -32.8583 -32.8526 -32.8340 -32.8232 -32.8210 -32.7936 -32.7728 -32.7651
   -32.7471 -32.7266 -32.7223 -32.7137 -32.7123 -32.7081 -32.6884 -32.6762
   -32.6761 -32.6732 -32.6704 -32.6639 -32.6557 -32.6539 -32.6282 -32.6280
    12.5529  13.6028  14.4327  14.9242  15.7193  15.7719  15.9645  16.0052
    16.0417  16.0972  16.1064  16.1282  16.2183  16.2943  16.3541  16.6159
    16.6190  16.7087  17.1967  17.1994  17.2416  17.2657  17.2947  17.4152
    17.4212  17.4557  17.5563  17.5689  17.8022  17.8922  17.8992  17.9333
    18.0440  18.1261  18.1500  18.1953  18.2216  18.2368  18.3333  18.3410
    18.3756  18.4208  18.4225  18.4371  18.5710  18.6545  19.2622  19.2797
    19.6386  19.6519  19.7053  19.7402  19.7499  19.7504  19.7609  19.8402
    19.9576  20.0076  20.0892  20.1303  20.1317  20.2597  20.2610  20.2861
    20.3980  20.4143  20.4295  20.4339  20.5353  20.6200  20.6324  20.6414
    20.6603  20.7116  20.7413  20.7575  20.7729  20.8453  20.8606  20.9342
    21.2497  21.3125  21.4537  21.6089  21.9288  22.5111  22.6571  23.2110
    23.4482  24.0187

          k = 0.0556 0.3889 0.3870 ( 11385 PWs)   bands (ev):

   -66.8639 -66.8413 -66.8409 -66.8243 -66.7948 -66.7903 -66.7900 -66.7861
   -66.7831 -66.7821 -66.7818 -66.7804 -66.7588 -66.7477 -66.7473 -66.7302
   -33.1407 -33.1102 -33.1092 -33.1015 -33.1006 -33.0993 -33.0991 -33.0839
   -33.0838 -33.0811 -33.0801 -33.0650 -33.0113 -32.9599 -32.9163 -32.9159
   -32.9137 -32.9129 -32.8992 -32.8943 -32.8842 -32.8710 -32.8691 -32.8683
   -32.8541 -32.8351 -32.8334 -32.8284 -32.8282 -32.8273 -32.8175 -32.7583
   -32.7485 -32.7229 -32.7224 -32.7053 -32.6990 -32.6960 -32.6840 -32.6817
   -32.6803 -32.6797 -32.6745 -32.6741 -32.6385 -32.6379 -32.6247 -32.6245
    12.9113  13.8817  13.8905  14.5875  15.8918  16.0339  16.0369  16.1833
    16.2021  16.2069  16.2194  16.2342  16.3412  16.3500  16.4171  16.5289
    16.5873  16.9215  16.9241  17.2380  17.2538  17.3190  17.3279  17.3395
    17.3480  17.3554  17.4373  17.5547  17.6467  17.7518  17.8622  17.9453
    17.9459  18.0285  18.0952  18.1051  18.1137  18.1301  18.1501  18.1624
    18.2823  18.2838  18.2972  18.3677  18.4062  18.9314  18.9350  19.5005
    19.6007  19.6710  19.7315  19.7402  19.8498  19.8508  19.8747  19.8832
    20.0014  20.0069  20.0314  20.1142  20.1533  20.1647  20.1696  20.1709
    20.1891  20.3546  20.3586  20.3775  20.4619  20.5510  20.5608  20.5847
    20.6384  20.6690  20.7009  20.7032  20.7392  20.7921  20.7963  20.8186
    21.4343  21.4365  21.5134  21.6189  22.3006  23.0485  23.0809  23.0858
    23.8114  23.8189

          k = 0.0556 0.3889-0.4975 ( 11392 PWs)   bands (ev):

   -66.8536 -66.8532 -66.8334 -66.8330 -66.7928 -66.7924 -66.7884 -66.7880
   -66.7827 -66.7823 -66.7813 -66.7810 -66.7526 -66.7523 -66.7382 -66.7378
   -33.1234 -33.1233 -33.0948 -33.0947 -33.0946 -33.0946 -33.0940 -33.0938
   -33.0919 -33.0916 -33.0828 -33.0826 -32.9634 -32.9633 -32.9400 -32.9397
   -32.9016 -32.9012 -32.8882 -32.8881 -32.8718 -32.8717 -32.8651 -32.8651
   -32.8609 -32.8608 -32.8464 -32.8463 -32.8323 -32.8321 -32.7925 -32.7924
   -32.7344 -32.7340 -32.7017 -32.7013 -32.6889 -32.6886 -32.6883 -32.6881
   -32.6864 -32.6862 -32.6767 -32.6766 -32.6281 -32.6281 -32.6278 -32.6278
    13.3626  13.3630  14.2306  14.2311  16.0102  16.0105  16.2726  16.2728
    16.2890  16.2893  16.3024  16.3027  16.3142  16.3145  16.4394  16.4397
    16.6571  16.6575  17.2191  17.2196  17.2609  17.2611  17.2617  17.2619
    17.3340  17.3343  17.3935  17.3939  17.7746  17.7746  17.8960  17.8961
    17.9784  17.9787  17.9811  17.9813  18.0012  18.0013  18.0430  18.0432
    18.2996  18.2998  18.3214  18.3218  18.5982  18.5984  19.2539  19.2541
    19.6677  19.6679  19.7489  19.7491  19.9249  19.9251  19.9648  19.9652
    20.0175  20.0176  20.0225  20.0226  20.0264  20.0265  20.2634  20.2635
    20.2714  20.2716  20.2968  20.2970  20.4369  20.4372  20.4891  20.4895
    20.6635  20.6638  20.7149  20.7152  20.7266  20.7269  20.8064  20.8066
    21.5064  21.5065  21.5603  21.5603  22.6932  22.6935  23.4461  23.4463
    23.6744  23.6747

          k = 0.0556-0.5000 0.0553 ( 11384 PWs)   bands (ev):

   -66.8683 -66.8683 -66.7968 -66.7966 -66.7960 -66.7959 -66.7845 -66.7844
   -66.7839 -66.7836 -66.7827 -66.7826 -66.7817 -66.7816 -66.7280 -66.7279
   -33.1089 -33.1087 -33.1086 -33.1085 -33.1050 -33.1049 -33.1041 -33.1039
   -33.0809 -33.0808 -33.0800 -33.0798 -33.0249 -33.0248 -32.9689 -32.9688
   -32.9547 -32.9545 -32.8631 -32.8629 -32.8546 -32.8544 -32.8322 -32.8321
   -32.8283 -32.8280 -32.8064 -32.8063 -32.8028 -32.8025 -32.7430 -32.7428
   -32.7044 -32.7044 -32.7028 -32.7027 -32.7001 -32.6999 -32.6990 -32.6989
   -32.6804 -32.6804 -32.6750 -32.6748 -32.6741 -32.6741 -32.6724 -32.6723
    12.6878  12.6881  15.4876  15.4878  15.5001  15.5003  15.7902  15.7904
    15.7998  15.8000  16.1350  16.1351  16.2675  16.2677  16.2757  16.2759
    16.2772  16.2776  17.1188  17.1189  17.1280  17.1281  17.7570  17.7571
    17.7945  17.7946  17.8576  17.8577  17.8880  17.8881  18.0788  18.0789
    18.0880  18.0882  18.2343  18.2344  18.2515  18.2516  18.4980  18.4982
    18.5132  18.5133  18.5271  18.5272  18.5413  18.5414  19.0166  19.0170
    19.6339  19.6341  19.8202  19.8205  19.8441  19.8443  19.8950  19.8953
    19.9201  19.9202  20.2235  20.2237  20.3485  20.3486  20.4436  20.4437
    20.4487  20.4487  20.5871  20.5872  20.5976  20.5978  20.6121  20.6122
    20.9798  20.9799  20.9832  20.9834  21.0473  21.0474  21.1933  21.1933
    21.1946  21.1948  21.4291  21.4292  21.4616  21.4618  22.1468  22.1470
    22.1952  22.1954

          k = 0.0556-0.5000 0.1658 ( 11384 PWs)   bands (ev):

   -66.8658 -66.8657 -66.8092 -66.8091 -66.7954 -66.7954 -66.7844 -66.7843
   -66.7835 -66.7834 -66.7811 -66.7810 -66.7727 -66.7727 -66.7296 -66.7296
   -33.1203 -33.1203 -33.1055 -33.1053 -33.1049 -33.1048 -33.1016 -33.1014
   -33.0798 -33.0796 -33.0482 -33.0482 -33.0468 -33.0467 -32.9635 -32.9633
   -32.9292 -32.9291 -32.8737 -32.8736 -32.8537 -32.8534 -32.8497 -32.8495
   -32.8420 -32.8419 -32.8127 -32.8126 -32.7782 -32.7780 -32.7750 -32.7749
   -32.7277 -32.7276 -32.7020 -32.7019 -32.6980 -32.6980 -32.6959 -32.6957
   -32.6826 -32.6824 -32.6745 -32.6743 -32.6558 -32.6557 -32.6532 -32.6531
    12.8064  12.8067  15.1165  15.1167  15.5985  15.5987  15.8935  15.8937
    16.0237  16.0239  16.1950  16.1951  16.2887  16.2889  16.3177  16.3179
    16.3209  16.3213  17.1513  17.1515  17.1751  17.1753  17.6588  17.6589
    17.6847  17.6848  17.7363  17.7364  17.7800  17.7801  18.1171  18.1172
    18.1454  18.1456  18.2178  18.2179  18.3223  18.3225  18.3396  18.3397
    18.3560  18.3561  18.3815  18.3817  18.4600  18.4602  19.2195  19.2198
    19.7142  19.7144  19.7297  19.7299  19.8712  19.8713  19.9184  19.9185
    19.9362  19.9364  19.9487  19.9488  20.2779  20.2781  20.4093  20.4094
    20.4213  20.4213  20.5562  20.5563  20.6072  20.6074  20.6444  20.6445
    20.7493  20.7493  20.8620  20.8622  20.9552  20.9552  21.0481  21.0483
    21.2048  21.2049  21.3669  21.3670  21.7863  21.7865  22.5053  22.5055
    23.0832  23.0834

          k = 0.0556-0.5000 0.2764 ( 11392 PWs)   bands (ev):

   -66.8607 -66.8606 -66.8216 -66.8215 -66.7942 -66.7942 -66.7862 -66.7861
   -66.7831 -66.7831 -66.7810 -66.7809 -66.7621 -66.7620 -66.7329 -66.7329
   -33.1262 -33.1262 -33.0994 -33.0992 -33.0992 -33.0991 -33.0979 -33.0977
   -33.0804 -33.0802 -33.0721 -33.0720 -33.0085 -33.0084 -32.9539 -32.9536
   -32.8962 -32.8961 -32.8831 -32.8829 -32.8784 -32.8782 -32.8575 -32.8574
   -32.8476 -32.8475 -32.8228 -32.8227 -32.8179 -32.8178 -32.7589 -32.7588
   -32.7553 -32.7551 -32.6959 -32.6958 -32.6923 -32.6923 -32.6906 -32.6904
   -32.6901 -32.6899 -32.6747 -32.6746 -32.6389 -32.6389 -32.6376 -32.6375
    13.0373  13.0376  14.6870  14.6872  15.7805  15.7807  16.0647  16.0648
    16.1889  16.1892  16.2641  16.2644  16.3205  16.3207  16.3844  16.3846
    16.4453  16.4456  17.2144  17.2145  17.2390  17.2391  17.4903  17.4904
    17.5113  17.5114  17.5165  17.5167  17.7300  17.7301  18.0836  18.0838
    18.1224  18.1226  18.1279  18.1281  18.1517  18.1518  18.1688  18.1690
    18.3277  18.3280  18.3308  18.3309  18.3835  18.3837  19.4750  19.4752
    19.6068  19.6068  19.6663  19.6666  19.8410  19.8411  19.9342  19.9342
    19.9530  19.9531  19.9708  19.9709  20.1110  20.1112  20.3456  20.3457
    20.3575  20.3576  20.5009  20.5010  20.5427  20.5427  20.6329  20.6331
    20.6486  20.6487  20.6801  20.6803  20.7778  20.7779  20.9044  20.9046
    21.3785  21.3785  21.4923  21.4924  22.2190  22.2192  22.9522  22.9524
    24.1420  24.1423

          k = 0.0556-0.5000 0.3870 ( 11412 PWs)   bands (ev):

   -66.8533 -66.8533 -66.8334 -66.8333 -66.7925 -66.7925 -66.7883 -66.7883
   -66.7825 -66.7824 -66.7812 -66.7811 -66.7526 -66.7526 -66.7379 -66.7379
   -33.1233 -33.1232 -33.0949 -33.0948 -33.0946 -33.0944 -33.0941 -33.0939
   -33.0924 -33.0923 -33.0821 -33.0819 -32.9634 -32.9634 -32.9400 -32.9397
   -32.9015 -32.9013 -32.8872 -32.8871 -32.8730 -32.8729 -32.8655 -32.8654
   -32.8616 -32.8615 -32.8458 -32.8457 -32.8333 -32.8332 -32.7921 -32.7920
   -32.7344 -32.7342 -32.7015 -32.7014 -32.6885 -32.6884 -32.6879 -32.6878
   -32.6866 -32.6865 -32.6769 -32.6768 -32.6282 -32.6282 -32.6278 -32.6277
    13.3670  13.3673  14.2265  14.2267  16.0097  16.0098  16.2707  16.2709
    16.2857  16.2860  16.3073  16.3076  16.3177  16.3180  16.4441  16.4443
    16.6581  16.6582  17.2173  17.2174  17.2696  17.2697  17.2734  17.2735
    17.3299  17.3300  17.3849  17.3850  17.7751  17.7752  17.8834  17.8836
    17.9714  17.9716  17.9829  17.9832  18.0013  18.0014  18.0437  18.0439
    18.2990  18.2992  18.3196  18.3198  18.5999  18.6000  19.2517  19.2517
    19.6704  19.6707  19.7460  19.7462  19.9192  19.9194  19.9690  19.9691
    20.0205  20.0206  20.0316  20.0317  20.0366  20.0366  20.2552  20.2553
    20.2623  20.2624  20.2987  20.2988  20.4385  20.4386  20.4815  20.4816
    20.6624  20.6625  20.7127  20.7129  20.7274  20.7276  20.8080  20.8082
    21.5054  21.5054  21.5615  21.5615  22.6959  22.6962  23.4499  23.4501
    23.6720  23.6723

          k = 0.0556-0.5000-0.4975 ( 11412 PWs)   bands (ev):

   -66.8444 -66.8442 -66.8440 -66.8438 -66.7908 -66.7906 -66.7904 -66.7902
   -66.7821 -66.7819 -66.7817 -66.7814 -66.7448 -66.7446 -66.7444 -66.7442
   -33.1124 -33.1124 -33.1123 -33.1123 -33.0927 -33.0924 -33.0924 -33.0922
   -33.0863 -33.0861 -33.0861 -33.0859 -32.9227 -32.9223 -32.9221 -32.9220
   -32.9149 -32.9149 -32.9145 -32.9143 -32.8839 -32.8838 -32.8838 -32.8838
   -32.8413 -32.8413 -32.8412 -32.8412 -32.8268 -32.8267 -32.8263 -32.8262
   -32.7168 -32.7163 -32.7161 -32.7160 -32.6858 -32.6858 -32.6857 -32.6855
   -32.6818 -32.6818 -32.6817 -32.6815 -32.6246 -32.6245 -32.6245 -32.6245
    13.7735  13.7739  13.7740  13.7742  16.2152  16.2154  16.2155  16.2158
    16.3198  16.3202  16.3202  16.3204  16.4230  16.4232  16.4232  16.4235
    16.9245  16.9248  16.9251  16.9251  17.2601  17.2602  17.2603  17.2604
    17.3081  17.3082  17.3082  17.3084  17.8663  17.8664  17.8664  17.8667
    17.8672  17.8674  17.8675  17.8676  17.9555  17.9555  17.9556  17.9558
    18.2894  18.2895  18.2896  18.2900  18.9103  18.9105  18.9107  18.9109
    19.7591  19.7592  19.7593  19.7598  20.0161  20.0163  20.0165  20.0166
    20.0471  20.0473  20.0473  20.0474  20.1455  20.1457  20.1457  20.1458
    20.1484  20.1485  20.1486  20.1487  20.4153  20.4154  20.4156  20.4159
    20.6922  20.6926  20.6928  20.6928  20.7499  20.7502  20.7503  20.7504
    21.5672  21.5672  21.5674  21.5674  23.1862  23.1866  23.1866  23.1868
    23.9563  23.9564

          k = 0.1667 0.1667 0.0553 ( 11384 PWs)   bands (ev):

   -66.8939 -66.8192 -66.8190 -66.8019 -66.7934 -66.7886 -66.7883 -66.7856
   -66.7843 -66.7840 -66.7802 -66.7796 -66.7785 -66.7694 -66.7691 -66.7081
   -33.1827 -33.1775 -33.1774 -33.1694 -33.1694 -33.1567 -33.0363 -33.0218
   -33.0127 -33.0070 -33.0068 -32.9996 -32.9957 -32.9929 -32.9678 -32.9233
   -32.9079 -32.9074 -32.8755 -32.8751 -32.8744 -32.8428 -32.8324 -32.8319
   -32.8300 -32.8232 -32.8228 -32.8123 -32.8120 -32.8103 -32.8066 -32.8017
   -32.7888 -32.7755 -32.7717 -32.7714 -32.7448 -32.7328 -32.7326 -32.6657
   -32.6538 -32.6439 -32.6439 -32.6360 -32.6360 -32.6350 -32.6263 -32.6233
    11.6459  14.7034  14.7035  15.3347  15.3523  15.4936  15.4936  15.5703
    15.5703  15.5802  15.7715  15.7884  15.8416  16.1507  16.1507  16.9331
    17.0474  17.2214  17.2710  17.2711  17.2781  17.2781  17.2800  17.3150
    17.3150  17.3417  17.4035  17.5276  17.5592  17.5666  17.8522  18.2405
    18.2408  18.4417  18.5005  18.5006  18.5397  18.5766  18.7199  18.7454
    19.0353  19.0357  19.1305  19.1306  19.1807  19.2338  19.3390  19.4183
    19.4183  19.4412  19.4414  19.6163  19.6163  19.8012  19.8759  19.8763
    20.1386  20.2320  20.2320  20.2503  20.2885  20.2885  20.3040  20.3100
    20.3534  20.5086  20.5639  20.5965  20.5967  20.6000  20.6009  20.6010
    20.6012  20.7085  20.7088  20.9310  21.0334  21.0337  21.0702  21.0702
    21.1675  21.3918  21.4341  21.5647  21.6406  21.9435  22.3060  22.3062
    22.5266  22.6761

          k = 0.1667 0.1667 0.1658 ( 11370 PWs)   bands (ev):

   -66.8907 -66.8184 -66.8180 -66.8177 -66.7933 -66.7931 -66.7927 -66.7812
   -66.7804 -66.7802 -66.7797 -66.7777 -66.7700 -66.7697 -66.7693 -66.7104
   -33.1753 -33.1753 -33.1739 -33.1516 -33.1516 -33.1505 -33.0343 -33.0331
   -33.0295 -33.0245 -33.0243 -33.0243 -32.9772 -32.9716 -32.9714 -32.9310
   -32.9306 -32.9299 -32.8805 -32.8805 -32.8785 -32.8382 -32.8346 -32.8343
   -32.8266 -32.8256 -32.8091 -32.8089 -32.8073 -32.8059 -32.8024 -32.8021
   -32.7726 -32.7726 -32.7714 -32.7640 -32.7175 -32.7175 -32.7162 -32.6872
   -32.6575 -32.6563 -32.6563 -32.6343 -32.6329 -32.6329 -32.6303 -32.6293
    11.7795  14.7580  14.7818  14.7819  15.4403  15.4405  15.4405  15.6746
    15.6775  15.6776  15.8350  15.8481  16.1770  16.2027  16.2028  16.8480
    17.1484  17.1489  17.2404  17.2451  17.2452  17.2609  17.3002  17.3002
    17.3705  17.4092  17.4092  17.4218  17.4904  17.5124  18.0830  18.0872
    18.0874  18.4301  18.4339  18.4340  18.4496  18.4532  18.8636  18.8638
    18.8681  18.8789  19.0501  19.0501  19.0744  19.2349  19.2349  19.2352
    19.4441  19.4442  19.4773  19.5073  19.5074  19.5279  20.0768  20.0771
    20.0870  20.1426  20.1426  20.1731  20.2504  20.2819  20.2918  20.2918
    20.3258  20.5533  20.5535  20.5669  20.5792  20.5808  20.5964  20.6000
    20.6587  20.7084  20.7084  20.7094  21.0324  21.0665  21.0665  21.2626
    21.2628  21.2798  21.2891  21.2991  22.0096  22.0098  22.0162  22.7198
    22.7924  22.7924

          k = 0.1667 0.1667 0.2764 ( 11394 PWs)   bands (ev):

   -66.8844 -66.8345 -66.8156 -66.8154 -66.7983 -66.7981 -66.7915 -66.7832
   -66.7794 -66.7776 -66.7772 -66.7769 -66.7702 -66.7700 -66.7556 -66.7152
   -33.1636 -33.1636 -33.1566 -33.1385 -33.1249 -33.1248 -33.0552 -33.0529
   -33.0529 -33.0453 -33.0417 -33.0182 -33.0166 -32.9672 -32.9670 -32.9545
   -32.9488 -32.9133 -32.8878 -32.8807 -32.8806 -32.8538 -32.8463 -32.8459
   -32.8394 -32.8341 -32.8130 -32.7944 -32.7941 -32.7817 -32.7789 -32.7788
   -32.7746 -32.7744 -32.7388 -32.7381 -32.7183 -32.6959 -32.6958 -32.6900
   -32.6736 -32.6736 -32.6651 -32.6503 -32.6411 -32.6359 -32.6359 -32.6303
    12.0425  14.1188  14.9208  14.9208  15.3954  15.3954  15.6439  15.8141
    15.8142  15.8542  15.9515  15.9657  16.2575  16.2576  16.3386  16.7632
    16.9228  16.9764  17.1165  17.2266  17.2550  17.2551  17.3142  17.3457
    17.3785  17.3785  17.5413  17.5532  17.5533  17.7324  17.9456  17.9458
    18.2277  18.2583  18.2583  18.3537  18.3718  18.4090  18.6141  18.6142
    18.6188  18.6189  18.8697  18.9851  18.9853  19.0257  19.0305  19.0752
    19.3511  19.4521  19.4522  19.5936  19.5936  19.7801  19.8569  20.0340
    20.0341  20.1343  20.2325  20.2325  20.2354  20.3312  20.3426  20.3429
    20.3494  20.3497  20.5380  20.5410  20.5720  20.5946  20.6058  20.6058
    20.6109  20.8059  20.8766  20.8766  20.9034  20.9873  21.0563  21.0679
    21.0679  21.3352  21.3465  21.3466  21.7467  21.7469  22.6421  22.9866
    22.9866  23.3962

          k = 0.1667 0.1667 0.3870 ( 11398 PWs)   bands (ev):

   -66.8751 -66.8496 -66.8122 -66.8120 -66.8033 -66.8031 -66.7897 -66.7854
   -66.7788 -66.7777 -66.7747 -66.7744 -66.7712 -66.7709 -66.7426 -66.7222
   -33.1435 -33.1435 -33.1315 -33.1212 -33.0910 -33.0909 -33.0850 -33.0849
   -33.0779 -33.0611 -33.0527 -33.0517 -33.0091 -33.0090 -32.9979 -32.9454
   -32.9289 -32.9244 -32.8760 -32.8757 -32.8752 -32.8708 -32.8578 -32.8575
   -32.8429 -32.8347 -32.8217 -32.7874 -32.7870 -32.7776 -32.7773 -32.7560
   -32.7487 -32.7486 -32.7403 -32.7149 -32.7077 -32.6951 -32.6951 -32.6774
   -32.6745 -32.6744 -32.6739 -32.6672 -32.6584 -32.6437 -32.6436 -32.6368
    12.4260  13.4904  15.0852  15.0852  15.3339  15.3339  15.9300  15.9704
    15.9704  16.0985  16.1000  16.1381  16.2365  16.2366  16.3455  16.6137
    16.6250  16.6398  17.1190  17.1848  17.2313  17.2520  17.3908  17.3909
    17.5075  17.5076  17.7138  17.7138  17.8220  17.8301  17.8303  17.9965
    18.1324  18.1324  18.2120  18.2122  18.2993  18.3042  18.3138  18.3455
    18.3456  18.3814  18.5313  18.5314  18.5829  18.5950  19.2061  19.3291
    19.5459  19.6261  19.6922  19.6922  19.6983  19.6983  19.9175  19.9176
    19.9681  19.9812  20.0806  20.1092  20.1092  20.3139  20.3833  20.4270
    20.4752  20.4911  20.5786  20.5904  20.5906  20.5912  20.6380  20.6512
    20.6798  20.6799  20.7468  20.8005  21.0571  21.0572  21.0779  21.1076
    21.1076  21.3076  21.3190  21.3191  21.4910  21.4911  23.2138  23.2138
    23.3314  23.4984

          k = 0.1667 0.1667-0.4975 ( 11420 PWs)   bands (ev):

   -66.8636 -66.8632 -66.8084 -66.8079 -66.8077 -66.8077 -66.7878 -66.7875
   -66.7784 -66.7780 -66.7731 -66.7726 -66.7723 -66.7723 -66.7316 -66.7312
   -33.1166 -33.1166 -33.1165 -33.1165 -33.1007 -33.1004 -33.0994 -33.0991
   -33.0551 -33.0549 -33.0516 -33.0514 -33.0512 -33.0512 -32.9741 -32.9738
   -32.9010 -32.9008 -32.8993 -32.8991 -32.8681 -32.8679 -32.8679 -32.8676
   -32.8303 -32.8300 -32.7983 -32.7983 -32.7819 -32.7815 -32.7815 -32.7812
   -32.7208 -32.7207 -32.7204 -32.7203 -32.7044 -32.7040 -32.6942 -32.6939
   -32.6812 -32.6807 -32.6568 -32.6568 -32.6567 -32.6567 -32.6496 -32.6495
    12.9156  12.9160  15.2319  15.2319  15.2323  15.2323  16.1246  16.1247
    16.1249  16.1249  16.2468  16.2474  16.2735  16.2739  16.3601  16.3604
    16.3715  16.3719  17.1449  17.1455  17.2106  17.2111  17.6460  17.6463
    17.6465  17.6467  17.6718  17.6720  17.6722  17.6723  18.1191  18.1192
    18.1194  18.1194  18.1741  18.1745  18.2229  18.2231  18.2231  18.2232
    18.2871  18.2873  18.2917  18.2921  18.3481  18.3485  19.4070  19.4071
    19.6380  19.6380  19.7643  19.7648  19.8013  19.8014  19.8014  19.8016
    19.9258  19.9258  19.9259  19.9260  20.3976  20.3978  20.4108  20.4110
    20.4357  20.4359  20.5291  20.5295  20.5852  20.5856  20.6940  20.6942
    20.6988  20.6990  20.6990  20.6992  21.2134  21.2135  21.2135  21.2136
    21.2172  21.2175  21.2550  21.2552  21.2553  21.2553  23.4104  23.4104
    23.4106  23.4106

          k = 0.1667 0.2778 0.0553 ( 11387 PWs)   bands (ev):

   -66.8874 -66.8357 -66.8166 -66.8005 -66.7985 -66.7908 -66.7874 -66.7852
   -66.7837 -66.7832 -66.7809 -66.7790 -66.7768 -66.7699 -66.7544 -66.7129
   -33.1703 -33.1605 -33.1602 -33.1542 -33.1472 -33.1278 -33.0451 -33.0426
   -33.0423 -33.0310 -33.0291 -33.0264 -33.0095 -33.0019 -32.9761 -32.9527
   -32.9119 -32.9088 -32.8716 -32.8704 -32.8655 -32.8641 -32.8445 -32.8396
   -32.8358 -32.8282 -32.8223 -32.8106 -32.8090 -32.7969 -32.7936 -32.7739
   -32.7730 -32.7571 -32.7477 -32.7394 -32.7198 -32.7031 -32.7029 -32.6958
   -32.6740 -32.6562 -32.6559 -32.6509 -32.6465 -32.6434 -32.6293 -32.6272
    11.9145  14.0442  14.8367  15.2879  15.4548  15.5306  15.6665  15.6907
    15.7185  15.7589  15.8879  15.9125  15.9131  16.1854  16.3021  16.8177
    16.9014  16.9253  17.1589  17.2397  17.2488  17.2697  17.3112  17.3645
    17.3816  17.4407  17.5208  17.5689  17.6909  17.7554  17.7587  18.1052
    18.2448  18.3708  18.3713  18.3847  18.4362  18.4914  18.5225  18.7091
    18.7130  18.8763  18.9089  19.0613  19.1215  19.1994  19.2440  19.2485
    19.2990  19.4265  19.4376  19.4917  19.5225  19.6400  19.6725  20.0140
    20.1347  20.1373  20.1820  20.2121  20.2787  20.2789  20.3167  20.3595
    20.5293  20.5506  20.5521  20.5975  20.6026  20.6277  20.6307  20.6617
    20.6982  20.8006  20.8274  20.8377  20.8475  20.8774  20.9278  21.0413
    21.1389  21.3617  21.4174  21.4668  21.6338  22.0893  22.1448  22.6975
    22.8333  22.9607

          k = 0.1667 0.2778 0.1658 ( 11397 PWs)   bands (ev):

   -66.8843 -66.8340 -66.8160 -66.8154 -66.7983 -66.7978 -66.7919 -66.7832
   -66.7798 -66.7777 -66.7772 -66.7766 -66.7706 -66.7700 -66.7552 -66.7151
   -33.1635 -33.1621 -33.1579 -33.1395 -33.1246 -33.1236 -33.0550 -33.0521
   -33.0515 -33.0426 -33.0412 -33.0198 -33.0184 -32.9665 -32.9661 -32.9545
   -32.9485 -32.9155 -32.8881 -32.8828 -32.8799 -32.8508 -32.8501 -32.8461
   -32.8408 -32.8342 -32.8104 -32.7974 -32.7942 -32.7807 -32.7784 -32.7774
   -32.7763 -32.7743 -32.7391 -32.7386 -32.7183 -32.6953 -32.6943 -32.6912
   -32.6745 -32.6733 -32.6640 -32.6494 -32.6418 -32.6369 -32.6356 -32.6303
    12.0451  14.1393  14.9013  14.9229  15.3943  15.3972  15.6468  15.8115
    15.8134  15.8597  15.9546  15.9667  16.2376  16.2586  16.3633  16.7699
    16.9249  16.9916  17.1249  17.2519  17.2566  17.2615  17.3411  17.3477
    17.3612  17.3793  17.5173  17.5202  17.5548  17.7124  17.9411  17.9415
    18.2290  18.2506  18.2681  18.3397  18.3564  18.4255  18.6007  18.6173
    18.6201  18.6395  18.8448  18.9840  18.9999  19.0122  19.0193  19.0604
    19.3606  19.4583  19.4662  19.6041  19.6140  19.7580  19.8448  20.0333
    20.0604  20.1566  20.2094  20.2371  20.2670  20.3119  20.3253  20.3271
    20.3487  20.3519  20.5426  20.5434  20.5587  20.5838  20.5933  20.5974
    20.6128  20.8282  20.8726  20.8780  20.9043  20.9689  21.0400  21.0446
    21.0687  21.3425  21.3433  21.3587  21.7488  21.7520  22.6348  22.9249
    22.9909  23.3874

          k = 0.1667 0.2778 0.2764 ( 11389 PWs)   bands (ev):

   -66.8783 -66.8311 -66.8307 -66.8131 -66.8058 -66.7966 -66.7962 -66.7860
   -66.7769 -66.7768 -66.7764 -66.7714 -66.7705 -66.7571 -66.7566 -66.7196
   -33.1571 -33.1472 -33.1457 -33.1167 -33.1157 -33.0939 -33.0674 -33.0656
   -33.0656 -33.0654 -33.0517 -33.0278 -33.0143 -32.9909 -32.9599 -32.9284
   -32.9258 -32.9249 -32.9150 -32.9140 -32.8924 -32.8688 -32.8655 -32.8640
   -32.8193 -32.8097 -32.8081 -32.8029 -32.8004 -32.7796 -32.7793 -32.7645
   -32.7544 -32.7519 -32.7418 -32.7415 -32.7202 -32.6946 -32.6837 -32.6766
   -32.6757 -32.6733 -32.6718 -32.6514 -32.6504 -32.6485 -32.6328 -32.6306
    12.3019  14.3004  14.3172  15.0779  15.2387  15.6083  15.6090  15.9728
    15.9873  15.9923  16.0623  16.0867  16.3616  16.4078  16.4274  16.7370
    16.9166  16.9756  16.9765  17.1804  17.2028  17.2997  17.3329  17.3944
    17.4118  17.4306  17.4328  17.4601  17.7032  17.7174  17.7879  18.0551
    18.0606  18.1484  18.1929  18.2064  18.2555  18.2785  18.3552  18.4248
    18.4817  18.5021  18.6271  18.6535  18.6981  18.7704  18.7776  19.2097
    19.5558  19.5585  19.5954  19.7146  19.7846  19.8050  19.9277  19.9765
    20.1211  20.1327  20.1393  20.1433  20.1445  20.2170  20.2531  20.2839
    20.3107  20.5076  20.5090  20.5120  20.5455  20.5785  20.5852  20.5902
    20.6053  20.7734  20.7927  20.9029  20.9301  21.0411  21.0449  21.0606
    21.0743  21.1593  21.3285  21.4296  21.4306  22.2937  22.2990  23.2571
    23.9633  24.0396

          k = 0.1667 0.2778 0.3870 ( 11399 PWs)   bands (ev):

   -66.8695 -66.8454 -66.8259 -66.8132 -66.8099 -66.8014 -66.7941 -66.7888
   -66.7765 -66.7761 -66.7745 -66.7714 -66.7664 -66.7590 -66.7449 -66.7261
   -33.1423 -33.1298 -33.1223 -33.1049 -33.0937 -33.0883 -33.0854 -33.0799
   -33.0712 -33.0628 -33.0591 -33.0563 -33.0221 -32.9973 -32.9693 -32.9457
   -32.9437 -32.9078 -32.9001 -32.8944 -32.8930 -32.8812 -32.8806 -32.8789
   -32.8393 -32.8177 -32.8095 -32.7929 -32.7916 -32.7831 -32.7778 -32.7664
   -32.7473 -32.7321 -32.7307 -32.7193 -32.7118 -32.7040 -32.6906 -32.6817
   -32.6727 -32.6720 -32.6646 -32.6564 -32.6547 -32.6539 -32.6354 -32.6330
    12.6753  13.7023  14.5525  15.0444  15.2648  15.5477  15.9049  16.1375
    16.1471  16.1975  16.2224  16.2610  16.3922  16.4027  16.4276  16.6293
    16.6585  16.7108  17.1624  17.1748  17.2492  17.2615  17.2993  17.3367
    17.4438  17.5378  17.5524  17.6045  17.6758  17.8115  17.8653  17.8710
    17.9821  18.0312  18.0998  18.1250  18.1525  18.1907  18.2133  18.2300
    18.2635  18.2698  18.3066  18.3089  18.3881  18.4770  18.9951  19.4232
    19.6176  19.7068  19.7762  19.7800  19.7815  19.8229  19.8434  19.8989
    20.0246  20.0357  20.0579  20.1308  20.1354  20.2454  20.3286  20.3770
    20.4261  20.4416  20.4520  20.5359  20.5792  20.5828  20.6051  20.6354
    20.6439  20.6534  20.6602  20.7583  20.8615  20.9603  21.0727  21.1326
    21.1847  21.2054  21.3332  21.3635  21.4232  21.9693  22.9059  23.5685
    24.0533  24.1739

          k = 0.1667 0.2778-0.4975 ( 11404 PWs)   bands (ev):

   -66.8586 -66.8582 -66.8202 -66.8198 -66.8061 -66.8057 -66.7918 -66.7914
   -66.7764 -66.7760 -66.7729 -66.7725 -66.7625 -66.7621 -66.7347 -66.7344
   -33.1205 -33.1205 -33.1081 -33.1080 -33.0929 -33.0928 -33.0925 -33.0925
   -33.0699 -33.0698 -33.0559 -33.0557 -33.0138 -33.0137 -32.9740 -32.9737
   -32.9192 -32.9190 -32.8962 -32.8959 -32.8894 -32.8892 -32.8702 -32.8701
   -32.8355 -32.8355 -32.8151 -32.8149 -32.7875 -32.7872 -32.7559 -32.7555
   -32.7474 -32.7474 -32.7091 -32.7090 -32.7003 -32.6999 -32.6911 -32.6908
   -32.6861 -32.6857 -32.6621 -32.6620 -32.6432 -32.6431 -32.6407 -32.6406
    13.1495  13.1499  14.8079  14.8083  15.4336  15.4340  16.2601  16.2606
    16.2905  16.2908  16.2988  16.2990  16.3370  16.3374  16.4705  16.4708
    16.4716  16.4719  17.2016  17.2022  17.2744  17.2748  17.4553  17.4557
    17.4692  17.4697  17.5700  17.5702  17.6881  17.6882  17.9104  17.9108
    18.0433  18.0436  18.0788  18.0788  18.0854  18.0857  18.1307  18.1309
    18.1858  18.1860  18.2006  18.2007  18.2579  18.2582  19.2811  19.2811
    19.6535  19.6536  19.7942  19.7944  19.8794  19.8799  19.9251  19.9252
    19.9707  19.9708  19.9760  19.9761  20.3498  20.3500  20.3530  20.3532
    20.3884  20.3886  20.4793  20.4797  20.5721  20.5724  20.5803  20.5807
    20.6681  20.6684  20.7236  20.7238  20.8581  20.8583  21.0284  21.0285
    21.2859  21.2861  21.3413  21.3413  21.6524  21.6527  23.5355  23.5359
    23.8593  23.8595

          k = 0.1667 0.3889 0.0553 ( 11373 PWs)   bands (ev):

   -66.8778 -66.8514 -66.8131 -66.8037 -66.7984 -66.7934 -66.7859 -66.7846
   -66.7837 -66.7825 -66.7822 -66.7799 -66.7742 -66.7708 -66.7410 -66.7201
   -33.1486 -33.1360 -33.1345 -33.1324 -33.1169 -33.0904 -33.0833 -33.0744
   -33.0684 -33.0669 -33.0459 -33.0413 -33.0386 -33.0007 -32.9912 -32.9533
   -32.9400 -32.8972 -32.8936 -32.8656 -32.8621 -32.8533 -32.8491 -32.8426
   -32.8354 -32.8334 -32.8189 -32.8099 -32.8095 -32.7869 -32.7772 -32.7612
   -32.7357 -32.7323 -32.7258 -32.7199 -32.7101 -32.6988 -32.6951 -32.6765
   -32.6759 -32.6740 -32.6733 -32.6730 -32.6631 -32.6560 -32.6385 -32.6378
    12.3065  13.3974  14.9927  15.2277  15.5477  15.5726  15.7813  15.8757
    15.9384  15.9652  16.0188  16.0407  16.0921  16.1480  16.2986  16.6060
    16.6092  16.6247  17.1308  17.1743  17.1936  17.2172  17.4830  17.5066
    17.5304  17.5888  17.6019  17.7404  17.7866  17.9275  17.9792  18.0407
    18.1650  18.1754  18.2415  18.2480  18.3432  18.3458  18.3829  18.4324
    18.4687  18.5038  18.5530  18.7145  18.7537  18.7537  19.0328  19.4159
    19.4695  19.6030  19.6284  19.6758  19.6771  19.7118  19.8818  19.9505
    19.9589  20.0103  20.0823  20.1531  20.2901  20.3429  20.3667  20.4466
    20.4875  20.4930  20.4941  20.5951  20.6017  20.6109  20.6179  20.6858
    20.6860  20.7210  20.7756  20.8798  20.8820  20.9993  21.0328  21.1264
    21.1320  21.1437  21.3389  21.5361  21.5941  21.9617  22.2773  22.6226
    23.0090  23.1589

          k = 0.1667 0.3889 0.1658 ( 11395 PWs)   bands (ev):

   -66.8750 -66.8493 -66.8125 -66.8119 -66.8034 -66.8028 -66.7901 -66.7855
   -66.7791 -66.7779 -66.7747 -66.7742 -66.7714 -66.7709 -66.7422 -66.7221
   -33.1431 -33.1417 -33.1325 -33.1221 -33.0902 -33.0894 -33.0841 -33.0832
   -33.0781 -33.0617 -33.0505 -33.0503 -33.0080 -33.0078 -33.0010 -32.9478
   -32.9294 -32.9233 -32.8792 -32.8757 -32.8725 -32.8717 -32.8615 -32.8577
   -32.8434 -32.8347 -32.8199 -32.7903 -32.7873 -32.7800 -32.7775 -32.7559
   -32.7483 -32.7473 -32.7393 -32.7143 -32.7086 -32.6955 -32.6945 -32.6762
   -32.6742 -32.6732 -32.6728 -32.6682 -32.6592 -32.6443 -32.6430 -32.6372
    12.4324  13.5062  15.0715  15.0893  15.3305  15.3378  15.9364  15.9680
    15.9687  16.1073  16.1148  16.1328  16.2247  16.2374  16.3680  16.6243
    16.6253  16.6536  17.1343  17.2142  17.2477  17.2793  17.3883  17.3954
    17.4728  17.5091  17.6861  17.7188  17.7968  17.8111  17.8281  17.9736
    18.1337  18.1359  18.2054  18.2234  18.2796  18.2998  18.3131  18.3243
    18.3466  18.3937  18.5280  18.5504  18.5538  18.5698  19.1959  19.3155
    19.5617  19.6138  19.7059  19.7070  19.7081  19.7204  19.9187  19.9404
    19.9729  19.9902  20.0590  20.1179  20.1418  20.2947  20.3589  20.4167
    20.4718  20.4839  20.5658  20.5790  20.5794  20.5899  20.6225  20.6578
    20.6611  20.6826  20.7306  20.7827  21.0508  21.0603  21.0806  21.0936
    21.1100  21.3137  21.3140  21.3279  21.4947  21.4957  23.1643  23.2236
    23.3248  23.4758

          k = 0.1667 0.3889 0.2764 ( 11394 PWs)   bands (ev):

   -66.8694 -66.8451 -66.8262 -66.8133 -66.8098 -66.8011 -66.7944 -66.7889
   -66.7766 -66.7764 -66.7742 -66.7713 -66.7665 -66.7593 -66.7447 -66.7260
   -33.1420 -33.1282 -33.1235 -33.1058 -33.0931 -33.0869 -33.0843 -33.0801
   -33.0709 -33.0620 -33.0596 -33.0559 -33.0214 -32.9983 -32.9684 -32.9469
   -32.9428 -32.9075 -32.9004 -32.8960 -32.8905 -32.8820 -32.8812 -32.8811
   -32.8405 -32.8174 -32.8080 -32.7953 -32.7920 -32.7844 -32.7766 -32.7665
   -32.7473 -32.7317 -32.7306 -32.7189 -32.7119 -32.7036 -32.6912 -32.6810
   -32.6720 -32.6718 -32.6647 -32.6553 -32.6552 -32.6550 -32.6351 -32.6333
    12.6790  13.7150  14.5406  15.0419  15.2669  15.5493  15.9088  16.1359
    16.1431  16.2039  16.2302  16.2599  16.3915  16.3917  16.4454  16.6367
    16.6652  16.7097  17.1605  17.1895  17.2644  17.2767  17.3106  17.3588
    17.4140  17.5338  17.5384  17.5844  17.6659  17.8184  17.8501  17.8691
    17.9744  18.0331  18.1029  18.1309  18.1615  18.1888  18.2025  18.2207
    18.2441  18.2833  18.2888  18.3063  18.3872  18.4793  18.9876  19.4191
    19.6139  19.7169  19.7786  19.7908  19.7944  19.8305  19.8448  19.8906
    20.0393  20.0425  20.0488  20.1375  20.1617  20.2291  20.3039  20.3702
    20.4229  20.4384  20.4444  20.5210  20.5764  20.5786  20.6145  20.6370
    20.6373  20.6511  20.6533  20.7474  20.8490  20.9627  21.0819  21.1363
    21.1885  21.2017  21.3367  21.3650  21.4215  21.9735  22.9015  23.5737
    24.0705  24.1723

          k = 0.1667 0.3889 0.3870 ( 11397 PWs)   bands (ev):

   -66.8614 -66.8393 -66.8390 -66.8228 -66.8068 -66.7989 -66.7986 -66.7923
   -66.7754 -66.7746 -66.7743 -66.7720 -66.7593 -66.7486 -66.7483 -66.7317
   -33.1326 -33.1109 -33.1098 -33.0944 -33.0942 -33.0890 -33.0853 -33.0846
   -33.0814 -33.0766 -33.0692 -33.0404 -33.0154 -32.9844 -32.9442 -32.9376
   -32.9371 -32.9251 -32.9246 -32.9082 -32.9066 -32.9044 -32.9031 -32.8696
   -32.8340 -32.8101 -32.8079 -32.8070 -32.8009 -32.7994 -32.7890 -32.7479
   -32.7466 -32.7203 -32.7200 -32.7135 -32.7132 -32.6951 -32.6889 -32.6884
   -32.6780 -32.6713 -32.6708 -32.6703 -32.6426 -32.6419 -32.6321 -32.6310
    13.0352  13.9970  14.0056  14.7070  15.4899  15.8418  15.8429  16.2783
    16.2990  16.3701  16.3764  16.4375  16.4463  16.4544  16.4776  16.5280
    16.6846  16.9213  16.9226  17.1873  17.2477  17.2914  17.3444  17.3679
    17.3796  17.3905  17.5351  17.5453  17.5464  17.6170  17.8209  17.9056
    17.9058  17.9070  17.9660  17.9855  18.0433  18.0522  18.0650  18.0950
    18.1255  18.1457  18.1512  18.2352  18.2433  18.6674  18.6706  19.2573
    19.6665  19.8201  19.8847  19.8884  19.9169  19.9470  19.9554  19.9578
    20.0693  20.1297  20.1521  20.1640  20.1933  20.1964  20.2001  20.2186
    20.3561  20.3761  20.3768  20.4346  20.4610  20.5452  20.5529  20.5852
    20.6128  20.6140  20.6635  20.6724  20.8184  20.8753  20.8829  20.9015
    21.3135  21.3160  21.3755  21.4525  21.7156  22.4986  22.5014  23.6057
    23.9793  24.6887

          k = 0.1667 0.3889-0.4975 ( 11408 PWs)   bands (ev):

   -66.8514 -66.8510 -66.8317 -66.8314 -66.8032 -66.8028 -66.7958 -66.7955
   -66.7749 -66.7745 -66.7732 -66.7728 -66.7534 -66.7531 -66.7395 -66.7391
   -33.1161 -33.1160 -33.0984 -33.0982 -33.0887 -33.0884 -33.0881 -33.0881
   -33.0827 -33.0825 -33.0626 -33.0624 -32.9710 -32.9709 -32.9633 -32.9630
   -32.9294 -32.9293 -32.9226 -32.9223 -32.9111 -32.9110 -32.8791 -32.8790
   -32.8383 -32.8382 -32.8058 -32.8057 -32.7937 -32.7936 -32.7764 -32.7763
   -32.7327 -32.7323 -32.6993 -32.6991 -32.6971 -32.6967 -32.6916 -32.6913
   -32.6902 -32.6900 -32.6702 -32.6701 -32.6348 -32.6348 -32.6339 -32.6338
    13.4831  13.4835  14.3487  14.3491  15.7006  15.7009  16.1765  16.1769
    16.3849  16.3852  16.3903  16.3906  16.5087  16.5089  16.5860  16.5863
    16.6812  16.6816  17.2177  17.2182  17.2795  17.2796  17.2797  17.2800
    17.2840  17.2843  17.4588  17.4591  17.7135  17.7136  17.7414  17.7414
    17.8467  17.8471  17.9198  17.9200  17.9678  17.9680  17.9960  17.9961
    18.1496  18.1499  18.1900  18.1903  18.3758  18.3759  18.9340  18.9340
    19.8584  19.8586  19.9228  19.9230  20.0054  20.0058  20.0401  20.0403
    20.0626  20.0627  20.0635  20.0636  20.1833  20.1834  20.2813  20.2815
    20.2959  20.2962  20.4232  20.4235  20.4615  20.4618  20.5305  20.5306
    20.5981  20.5985  20.6453  20.6457  20.7485  20.7486  20.8814  20.8815
    21.3729  21.3730  21.4130  21.4131  22.1021  22.1024  23.0495  23.0498
    24.3754  24.3756

          k = 0.1667-0.5000 0.0553 ( 11374 PWs)   bands (ev):

   -66.8657 -66.8656 -66.8087 -66.8087 -66.7959 -66.7959 -66.7844 -66.7843
   -66.7840 -66.7839 -66.7811 -66.7811 -66.7722 -66.7722 -66.7296 -66.7295
   -33.1190 -33.1188 -33.1053 -33.1051 -33.1048 -33.1047 -33.1024 -33.1023
   -33.0804 -33.0804 -33.0477 -33.0475 -33.0450 -33.0448 -32.9679 -32.9678
   -32.9269 -32.9267 -32.8738 -32.8736 -32.8580 -32.8579 -32.8498 -32.8496
   -32.8386 -32.8384 -32.8095 -32.8093 -32.7817 -32.7816 -32.7742 -32.7740
   -32.7283 -32.7281 -32.7018 -32.7017 -32.6977 -32.6976 -32.6947 -32.6946
   -32.6844 -32.6843 -32.6734 -32.6733 -32.6546 -32.6545 -32.6543 -32.6540
    12.8077  12.8080  15.1309  15.1311  15.5882  15.5884  15.8859  15.8861
    16.0309  16.0311  16.1930  16.1931  16.2901  16.2904  16.3189  16.3192
    16.3248  16.3253  17.1516  17.1518  17.1759  17.1760  17.6874  17.6875
    17.6989  17.6991  17.7036  17.7037  17.7936  17.7937  18.0827  18.0829
    18.1431  18.1432  18.2064  18.2066  18.3303  18.3305  18.3391  18.3392
    18.3402  18.3404  18.3807  18.3808  18.4871  18.4872  19.2135  19.2138
    19.7203  19.7204  19.7506  19.7507  19.8541  19.8544  19.9001  19.9004
    19.9391  19.9392  19.9604  19.9605  20.2829  20.2830  20.4150  20.4151
    20.4281  20.4282  20.5558  20.5558  20.5948  20.5949  20.6335  20.6336
    20.7561  20.7563  20.8402  20.8403  20.9711  20.9713  21.0318  21.0319
    21.2068  21.2069  21.3686  21.3688  21.7686  21.7687  22.4695  22.4696
    23.1451  23.1454

          k = 0.1667-0.5000 0.1658 ( 11402 PWs)   bands (ev):

   -66.8632 -66.8632 -66.8083 -66.8081 -66.8076 -66.8075 -66.7879 -66.7879
   -66.7785 -66.7785 -66.7730 -66.7728 -66.7723 -66.7722 -66.7312 -66.7312
   -33.1157 -33.1157 -33.1147 -33.1145 -33.1012 -33.1010 -33.1002 -33.1001
   -33.0533 -33.0531 -33.0504 -33.0504 -33.0499 -33.0497 -32.9768 -32.9766
   -32.9017 -32.9015 -32.8978 -32.8976 -32.8717 -32.8717 -32.8679 -32.8677
   -32.8292 -32.8290 -32.7987 -32.7986 -32.7845 -32.7844 -32.7817 -32.7815
   -32.7203 -32.7202 -32.7192 -32.7191 -32.7031 -32.7030 -32.6934 -32.6933
   -32.6818 -32.6818 -32.6569 -32.6567 -32.6557 -32.6556 -32.6501 -32.6500
    12.9265  12.9268  15.2242  15.2244  15.2368  15.2370  16.1189  16.1191
    16.1242  16.1244  16.2664  16.2665  16.2840  16.2842  16.3564  16.3568
    16.3831  16.3833  17.1679  17.1680  17.2314  17.2316  17.6418  17.6420
    17.6483  17.6484  17.6490  17.6491  17.6734  17.6735  18.0992  18.0994
    18.1146  18.1147  18.1469  18.1470  18.2202  18.2204  18.2345  18.2347
    18.2671  18.2673  18.2725  18.2727  18.3567  18.3567  19.3945  19.3948
    19.6264  19.6265  19.7847  19.7848  19.8077  19.8080  19.8209  19.8210
    19.9356  19.9358  19.9541  19.9541  20.3855  20.3856  20.3912  20.3913
    20.4193  20.4193  20.5284  20.5285  20.5729  20.5730  20.6756  20.6756
    20.6772  20.6773  20.6993  20.6994  21.2076  21.2076  21.2194  21.2196
    21.2218  21.2219  21.2558  21.2559  21.2591  21.2593  23.3741  23.3743
    23.4270  23.4272

          k = 0.1667-0.5000 0.2764 ( 11404 PWs)   bands (ev):

   -66.8583 -66.8582 -66.8202 -66.8202 -66.8057 -66.8057 -66.7917 -66.7917
   -66.7764 -66.7764 -66.7726 -66.7725 -66.7625 -66.7624 -66.7344 -66.7343
   -33.1198 -33.1198 -33.1067 -33.1064 -33.0937 -33.0935 -33.0931 -33.0930
   -33.0693 -33.0692 -33.0548 -33.0546 -33.0133 -33.0132 -32.9752 -32.9750
   -32.9177 -32.9175 -32.8961 -32.8959 -32.8919 -32.8919 -32.8707 -32.8706
[...]
   -32.9065 -32.9065 -32.8872 -32.8870 -32.8715 -32.8713 -32.8645 -32.8643
   -32.8599 -32.8597 -32.8458 -32.8456 -32.8322 -32.8320 -32.7918 -32.7916
   -32.7370 -32.7370 -32.7038 -32.7037 -32.6876 -32.6875 -32.6872 -32.6871
   -32.6854 -32.6853 -32.6756 -32.6756 -32.6285 -32.6284 -32.6282 -32.6279
    13.3741  13.3744  14.2401  14.2403  16.0088  16.0090  16.2724  16.2726
    16.2884  16.2886  16.3053  16.3055  16.3239  16.3242  16.4503  16.4505
    16.6702  16.6704  17.2332  17.2334  17.2747  17.2749  17.2749  17.2750
    17.3387  17.3389  17.3947  17.3949  17.7416  17.7419  17.8789  17.8790
    17.9623  17.9624  17.9724  17.9727  17.9776  17.9778  18.0363  18.0364
    18.3163  18.3164  18.3400  18.3401  18.5674  18.5675  19.2289  19.2290
    19.6815  19.6817  19.7368  19.7371  19.9252  19.9253  19.9948  19.9949
    20.0342  20.0344  20.0350  20.0351  20.0489  20.0490  20.2665  20.2666
    20.2716  20.2718  20.2917  20.2919  20.4327  20.4327  20.4870  20.4871
    20.6298  20.6299  20.6803  20.6804  20.6914  20.6914  20.7732  20.7732
    21.5104  21.5104  21.5658  21.5659  22.6875  22.6877  23.4278  23.4280
    23.6661  23.6663

          k = 0.3889-0.5000 0.1658 ( 11396 PWs)   bands (ev):

   -66.8510 -66.8509 -66.8313 -66.8313 -66.8033 -66.8033 -66.7959 -66.7958
   -66.7750 -66.7749 -66.7733 -66.7732 -66.7530 -66.7530 -66.7390 -66.7389
   -33.1140 -33.1138 -33.0981 -33.0980 -33.0891 -33.0890 -33.0856 -33.0854
   -33.0825 -33.0824 -33.0622 -33.0622 -32.9700 -32.9698 -32.9673 -32.9672
   -32.9280 -32.9278 -32.9265 -32.9265 -32.9106 -32.9104 -32.8788 -32.8786
   -32.8380 -32.8379 -32.8054 -32.8052 -32.7937 -32.7935 -32.7763 -32.7761
   -32.7349 -32.7348 -32.6988 -32.6988 -32.6982 -32.6982 -32.6903 -32.6902
   -32.6893 -32.6892 -32.6690 -32.6690 -32.6352 -32.6351 -32.6343 -32.6340
    13.4932  13.4934  14.3568  14.3570  15.6971  15.6974  16.1832  16.1835
    16.3829  16.3831  16.3918  16.3920  16.5079  16.5081  16.5964  16.5966
    16.6937  16.6940  17.2318  17.2319  17.2876  17.2878  17.2933  17.2935
    17.2966  17.2968  17.4560  17.4562  17.6991  17.6992  17.7103  17.7105
    17.8529  17.8531  17.9002  17.9003  17.9413  17.9415  17.9855  17.9856
    18.1668  18.1669  18.2065  18.2066  18.3543  18.3544  18.9196  18.9197
    19.8638  19.8639  19.9131  19.9133  20.0329  20.0330  20.0661  20.0662
    20.0681  20.0683  20.0762  20.0765  20.1735  20.1736  20.2877  20.2878
    20.2936  20.2937  20.4187  20.4187  20.4573  20.4575  20.5302  20.5304
    20.5710  20.5710  20.6141  20.6141  20.7182  20.7182  20.8546  20.8546
    21.3813  21.3814  21.4209  21.4211  22.1042  22.1044  23.0477  23.0480
    24.3430  24.3432

          k = 0.3889-0.5000 0.2764 ( 11416 PWs)   bands (ev):

   -66.8467 -66.8466 -66.8281 -66.8280 -66.8137 -66.8136 -66.8035 -66.8034
   -66.7692 -66.7691 -66.7647 -66.7646 -66.7546 -66.7545 -66.7416 -66.7415
   -33.0999 -33.0997 -33.0936 -33.0936 -33.0773 -33.0772 -33.0738 -33.0736
   -33.0674 -33.0673 -33.0355 -33.0354 -32.9942 -32.9942 -32.9845 -32.9843
   -32.9661 -32.9660 -32.9550 -32.9550 -32.9478 -32.9476 -32.9037 -32.9036
   -32.8104 -32.8103 -32.7682 -32.7680 -32.7577 -32.7575 -32.7555 -32.7553
   -32.7308 -32.7308 -32.7147 -32.7146 -32.6948 -32.6947 -32.6946 -32.6946
   -32.6919 -32.6918 -32.6661 -32.6660 -32.6481 -32.6479 -32.6457 -32.6455
    13.7245  13.7247  14.5822  14.5825  15.3207  15.3209  15.9709  15.9711
    16.5546  16.5548  16.5640  16.5642  16.7080  16.7082  16.7378  16.7380
    16.7725  16.7726  17.2243  17.2245  17.2459  17.2460  17.3280  17.3282
    17.3411  17.3412  17.5239  17.5241  17.5343  17.5344  17.6538  17.6541
    17.7086  17.7088  17.7439  17.7441  17.8542  17.8544  17.8843  17.8845
    17.9442  17.9443  18.0196  18.0197  18.0599  18.0601  18.5503  18.5504
    20.0865  20.0866  20.0978  20.0979  20.1178  20.1179  20.1220  20.1221
    20.1715  20.1717  20.2050  20.2052  20.3213  20.3214  20.3435  20.3436
    20.3925  20.3925  20.4174  20.4176  20.4628  20.4629  20.5025  20.5025
    20.5314  20.5314  20.7291  20.7292  20.8462  20.8464  20.9138  20.9138
    21.1708  21.1709  21.1924  21.1925  21.6359  21.6361  22.5309  22.5312
    25.4144  25.4146

          k = 0.3889-0.5000 0.3870 ( 11412 PWs)   bands (ev):

   -66.8404 -66.8404 -66.8238 -66.8236 -66.8233 -66.8231 -66.8108 -66.8107
   -66.7642 -66.7642 -66.7573 -66.7571 -66.7568 -66.7566 -66.7455 -66.7454
   -33.0822 -33.0821 -33.0805 -33.0803 -33.0632 -33.0630 -33.0621 -33.0620
   -33.0476 -33.0475 -33.0140 -33.0138 -33.0041 -33.0040 -33.0038 -33.0035
   -32.9971 -32.9970 -32.9842 -32.9841 -32.9815 -32.9813 -32.9350 -32.9349
   -32.7831 -32.7829 -32.7377 -32.7375 -32.7351 -32.7350 -32.7345 -32.7343
   -32.7259 -32.7259 -32.7254 -32.7252 -32.7043 -32.7042 -32.6968 -32.6967
   -32.6882 -32.6882 -32.6663 -32.6661 -32.6656 -32.6655 -32.6596 -32.6594
    14.0532  14.0535  14.8926  14.8929  14.8984  14.8986  15.6541  15.6544
    16.7553  16.7556  16.8112  16.8113  16.8156  16.8158  16.8212  16.8215
    16.9642  16.9643  17.1894  17.1895  17.1978  17.1980  17.3669  17.3670
    17.4131  17.4133  17.4557  17.4559  17.4773  17.4775  17.5828  17.5830
    17.5999  17.6001  17.7094  17.7095  17.7186  17.7187  17.7663  17.7665
    17.7689  17.7691  17.8085  17.8087  17.8454  17.8455  18.1938  18.1939
    20.1706  20.1706  20.1814  20.1815  20.1939  20.1940  20.3066  20.3067
    20.3211  20.3213  20.3313  20.3314  20.3585  20.3586  20.4247  20.4249
    20.4402  20.4402  20.4404  20.4405  20.4479  20.4480  20.5284  20.5286
    20.5627  20.5629  20.7157  20.7158  20.9306  20.9307  20.9519  20.9521
    20.9672  20.9673  21.2326  21.2329  21.2365  21.2367  22.0736  22.0738
    26.5772  26.5787

          k = 0.3889-0.5000-0.4975 ( 11432 PWs)   bands (ev):

   -66.8329 -66.8328 -66.8326 -66.8323 -66.8178 -66.8176 -66.8174 -66.8172
   -66.7604 -66.7602 -66.7600 -66.7598 -66.7510 -66.7508 -66.7506 -66.7504
   -33.0673 -33.0673 -33.0672 -33.0672 -33.0623 -33.0621 -33.0621 -33.0619
   -33.0257 -33.0257 -33.0256 -33.0254 -33.0082 -33.0079 -33.0078 -33.0077
   -33.0047 -33.0047 -33.0046 -33.0046 -32.9697 -32.9696 -32.9695 -32.9693
   -32.7576 -32.7576 -32.7575 -32.7573 -32.7241 -32.7240 -32.7240 -32.7240
   -32.7178 -32.7178 -32.7177 -32.7175 -32.7000 -32.6997 -32.6995 -32.6995
   -32.6868 -32.6867 -32.6865 -32.6864 -32.6661 -32.6661 -32.6661 -32.6660
    14.4544  14.4548  14.4550  14.4552  15.2730  15.2733  15.2735  15.2737
    16.8258  16.8262  16.8262  16.8264  17.0217  17.0219  17.0222  17.0223
    17.1065  17.1067  17.1069  17.1072  17.1263  17.1264  17.1266  17.1266
    17.5126  17.5129  17.5131  17.5132  17.5329  17.5330  17.5331  17.5332
    17.5349  17.5349  17.5350  17.5351  17.6952  17.6955  17.6955  17.6956
    17.7488  17.7489  17.7489  17.7492  17.9006  17.9007  17.9008  17.9009
    20.2164  20.2167  20.2169  20.2170  20.2776  20.2777  20.2779  20.2780
    20.3623  20.3624  20.3626  20.3628  20.4307  20.4310  20.4312  20.4313
    20.4382  20.4383  20.4384  20.4384  20.4965  20.4966  20.4966  20.4969
    20.7661  20.7662  20.7663  20.7665  20.8722  20.8727  20.8727  20.8728
    20.9118  20.9118  20.9119  20.9119  21.6446  21.6450  21.6451  21.6452
    27.1806  27.1808

          k =-0.5000-0.5000 0.0553 ( 11412 PWs)   bands (ev):

   -66.8439 -66.8439 -66.8437 -66.8437 -66.7909 -66.7909 -66.7906 -66.7906
   -66.7822 -66.7822 -66.7819 -66.7819 -66.7443 -66.7443 -66.7441 -66.7441
   -33.1100 -33.1100 -33.1100 -33.1096 -33.0924 -33.0924 -33.0924 -33.0923
   -33.0860 -33.0859 -33.0859 -33.0858 -32.9277 -32.9277 -32.9274 -32.9273
   -32.9141 -32.9137 -32.9134 -32.9134 -32.8833 -32.8833 -32.8833 -32.8829
   -32.8410 -32.8410 -32.8409 -32.8405 -32.8261 -32.8257 -32.8254 -32.8254
   -32.7190 -32.7190 -32.7187 -32.7185 -32.6848 -32.6847 -32.6846 -32.6846
   -32.6805 -32.6804 -32.6803 -32.6803 -32.6249 -32.6249 -32.6249 -32.6245
    13.7842  13.7844  13.7844  13.7848  16.2198  16.2201  16.2201  16.2202
    16.3203  16.3205  16.3205  16.3208  16.4292  16.4296  16.4296  16.4296
    16.9390  16.9391  16.9391  16.9394  17.2660  17.2662  17.2662  17.2664
    17.3115  17.3117  17.3117  17.3119  17.8361  17.8364  17.8364  17.8366
    17.8615  17.8616  17.8616  17.8617  17.9455  17.9457  17.9457  17.9458
    18.3074  18.3074  18.3076  18.3078  18.8822  18.8824  18.8827  18.8827
    19.7667  19.7667  19.7669  19.7671  20.0099  20.0104  20.0106  20.0106
    20.0777  20.0778  20.0778  20.0779  20.1531  20.1533  20.1533  20.1536
    20.1544  20.1545  20.1545  20.1547  20.4093  20.4094  20.4095  20.4096
    20.6562  20.6562  20.6566  20.6566  20.7137  20.7137  20.7140  20.7141
    21.5724  21.5725  21.5725  21.5726  23.1793  23.1797  23.1797  23.1797
    23.9376  23.9379

          k =-0.5000-0.5000 0.1658 ( 11396 PWs)   bands (ev):

   -66.8420 -66.8420 -66.8417 -66.8417 -66.7999 -66.7999 -66.7996 -66.7996
   -66.7740 -66.7740 -66.7738 -66.7737 -66.7454 -66.7454 -66.7452 -66.7451
   -33.1024 -33.1024 -33.1024 -33.1020 -33.0908 -33.0907 -33.0907 -33.0906
   -33.0717 -33.0715 -33.0715 -33.0715 -32.9496 -32.9496 -32.9494 -32.9493
   -32.9253 -32.9253 -32.9252 -32.9248 -32.9248 -32.9245 -32.9241 -32.9241
   -32.8070 -32.8066 -32.8064 -32.8064 -32.7994 -32.7994 -32.7994 -32.7990
   -32.7149 -32.7149 -32.7146 -32.7145 -32.6920 -32.6918 -32.6917 -32.6917
   -32.6796 -32.6795 -32.6794 -32.6794 -32.6320 -32.6320 -32.6320 -32.6316
    13.9028  13.9030  13.9030  13.9033  15.9770  15.9773  15.9773  15.9775
    16.4109  16.4110  16.4110  16.4113  16.6426  16.6429  16.6429  16.6430
    16.9566  16.9567  16.9567  16.9571  17.2245  17.2247  17.2247  17.2249
    17.3660  17.3663  17.3663  17.3665  17.7047  17.7048  17.7048  17.7049
    17.8059  17.8062  17.8062  17.8064  17.8996  17.8998  17.8998  17.8999
    18.1668  18.1668  18.1669  18.1671  18.6075  18.6077  18.6079  18.6079
    19.9955  19.9955  19.9956  19.9958  20.0902  20.0902  20.0902  20.0904
    20.1816  20.1817  20.1817  20.1819  20.1985  20.1986  20.1986  20.1988
    20.2167  20.2171  20.2173  20.2173  20.4011  20.4011  20.4012  20.4013
    20.5917  20.5917  20.5920  20.5920  20.7601  20.7601  20.7604  20.7605
    21.4307  21.4308  21.4308  21.4309  22.5725  22.5729  22.5729  22.5729
    24.8643  24.8645

          k =-0.5000-0.5000 0.2764 ( 11396 PWs)   bands (ev):

   -66.8381 -66.8381 -66.8379 -66.8379 -66.8090 -66.8090 -66.8087 -66.8087
   -66.7667 -66.7667 -66.7664 -66.7664 -66.7475 -66.7475 -66.7473 -66.7472
   -33.0873 -33.0872 -33.0872 -33.0868 -33.0806 -33.0806 -33.0806 -33.0805
   -33.0511 -33.0509 -33.0509 -33.0509 -32.9796 -32.9795 -32.9794 -32.9793
   -32.9657 -32.9656 -32.9656 -32.9652 -32.9442 -32.9439 -32.9436 -32.9436
   -32.7822 -32.7819 -32.7817 -32.7817 -32.7603 -32.7603 -32.7603 -32.7599
   -32.7082 -32.7082 -32.7079 -32.7079 -32.7029 -32.7027 -32.7026 -32.7026
   -32.6815 -32.6815 -32.6815 -32.6814 -32.6459 -32.6459 -32.6459 -32.6455
    14.1327  14.1329  14.1329  14.1333  15.6613  15.6616  15.6616  15.6618
    16.5834  16.5835  16.5835  16.5838  16.8770  16.8773  16.8773  16.8774
    16.9897  16.9898  16.9898  16.9901  17.1816  17.1818  17.1818  17.1820
    17.4319  17.4322  17.4322  17.4323  17.5752  17.5752  17.5752  17.5754
    17.7335  17.7337  17.7337  17.7338  17.7498  17.7501  17.7501  17.7503
    17.9631  17.9631  17.9631  17.9633  18.2536  18.2538  18.2539  18.2539
    20.1512  20.1512  20.1512  20.1514  20.2255  20.2256  20.2256  20.2258
    20.2581  20.2581  20.2582  20.2584  20.2972  20.2974  20.2974  20.2976
    20.3841  20.3841  20.3842  20.3843  20.5143  20.5143  20.5146  20.5146
    20.5162  20.5166  20.5167  20.5167  20.7773  20.7773  20.7775  20.7777
    21.1960  21.1962  21.1962  21.1963  22.0764  22.0769  22.0769  22.0769
    25.9442  25.9444

          k =-0.5000-0.5000 0.3870 ( 11428 PWs)   bands (ev):

   -66.8327 -66.8327 -66.8325 -66.8325 -66.8177 -66.8177 -66.8175 -66.8174
   -66.7603 -66.7603 -66.7601 -66.7600 -66.7507 -66.7507 -66.7504 -66.7504
   -33.0652 -33.0652 -33.0652 -33.0648 -33.0631 -33.0631 -33.0631 -33.0630
   -33.0257 -33.0255 -33.0255 -33.0255 -33.0104 -33.0104 -33.0104 -33.0102
   -33.0032 -33.0032 -33.0032 -33.0028 -32.9699 -32.9696 -32.9695 -32.9695
   -32.7578 -32.7576 -32.7574 -32.7574 -32.7242 -32.7242 -32.7242 -32.7238
   -32.7175 -32.7173 -32.7172 -32.7172 -32.7003 -32.7003 -32.7002 -32.7001
   -32.6861 -32.6861 -32.6861 -32.6860 -32.6666 -32.6666 -32.6665 -32.6661
    14.4579  14.4581  14.4581  14.4584  15.2710  15.2713  15.2713  15.2715
    16.8184  16.8185  16.8185  16.8188  17.0339  17.0341  17.0341  17.0344
    17.1062  17.1064  17.1064  17.1065  17.1346  17.1347  17.1347  17.1350
    17.5088  17.5090  17.5090  17.5092  17.5247  17.5249  17.5249  17.5250
    17.5420  17.5420  17.5420  17.5422  17.6755  17.6758  17.6758  17.6760
    17.7639  17.7639  17.7639  17.7641  17.8965  17.8967  17.8968  17.8968
    20.2318  20.2318  20.2318  20.2320  20.2742  20.2742  20.2742  20.2744
    20.3566  20.3566  20.3567  20.3568  20.4237  20.4237  20.4239  20.4240
    20.4559  20.4561  20.4561  20.4563  20.4832  20.4832  20.4832  20.4834
    20.7444  20.7444  20.7446  20.7447  20.8702  20.8707  20.8708  20.8708
    20.9274  20.9276  20.9276  20.9278  21.6465  21.6469  21.6470  21.6470
    27.1291  27.1292

          k =-0.5000-0.5000-0.4975 ( 11408 PWs)   bands (ev):

   -66.8261 -66.8261 -66.8258 -66.8257 -66.8254 -66.8253 -66.8252 -66.8251
   -66.7553 -66.7553 -66.7551 -66.7549 -66.7546 -66.7546 -66.7544 -66.7544
   -33.0395 -33.0395 -33.0394 -33.0392 -33.0390 -33.0390 -33.0390 -33.0389
   -33.0372 -33.0368 -33.0368 -33.0366 -33.0365 -33.0365 -33.0362 -33.0360
   -32.9980 -32.9978 -32.9976 -32.9975 -32.9975 -32.9972 -32.9972 -32.9970
   -32.7362 -32.7361 -32.7359 -32.7358 -32.7358 -32.7355 -32.7355 -32.7353
   -32.6933 -32.6929 -32.6929 -32.6927 -32.6927 -32.6927 -32.6926 -32.6926
   -32.6925 -32.6924 -32.6922 -32.6922 -32.6921 -32.6921 -32.6921 -32.6920
    14.8512  14.8514  14.8514  14.8517  14.8518  14.8520  14.8520  14.8521
    17.0689  17.0689  17.0690  17.0694  17.0695  17.0696  17.0696  17.0697
    17.0840  17.0841  17.0841  17.0844  17.0844  17.0846  17.0846  17.0848
    17.5835  17.5842  17.5842  17.5842  17.5843  17.5844  17.5845  17.5845
    17.5919  17.5923  17.5925  17.5925  17.5927  17.5927  17.5927  17.5932
    17.6127  17.6127  17.6127  17.6131  17.6132  17.6132  17.6132  17.6132
    20.3190  20.3190  20.3192  20.3194  20.3197  20.3198  20.3198  20.3199
    20.3259  20.3259  20.3259  20.3263  20.3265  20.3265  20.3266  20.3266
    20.6475  20.6475  20.6476  20.6478  20.6479  20.6479  20.6480  20.6482
    20.6705  20.6706  20.6707  20.6707  20.6708  20.6710  20.6710  20.6714
    21.2487  21.2496  21.2497  21.2497  21.2498  21.2498  21.2498  21.2498
    28.3016  28.3022

     the Fermi energy is    20.3892 ev

!    total energy              =   -5267.70905178 Ry
     Harris-Foulkes estimate   =   -5267.70908568 Ry
     estimated scf accuracy    <       0.00004533 Ry

     total all-electron energy =    -40728.453581 Ry

     The total energy is the sum of the following terms:

     one-electron contribution =   -1627.70080180 Ry
     hartree contribution      =     992.01084320 Ry
     xc contribution           =    -442.94202613 Ry
     ewald contribution        =   -2864.18328476 Ry
     one-center paw contrib.   =   -1324.76158735 Ry
     smearing contrib. (-TS)   =      -0.13219495 Ry

     convergence has been achieved in  11 iterations

     Forces acting on atoms (cartesian axes, Ry/au):

     atom    1 type  1   force =     0.00000000    0.00000000    0.00000000
     atom    2 type  1   force =    -0.00014087   -0.00014087    0.00062133
     atom    3 type  1   force =     0.00000000    0.00000000    0.00000000
     atom    4 type  1   force =    -0.00014087   -0.00014087   -0.00062133
     atom    5 type  1   force =     0.00000000    0.00000000    0.00000000
     atom    6 type  1   force =    -0.00014087    0.00014087    0.00062133
     atom    7 type  1   force =     0.00000000    0.00000000    0.00000000
     atom    8 type  1   force =    -0.00014087    0.00014087   -0.00062133
     atom    9 type  1   force =     0.00000000    0.00000000    0.00000000
     atom   10 type  1   force =     0.00014087   -0.00014087    0.00062133
     atom   11 type  1   force =     0.00000000    0.00000000    0.00000000
     atom   12 type  1   force =     0.00014087   -0.00014087   -0.00062133
     atom   13 type  1   force =     0.00000000    0.00000000    0.00000000
     atom   14 type  1   force =     0.00014087    0.00014087    0.00062133
     atom   15 type  1   force =     0.00000000    0.00000000    0.00000000
     atom   16 type  1   force =     0.00014087    0.00014087   -0.00062133

     Total force =     0.001845     Total SCF correction =     0.006575
     SCF correction compared to forces is large: reduce conv_thr to get better values


     Computing stress (Cartesian axis) and pressure

          total   stress  (Ry/bohr**3)                   (kbar)     P=   27.50
   0.00016389   0.00000000   0.00000000         24.11      0.00      0.00
   0.00000000   0.00016389   0.00000000          0.00     24.11      0.00
   0.00000000   0.00000000   0.00023297          0.00      0.00     34.27


     Writing output data file TLctUaLXSAApTJAa.save/
 
     init_run     :      6.41s CPU      6.76s WALL (       1 calls)
     electrons    :    248.23s CPU    256.43s WALL (       1 calls)
     forces       :      2.26s CPU      2.49s WALL (       1 calls)
     stress       :      5.89s CPU      5.97s WALL (       1 calls)

     Called by init_run:
     wfcinit      :      6.10s CPU      6.38s WALL (       1 calls)
     potinit      :      0.09s CPU      0.12s WALL (       1 calls)
     hinit0       :      0.14s CPU      0.16s WALL (       1 calls)

     Called by electrons:
     c_bands      :    222.53s CPU    229.13s WALL (      12 calls)
     sum_band     :     24.59s CPU     25.89s WALL (      12 calls)
     v_of_rho     :      0.11s CPU      0.22s WALL (      12 calls)
     newd         :      0.18s CPU      0.24s WALL (      12 calls)
     PAW_pot      :      0.82s CPU      0.90s WALL (      12 calls)
     mix_rho      :      0.04s CPU      0.06s WALL (      12 calls)

     Called by c_bands:
     init_us_2    :      1.26s CPU      1.28s WALL (    2025 calls)
     cegterg      :    216.17s CPU    222.69s WALL (     900 calls)

     Called by sum_band:
     sum_band:bec :      0.35s CPU      0.36s WALL (     900 calls)
     addusdens    :      0.18s CPU      0.22s WALL (      12 calls)

     Called by *egterg:
     h_psi        :     97.53s CPU    101.56s WALL (    2797 calls)
     s_psi        :      5.33s CPU      5.36s WALL (    2797 calls)
     g_psi        :      0.21s CPU      0.21s WALL (    1822 calls)
     cdiaghg      :     93.51s CPU     93.85s WALL (    2647 calls)

     Called by h_psi:
     h_psi:pot    :     97.02s CPU    101.05s WALL (    2797 calls)
     h_psi:calbec :      7.82s CPU      9.14s WALL (    2797 calls)
     vloc_psi     :     83.82s CPU     86.48s WALL (    2797 calls)
     add_vuspsi   :      5.36s CPU      5.40s WALL (    2797 calls)

     General routines
     calbec       :     12.74s CPU     14.92s WALL (    4072 calls)
     fft          :      0.15s CPU      0.35s WALL (     181 calls)
     ffts         :      0.02s CPU      0.06s WALL (      24 calls)
     fftw         :     97.59s CPU    100.66s WALL (  755398 calls)
     interpolate  :      0.02s CPU      0.04s WALL (      12 calls)
 
     Parallel routines
     fft_scatt_xy :      6.62s CPU      6.82s WALL (  755603 calls)
     fft_scatt_yz :     65.47s CPU     67.76s WALL (  755603 calls)
 
     PWSCF        :  4m27.94s CPU     4m45.11s WALL

 
   This run was terminated on:   8:30:14   5Sep2020            

=------------------------------------------------------------------------------=
   JOB DONE.
=------------------------------------------------------------------------------=
