--------------------------------------------------------------------------
WARNING: There was an error initializing an OpenFabrics device.

  Local host:   bear-pg0211u07b
  Local device: mlx5_0
--------------------------------------------------------------------------

     Program PWSCF v.6.3 starts on  5Sep2020 at  8: 1:32 

     This program is part of the open-source Quantum ESPRESSO suite
     for quantum simulation of materials; please cite
         "P. Giannozzi et al., J. Phys.:Condens. Matter 21 395502 (2009);
         "P. Giannozzi et al., J. Phys.:Condens. Matter 29 465901 (2017);
          URL http://www.quantum-espresso.org", 
     in publications or presentations arising from this work. More details at
     http://www.quantum-espresso.org/quote

     Parallel version (MPI & OpenMP), running on      40 processor cores
     Number of MPI processes:                40
     Threads/MPI process:                     1

     MPI processes distributed on     1 nodes
     R & G space division:  proc/nbgrp/npool/nimage =      40
     Reading input from wd/ec/ec_3_004.in
Warning: card &IONS ignored
Warning: card ION_DYNAMICS = 'BFGS', ignored
Warning: card / ignored
Warning: card &CELL ignored
Warning: card CELL_DYNAMICS = 'BFGS', ignored
Warning: card CELL_FACTOR = 2.0, ignored
Warning: card PRESS = 0.0, ignored
Warning: card / ignored

     Current dimensions of program PWSCF are:
     Max number of different atomic species (ntypx) = 10
     Max number of k-points (npk) =  40000
     Max angular momentum in pseudopotentials (lmaxx) =  3
               file Fe.pbe-spn-kjpaw_psl.1.0.0.UPF: wavefunction(s)  3P 3D renormalized

     Subspace diagonalization in iterative solution of the eigenvalue problem:
     a serial algorithm will be used

 
     Parallelization info
     --------------------
     sticks:   dense  smooth     PW     G-vecs:    dense   smooth      PW
     Min          92      61     17                 4230     2271     339
     Max          93      62     18                 4235     2275     343
     Sum        3705    2441    681               169293    90911   13613
 


     bravais-lattice index     =            0
     lattice parameter (alat)  =      10.3915  a.u.
     unit-cell volume          =    1124.2012 (a.u.)^3
     number of atoms/cell      =           16
     number of atomic types    =            1
     number of electrons       =       256.00
     number of Kohn-Sham states=          154
     kinetic-energy cutoff     =      71.0000  Ry
     charge density cutoff     =     430.0000  Ry
     convergence threshold     =      5.0E-05
     mixing beta               =       0.1000
     number of iterations used =           10  plain     mixing
     Exchange-correlation      = SLA PW PBX PBC ( 1  4  3  4 0 0)

     celldm(1)=  10.391466  celldm(2)=   0.000000  celldm(3)=   0.000000
     celldm(4)=   0.000000  celldm(5)=   0.000000  celldm(6)=   0.000000

     crystal axes: (cart. coord. in units of alat)
               a(1) = (   1.000000   0.000000   0.000000 )  
               a(2) = (   0.000000   1.000000   0.000000 )  
               a(3) = (   0.000000   0.000000   1.001875 )  

     reciprocal axes: (cart. coord. in units 2 pi/alat)
               b(1) = (  1.000000  0.000000  0.000000 )  
               b(2) = (  0.000000  1.000000  0.000000 )  
               b(3) = (  0.000000  0.000000  0.998129 )  


     PseudoPot. # 1 for Fe read from file:
     /rds/homes/b/bxp912/pp/Fe.pbe-spn-kjpaw_psl.1.0.0.UPF
     MD5 check sum: 42f43b795421b414b0dc916aa790dbcb
     Pseudo is Projector augmented-wave + core cor, Zval = 16.0
     Generated using "atomic" code by A. Dal Corso v.6.3
     Shape of augmentation charge: PSQ
     Using radial grid of 1191 points,  6 beta functions with: 
                l(1) =   0
                l(2) =   0
                l(3) =   1
                l(4) =   1
                l(5) =   2
                l(6) =   2
     Q(r) pseudized with 0 coefficients 


     atomic species   valence    mass     pseudopotential
        Fe            16.00    55.84500     Fe( 1.00)

     16 Sym. Ops., with inversion, found



   Cartesian axes

     site n.     atom                  positions (alat units)
         1           Fe  tau(   1) = (   0.0000000   0.0000000   0.0000000  )
         2           Fe  tau(   2) = (   0.2500089   0.2500089   0.2504777  )
         3           Fe  tau(   3) = (   0.0000000   0.0000000   0.5009370  )
         4           Fe  tau(   4) = (   0.2500089   0.2500089   0.7513973  )
         5           Fe  tau(   5) = (   0.0000000   0.5000001   0.0000000  )
         6           Fe  tau(   6) = (   0.2500089   0.7499912   0.2504777  )
         7           Fe  tau(   7) = (   0.0000000   0.5000001   0.5009370  )
         8           Fe  tau(   8) = (   0.2500089   0.7499912   0.7513973  )
         9           Fe  tau(   9) = (   0.5000001   0.0000000   0.0000000  )
        10           Fe  tau(  10) = (   0.7499912   0.2500089   0.2504777  )
        11           Fe  tau(  11) = (   0.5000001   0.0000000   0.5009370  )
        12           Fe  tau(  12) = (   0.7499912   0.2500089   0.7513973  )
        13           Fe  tau(  13) = (   0.5000001   0.5000001   0.0000000  )
        14           Fe  tau(  14) = (   0.7499912   0.7499912   0.2504777  )
        15           Fe  tau(  15) = (   0.5000001   0.5000001   0.5009370  )
        16           Fe  tau(  16) = (   0.7499912   0.7499912   0.7513973  )

     number of k points=    75  Marzari-Vanderbilt smearing, width (Ry)=  0.0400
                       cart. coord. in units 2pi/alat
        k(    1) = (   0.0555556   0.0555556   0.0554516), wk =   0.0219479
        k(    2) = (   0.0555556   0.0555556   0.1663548), wk =   0.0219479
        k(    3) = (   0.0555556   0.0555556   0.2772579), wk =   0.0219479
        k(    4) = (   0.0555556   0.0555556   0.3881611), wk =   0.0219479
        k(    5) = (   0.0555556   0.0555556  -0.4990643), wk =   0.0109739
        k(    6) = (   0.0555556   0.1666667   0.0554516), wk =   0.0438957
        k(    7) = (   0.0555556   0.1666667   0.1663548), wk =   0.0438957
        k(    8) = (   0.0555556   0.1666667   0.2772579), wk =   0.0438957
        k(    9) = (   0.0555556   0.1666667   0.3881611), wk =   0.0438957
        k(   10) = (   0.0555556   0.1666667  -0.4990643), wk =   0.0219479
        k(   11) = (   0.0555556   0.2777778   0.0554516), wk =   0.0438957
        k(   12) = (   0.0555556   0.2777778   0.1663548), wk =   0.0438957
        k(   13) = (   0.0555556   0.2777778   0.2772579), wk =   0.0438957
        k(   14) = (   0.0555556   0.2777778   0.3881611), wk =   0.0438957
        k(   15) = (   0.0555556   0.2777778  -0.4990643), wk =   0.0219479
        k(   16) = (   0.0555556   0.3888889   0.0554516), wk =   0.0438957
        k(   17) = (   0.0555556   0.3888889   0.1663548), wk =   0.0438957
        k(   18) = (   0.0555556   0.3888889   0.2772579), wk =   0.0438957
        k(   19) = (   0.0555556   0.3888889   0.3881611), wk =   0.0438957
        k(   20) = (   0.0555556   0.3888889  -0.4990643), wk =   0.0219479
        k(   21) = (   0.0555556  -0.5000000   0.0554516), wk =   0.0219479
        k(   22) = (   0.0555556  -0.5000000   0.1663548), wk =   0.0219479
        k(   23) = (   0.0555556  -0.5000000   0.2772579), wk =   0.0219479
        k(   24) = (   0.0555556  -0.5000000   0.3881611), wk =   0.0219479
        k(   25) = (   0.0555556  -0.5000000  -0.4990643), wk =   0.0109739
        k(   26) = (   0.1666667   0.1666667   0.0554516), wk =   0.0219479
        k(   27) = (   0.1666667   0.1666667   0.1663548), wk =   0.0219479
        k(   28) = (   0.1666667   0.1666667   0.2772579), wk =   0.0219479
        k(   29) = (   0.1666667   0.1666667   0.3881611), wk =   0.0219479
        k(   30) = (   0.1666667   0.1666667  -0.4990643), wk =   0.0109739
        k(   31) = (   0.1666667   0.2777778   0.0554516), wk =   0.0438957
        k(   32) = (   0.1666667   0.2777778   0.1663548), wk =   0.0438957
        k(   33) = (   0.1666667   0.2777778   0.2772579), wk =   0.0438957
        k(   34) = (   0.1666667   0.2777778   0.3881611), wk =   0.0438957
        k(   35) = (   0.1666667   0.2777778  -0.4990643), wk =   0.0219479
        k(   36) = (   0.1666667   0.3888889   0.0554516), wk =   0.0438957
        k(   37) = (   0.1666667   0.3888889   0.1663548), wk =   0.0438957
        k(   38) = (   0.1666667   0.3888889   0.2772579), wk =   0.0438957
        k(   39) = (   0.1666667   0.3888889   0.3881611), wk =   0.0438957
        k(   40) = (   0.1666667   0.3888889  -0.4990643), wk =   0.0219479
        k(   41) = (   0.1666667  -0.5000000   0.0554516), wk =   0.0219479
        k(   42) = (   0.1666667  -0.5000000   0.1663548), wk =   0.0219479
        k(   43) = (   0.1666667  -0.5000000   0.2772579), wk =   0.0219479
        k(   44) = (   0.1666667  -0.5000000   0.3881611), wk =   0.0219479
        k(   45) = (   0.1666667  -0.5000000  -0.4990643), wk =   0.0109739
        k(   46) = (   0.2777778   0.2777778   0.0554516), wk =   0.0219479
        k(   47) = (   0.2777778   0.2777778   0.1663548), wk =   0.0219479
        k(   48) = (   0.2777778   0.2777778   0.2772579), wk =   0.0219479
        k(   49) = (   0.2777778   0.2777778   0.3881611), wk =   0.0219479
        k(   50) = (   0.2777778   0.2777778  -0.4990643), wk =   0.0109739
        k(   51) = (   0.2777778   0.3888889   0.0554516), wk =   0.0438957
        k(   52) = (   0.2777778   0.3888889   0.1663548), wk =   0.0438957
        k(   53) = (   0.2777778   0.3888889   0.2772579), wk =   0.0438957
        k(   54) = (   0.2777778   0.3888889   0.3881611), wk =   0.0438957
        k(   55) = (   0.2777778   0.3888889  -0.4990643), wk =   0.0219479
        k(   56) = (   0.2777778  -0.5000000   0.0554516), wk =   0.0219479
        k(   57) = (   0.2777778  -0.5000000   0.1663548), wk =   0.0219479
        k(   58) = (   0.2777778  -0.5000000   0.2772579), wk =   0.0219479
        k(   59) = (   0.2777778  -0.5000000   0.3881611), wk =   0.0219479
        k(   60) = (   0.2777778  -0.5000000  -0.4990643), wk =   0.0109739
        k(   61) = (   0.3888889   0.3888889   0.0554516), wk =   0.0219479
        k(   62) = (   0.3888889   0.3888889   0.1663548), wk =   0.0219479
        k(   63) = (   0.3888889   0.3888889   0.2772579), wk =   0.0219479
        k(   64) = (   0.3888889   0.3888889   0.3881611), wk =   0.0219479
        k(   65) = (   0.3888889   0.3888889  -0.4990643), wk =   0.0109739
        k(   66) = (   0.3888889  -0.5000000   0.0554516), wk =   0.0219479
        k(   67) = (   0.3888889  -0.5000000   0.1663548), wk =   0.0219479
        k(   68) = (   0.3888889  -0.5000000   0.2772579), wk =   0.0219479
        k(   69) = (   0.3888889  -0.5000000   0.3881611), wk =   0.0219479
        k(   70) = (   0.3888889  -0.5000000  -0.4990643), wk =   0.0109739
        k(   71) = (  -0.5000000  -0.5000000   0.0554516), wk =   0.0054870
        k(   72) = (  -0.5000000  -0.5000000   0.1663548), wk =   0.0054870
        k(   73) = (  -0.5000000  -0.5000000   0.2772579), wk =   0.0054870
        k(   74) = (  -0.5000000  -0.5000000   0.3881611), wk =   0.0054870
        k(   75) = (  -0.5000000  -0.5000000  -0.4990643), wk =   0.0027435

     Dense  grid:   169293 G-vectors     FFT dimensions: (  72,  72,  72)

     Smooth grid:    90911 G-vectors     FFT dimensions: (  60,  60,  60)

     Estimated max dynamical RAM per process >      83.28 MB

     Estimated total dynamical RAM >       3.25 GB

     Check: negative/imaginary core charge=   -0.000006    0.000000

     Initial potential from superposition of free atoms

     starting charge  255.99300, renormalised to  256.00000
     Starting wfcs are  160 randomized atomic wfcs
     Checking if some PAW data can be deallocated... 

     total cpu time spent up to now is        8.1 secs

     Self-consistent Calculation

     iteration #  1     ecut=    71.00 Ry     beta= 0.10
     Davidson diagonalization with overlap
     ethr =  1.00E-02,  avg # of iterations =  3.4

     Threshold (ethr) on eigenvalues was too large:
     Diagonalizing with lowered threshold

     Davidson diagonalization with overlap
     ethr =  2.54E-04,  avg # of iterations =  3.1

     total cpu time spent up to now is       61.9 secs

     total energy              =   -5267.75228099 Ry
     Harris-Foulkes estimate   =   -5267.86776211 Ry
     estimated scf accuracy    <       0.73204798 Ry

     iteration #  2     ecut=    71.00 Ry     beta= 0.10
     Davidson diagonalization with overlap
     ethr =  2.86E-04,  avg # of iterations =  1.0

     total cpu time spent up to now is       78.5 secs

     total energy              =   -5267.61861975 Ry
     Harris-Foulkes estimate   =   -5267.76753110 Ry
     estimated scf accuracy    <       0.36284499 Ry

     iteration #  3     ecut=    71.00 Ry     beta= 0.10
     Davidson diagonalization with overlap
     ethr =  1.42E-04,  avg # of iterations =  3.2

     total cpu time spent up to now is      112.1 secs

     total energy              =   -5267.69931551 Ry
     Harris-Foulkes estimate   =   -5267.72226129 Ry
     estimated scf accuracy    <       0.54357874 Ry

     iteration #  4     ecut=    71.00 Ry     beta= 0.10
     Davidson diagonalization with overlap
     ethr =  1.42E-04,  avg # of iterations =  1.0

     total cpu time spent up to now is      128.6 secs

     total energy              =   -5267.70607926 Ry
     Harris-Foulkes estimate   =   -5267.71162075 Ry
     estimated scf accuracy    <       0.03091260 Ry

     iteration #  5     ecut=    71.00 Ry     beta= 0.10
     Davidson diagonalization with overlap
     ethr =  1.21E-05,  avg # of iterations =  2.0

     total cpu time spent up to now is      148.5 secs

     total energy              =   -5267.70519648 Ry
     Harris-Foulkes estimate   =   -5267.70798953 Ry
     estimated scf accuracy    <       0.02179888 Ry

     iteration #  6     ecut=    71.00 Ry     beta= 0.10
     Davidson diagonalization with overlap
     ethr =  8.52E-06,  avg # of iterations =  2.9

     total cpu time spent up to now is      174.7 secs

     total energy              =   -5267.70847628 Ry
     Harris-Foulkes estimate   =   -5267.70771724 Ry
     estimated scf accuracy    <       0.01111921 Ry

     iteration #  7     ecut=    71.00 Ry     beta= 0.10
     Davidson diagonalization with overlap
     ethr =  4.34E-06,  avg # of iterations =  1.1

     total cpu time spent up to now is      191.4 secs

     total energy              =   -5267.70723060 Ry
     Harris-Foulkes estimate   =   -5267.70885950 Ry
     estimated scf accuracy    <       0.01309520 Ry

     iteration #  8     ecut=    71.00 Ry     beta= 0.10
     Davidson diagonalization with overlap
     ethr =  4.34E-06,  avg # of iterations =  1.0

     total cpu time spent up to now is      208.0 secs

     total energy              =   -5267.70756911 Ry
     Harris-Foulkes estimate   =   -5267.70803448 Ry
     estimated scf accuracy    <       0.00773505 Ry

     iteration #  9     ecut=    71.00 Ry     beta= 0.10
     Davidson diagonalization with overlap
     ethr =  3.02E-06,  avg # of iterations =  2.1

     total cpu time spent up to now is      228.8 secs

     total energy              =   -5267.70793578 Ry
     Harris-Foulkes estimate   =   -5267.70794619 Ry
     estimated scf accuracy    <       0.00043412 Ry

     iteration # 10     ecut=    71.00 Ry     beta= 0.10
     Davidson diagonalization with overlap
     ethr =  1.70E-07,  avg # of iterations =  2.3

     total cpu time spent up to now is      250.0 secs

     total energy              =   -5267.70794408 Ry
     Harris-Foulkes estimate   =   -5267.70795520 Ry
     estimated scf accuracy    <       0.00019744 Ry

     iteration # 11     ecut=    71.00 Ry     beta= 0.10
     Davidson diagonalization with overlap
     ethr =  7.71E-08,  avg # of iterations =  1.0

     total cpu time spent up to now is      266.5 secs

     End of self-consistent calculation

          k = 0.0556 0.0556 0.0555 ( 11303 PWs)   bands (ev):

   -66.8293 -66.7305 -66.7304 -66.7300 -66.7141 -66.7139 -66.7136 -66.7130
   -66.7130 -66.7125 -66.7123 -66.7122 -66.7119 -66.7050 -66.7048 -66.6289
   -33.1248 -33.1247 -33.1242 -33.1217 -33.1217 -33.1212 -32.9583 -32.9561
   -32.9509 -32.8815 -32.8787 -32.8784 -32.8784 -32.8569 -32.8567 -32.8437
   -32.8432 -32.8430 -32.8061 -32.8059 -32.7816 -32.7658 -32.7657 -32.7650
   -32.7543 -32.7542 -32.7537 -32.7416 -32.7402 -32.7398 -32.7384 -32.7370
   -32.7367 -32.7299 -32.7299 -32.7292 -32.7190 -32.7190 -32.7184 -32.5554
   -32.5540 -32.5535 -32.5534 -32.5509 -32.5504 -32.5504 -32.5489 -32.5486
    11.4300  15.3066  15.3180  15.3180  15.4380  15.4386  15.4387  15.4639
    15.4646  15.4647  15.7055  15.7108  15.8190  15.8307  15.8307  17.1992
    17.2872  17.2873  17.2904  17.3010  17.3033  17.3033  17.3172  17.3172
    17.4271  17.4332  17.4770  17.7290  17.7332  17.7333  18.1223  18.1273
    18.1276  18.6049  18.6129  18.6576  18.9333  18.9334  18.9406  19.0381
    19.0382  19.0442  19.1246  19.1248  19.1327  19.2203  19.2204  19.2280
    19.9674  19.9677  19.9730  20.1885  20.1886  20.1991  20.2180  20.2181
    20.2221  20.3546  20.3547  20.3568  20.3569  20.3690  20.3705  20.3871
    20.4004  20.6413  20.6414  20.6539  20.6541  20.6572  20.6603  20.6979
    20.6982  20.7056  20.7059  21.1869  21.1871  21.1986  21.4150  21.4519
    21.4715  21.4716  21.4928  21.4949  21.9208  21.9209  21.9237  21.9295
    21.9549  21.9549

          k = 0.0556 0.0556 0.1664 ( 11329 PWs)   bands (ev):

   -66.8257 -66.7482 -66.7296 -66.7293 -66.7161 -66.7158 -66.7132 -66.7127
   -66.7124 -66.7118 -66.7114 -66.7112 -66.7055 -66.7052 -66.6961 -66.6316
   -33.1169 -33.1169 -33.1151 -33.1124 -33.1079 -33.1079 -32.9618 -32.9500
   -32.9409 -32.9183 -32.9100 -32.9099 -32.9074 -32.9068 -32.8762 -32.8759
   -32.8405 -32.8126 -32.8025 -32.8006 -32.7886 -32.7650 -32.7648 -32.7570
   -32.7476 -32.7441 -32.7438 -32.7436 -32.7435 -32.7344 -32.7340 -32.7298
   -32.7295 -32.7266 -32.7265 -32.6945 -32.6926 -32.6924 -32.6846 -32.5705
   -32.5630 -32.5630 -32.5619 -32.5593 -32.5542 -32.5537 -32.5537 -32.5513
    11.5675  14.6761  15.3741  15.3742  15.4491  15.4491  15.5292  15.5293
    15.5384  15.5629  15.7678  15.7754  15.8738  15.8738  16.1542  17.0887
    17.2004  17.2057  17.2697  17.2821  17.3205  17.3385  17.3535  17.3535
    17.3949  17.3949  17.6231  17.6351  17.6876  17.6877  18.0277  18.0279
    18.4755  18.5846  18.6008  18.7234  18.7240  18.7241  18.7905  18.9036
    18.9036  18.9470  19.2103  19.2105  19.3263  19.3264  19.3682  19.4691
    19.6539  19.6541  19.7295  19.9458  19.9460  19.9592  20.1214  20.1976
    20.1978  20.2958  20.2960  20.3137  20.3814  20.3816  20.3897  20.4159
    20.4295  20.4411  20.4411  20.4698  20.6630  20.6777  20.6780  20.7035
    20.7037  20.8808  20.9824  20.9825  21.1427  21.2418  21.3564  21.4795
    21.4795  21.4849  21.5218  21.5220  21.8239  21.8240  21.9995  21.9995
    22.0853  22.0853

          k = 0.0556 0.0556 0.2773 ( 11346 PWs)   bands (ev):

   -66.8190 -66.7655 -66.7282 -66.7279 -66.7184 -66.7182 -66.7123 -66.7123
   -66.7119 -66.7110 -66.7109 -66.7106 -66.7066 -66.7060 -66.6806 -66.6368
   -33.0985 -33.0985 -33.0972 -33.0952 -33.0840 -33.0840 -32.9627 -32.9601
   -32.9546 -32.9517 -32.9516 -32.9373 -32.9298 -32.9260 -32.9205 -32.9203
   -32.8350 -32.8254 -32.8226 -32.8078 -32.7629 -32.7625 -32.7585 -32.7581
   -32.7540 -32.7480 -32.7476 -32.7325 -32.7321 -32.7299 -32.7296 -32.7107
   -32.7030 -32.6913 -32.6912 -32.6617 -32.6594 -32.6592 -32.6525 -32.5963
   -32.5785 -32.5785 -32.5774 -32.5757 -32.5659 -32.5632 -32.5631 -32.5608
    11.8384  14.0003  15.4606  15.4606  15.4864  15.4864  15.6274  15.6275
    15.7312  15.7529  15.8832  15.9034  15.9236  15.9236  16.2989  16.9246
    16.9685  16.9704  17.1562  17.2045  17.2383  17.2488  17.4655  17.4655
    17.5340  17.5341  17.6787  17.6789  17.8774  17.8990  17.9591  17.9593
    18.4348  18.4349  18.5672  18.5947  18.5964  18.5964  18.6336  18.6821
    18.8175  19.0750  19.0920  19.0922  19.3082  19.3084  19.4693  19.4694
    19.4988  19.5074  19.5076  19.5274  19.5745  19.6474  19.7583  20.1694
    20.1964  20.1965  20.2943  20.2944  20.4264  20.4404  20.4850  20.5011
    20.5013  20.6398  20.6408  20.6684  20.6983  20.7003  20.7082  20.7340
    20.7341  20.7510  20.9368  20.9801  21.1073  21.1788  21.1788  21.4129
    21.4936  21.4936  21.5762  21.5763  21.6968  21.6968  22.0800  22.0800
    22.2198  22.2199

          k = 0.0556 0.0556 0.3882 ( 11367 PWs)   bands (ev):

   -66.8092 -66.7819 -66.7262 -66.7259 -66.7210 -66.7207 -66.7118 -66.7115
   -66.7111 -66.7108 -66.7106 -66.7097 -66.7080 -66.7071 -66.6666 -66.6444
   -33.0714 -33.0708 -33.0708 -33.0703 -33.0508 -33.0508 -33.0012 -32.9989
   -32.9952 -32.9951 -32.9669 -32.9668 -32.9612 -32.9457 -32.9188 -32.9064
   -32.8668 -32.8541 -32.8090 -32.7969 -32.7738 -32.7677 -32.7598 -32.7594
   -32.7520 -32.7516 -32.7310 -32.7307 -32.7299 -32.7296 -32.7132 -32.6683
   -32.6641 -32.6568 -32.6568 -32.6318 -32.6300 -32.6279 -32.6278 -32.6231
   -32.6000 -32.6000 -32.5995 -32.5995 -32.5833 -32.5788 -32.5787 -32.5768
    12.2344  13.3407  15.5318  15.5318  15.5332  15.5332  15.7453  15.7454
    15.9254  15.9254  16.0004  16.0170  16.0311  16.0919  16.2887  16.6312
    16.6507  16.6584  17.1486  17.1657  17.2008  17.2096  17.6346  17.6346
    17.7286  17.7286  17.7981  17.7983  17.9963  17.9965  18.1740  18.1740
    18.2050  18.2259  18.2888  18.2889  18.5619  18.5632  18.5634  18.5924
    18.6122  18.6222  18.7390  18.7392  18.9432  19.0549  19.0590  19.2873
    19.3833  19.7072  19.7073  19.7341  19.7343  19.9594  19.9658  20.0621
    20.0622  20.0857  20.1596  20.1597  20.4756  20.4845  20.5645  20.5888
    20.5916  20.6582  20.6755  20.6915  20.6975  20.7102  20.7859  20.7875
    20.8026  20.8028  20.9296  21.0215  21.0215  21.2119  21.2120  21.2900
    21.4672  21.4672  21.5107  21.5108  21.5806  21.5806  22.1775  22.1775
    22.2870  22.2870

          k = 0.0556 0.0556-0.4991 ( 11348 PWs)   bands (ev):

   -66.7967 -66.7964 -66.7240 -66.7235 -66.7232 -66.7232 -66.7116 -66.7111
   -66.7109 -66.7108 -66.7097 -66.7094 -66.7086 -66.7082 -66.6546 -66.6542
   -33.0387 -33.0384 -33.0384 -33.0381 -33.0356 -33.0356 -33.0355 -33.0354
   -33.0113 -33.0112 -33.0110 -33.0110 -32.9557 -32.9555 -32.8952 -32.8948
   -32.8824 -32.8822 -32.7915 -32.7912 -32.7828 -32.7825 -32.7563 -32.7560
   -32.7560 -32.7556 -32.7305 -32.7302 -32.7301 -32.7298 -32.6692 -32.6690
   -32.6313 -32.6308 -32.6295 -32.6290 -32.6260 -32.6259 -32.6257 -32.6257
   -32.6055 -32.6051 -32.6005 -32.6003 -32.6003 -32.6002 -32.5978 -32.5975
    12.7418  12.7422  15.5564  15.5564  15.5567  15.5567  15.8570  15.8571
    15.8573  15.8574  16.1807  16.1813  16.3206  16.3211  16.3288  16.3292
    16.3364  16.3367  17.1669  17.1675  17.1763  17.1770  17.8494  17.8496
    17.8497  17.8498  17.9455  17.9456  17.9457  17.9459  18.1509  18.1514
    18.1515  18.1515  18.3105  18.3108  18.3109  18.3109  18.5745  18.5749
    18.5999  18.6003  18.6008  18.6013  18.6135  18.6139  19.1008  19.1009
    19.6921  19.6927  19.8968  19.8968  19.8969  19.8972  19.9706  19.9706
    19.9707  19.9709  20.3101  20.3102  20.4363  20.4365  20.5316  20.5319
    20.5371  20.5373  20.6650  20.6654  20.6834  20.6837  20.6984  20.6988
    21.0607  21.0610  21.0610  21.0610  21.1261  21.1266  21.2725  21.2727
    21.2727  21.2728  21.5307  21.5308  21.5309  21.5310  22.2603  22.2603
    22.2605  22.2605

          k = 0.0556 0.1667 0.0555 ( 11336 PWs)   bands (ev):

   -66.8257 -66.7480 -66.7298 -66.7294 -66.7160 -66.7157 -66.7134 -66.7128
   -66.7125 -66.7119 -66.7114 -66.7111 -66.7056 -66.7052 -66.6959 -66.6316
   -33.1168 -33.1162 -33.1156 -33.1128 -33.1078 -33.1074 -32.9604 -32.9514
   -32.9411 -32.9183 -32.9096 -32.9095 -32.9073 -32.9068 -32.8757 -32.8755
   -32.8407 -32.8130 -32.8029 -32.8015 -32.7892 -32.7662 -32.7649 -32.7568
   -32.7463 -32.7453 -32.7439 -32.7436 -32.7423 -32.7356 -32.7342 -32.7310
   -32.7298 -32.7257 -32.7256 -32.6951 -32.6919 -32.6916 -32.6851 -32.5703
   -32.5635 -32.5631 -32.5615 -32.5587 -32.5545 -32.5541 -32.5536 -32.5513
    11.5680  14.6864  15.3639  15.3746  15.4488  15.4489  15.5287  15.5291
    15.5395  15.5642  15.7698  15.7741  15.8632  15.8742  16.1656  17.0911
    17.2007  17.2120  17.2849  17.2973  17.3253  17.3378  17.3414  17.3536
    17.3791  17.3950  17.6168  17.6285  17.6842  17.6878  18.0242  18.0282
    18.4797  18.5821  18.6077  18.7147  18.7179  18.7264  18.7847  18.8948
    18.9067  18.9446  19.2192  19.2198  19.3351  19.3366  19.3598  19.4605
    19.6552  19.6645  19.7229  19.9477  19.9492  19.9593  20.1078  20.1972
    20.2020  20.2934  20.3079  20.3234  20.3757  20.3766  20.3918  20.4027
    20.4209  20.4409  20.4446  20.4669  20.6567  20.6808  20.6810  20.6984
    20.6986  20.8726  20.9828  20.9922  21.1567  21.2405  21.3536  21.4608
    21.4798  21.4867  21.5212  21.5297  21.8243  21.8267  21.9756  22.0001
    22.0849  22.0929

          k = 0.0556 0.1667 0.1664 ( 11344 PWs)   bands (ev):

   -66.8224 -66.7469 -66.7466 -66.7288 -66.7209 -66.7154 -66.7151 -66.7123
   -66.7110 -66.7107 -66.7074 -66.7065 -66.7053 -66.6965 -66.6961 -66.6342
   -33.1148 -33.1081 -33.1075 -33.1000 -33.0995 -33.0883 -32.9684 -32.9466
   -32.9419 -32.9368 -32.9366 -32.9291 -32.9257 -32.9215 -32.8972 -32.8512
   -32.8363 -32.8357 -32.8018 -32.7999 -32.7996 -32.7714 -32.7608 -32.7596
   -32.7536 -32.7521 -32.7508 -32.7411 -32.7398 -32.7376 -32.7347 -32.7255
   -32.7159 -32.7035 -32.6959 -32.6956 -32.6725 -32.6597 -32.6590 -32.5918
   -32.5783 -32.5697 -32.5693 -32.5619 -32.5614 -32.5593 -32.5504 -32.5489
    11.7039  14.7521  14.7615  15.3922  15.4370  15.5508  15.5516  15.6269
    15.6279  15.6393  15.8323  15.8372  15.9261  16.1966  16.2069  16.9908
    17.1027  17.2803  17.3173  17.3286  17.3310  17.3322  17.3544  17.3692
    17.3755  17.3968  17.4997  17.6044  17.6274  17.6450  17.9218  18.3011
    18.3031  18.5247  18.5858  18.5879  18.5897  18.6324  18.7767  18.8239
    19.1244  19.1282  19.1864  19.1912  19.2334  19.2969  19.3975  19.4959
    19.5041  19.5064  19.5145  19.6951  19.7074  19.8472  19.9547  19.9597
    20.1882  20.3042  20.3171  20.3291  20.3745  20.3752  20.3872  20.4018
    20.4055  20.5829  20.6299  20.6632  20.6634  20.6796  20.6823  20.6930
    20.6945  20.7933  20.7996  21.0127  21.1198  21.1268  21.1290  21.1427
    21.2526  21.5101  21.5119  21.6439  21.7152  22.0743  22.3927  22.3971
    22.5807  22.7205

          k = 0.0556 0.1667 0.2773 ( 11356 PWs)   bands (ev):

   -66.8158 -66.7637 -66.7442 -66.7274 -66.7261 -66.7177 -66.7142 -66.7118
   -66.7105 -66.7100 -66.7077 -66.7059 -66.7041 -66.6968 -66.6813 -66.6390
   -33.1024 -33.0909 -33.0904 -33.0843 -33.0777 -33.0592 -32.9757 -32.9745
   -32.9718 -32.9608 -32.9583 -32.9567 -32.9340 -32.9317 -32.9058 -32.8821
   -32.8399 -32.8333 -32.7979 -32.7955 -32.7934 -32.7918 -32.7727 -32.7648
   -32.7634 -32.7560 -32.7510 -32.7383 -32.7366 -32.7247 -32.7176 -32.7004
   -32.6977 -32.6840 -32.6753 -32.6636 -32.6472 -32.6295 -32.6290 -32.6220
   -32.5990 -32.5820 -32.5820 -32.5772 -32.5705 -32.5692 -32.5536 -32.5526
    11.9715  14.0945  14.8937  15.3445  15.5354  15.5904  15.7257  15.7469
    15.7777  15.8145  15.9456  15.9639  15.9925  16.2418  16.3480  16.8712
    16.9522  16.9829  17.2168  17.2811  17.3039  17.3115  17.3706  17.4357
    17.4592  17.4949  17.5877  17.6646  17.7719  17.8265  17.8364  18.1720
    18.3289  18.4303  18.4470  18.4679  18.5069  18.5515  18.5693  18.7619
    18.8044  18.9578  18.9856  19.1394  19.2097  19.2897  19.2992  19.3020
    19.3905  19.4799  19.5016  19.5522  19.5819  19.7239  19.7501  20.0656
    20.1911  20.2205  20.2615  20.2945  20.3273  20.3717  20.4095  20.4493
    20.6083  20.6225  20.6244  20.6896  20.6952  20.7146  20.7193  20.7291
    20.7797  20.8934  20.9079  20.9129  20.9291  20.9565  21.0131  21.1137
    21.2284  21.4411  21.4954  21.5782  21.7106  22.2127  22.2310  22.7915
    22.9011  23.0147

          k = 0.0556 0.1667 0.3882 ( 11340 PWs)   bands (ev):

   -66.8062 -66.7796 -66.7406 -66.7313 -66.7252 -66.7202 -66.7128 -66.7113
   -66.7105 -66.7094 -66.7089 -66.7067 -66.7014 -66.6978 -66.6677 -66.6464
   -33.0805 -33.0658 -33.0652 -33.0624 -33.0473 -33.0215 -33.0147 -33.0040
   -32.9979 -32.9969 -32.9777 -32.9712 -32.9696 -32.9308 -32.9158 -32.8825
   -32.8645 -32.8256 -32.8219 -32.7899 -32.7894 -32.7822 -32.7728 -32.7705
   -32.7639 -32.7613 -32.7462 -32.7374 -32.7370 -32.7107 -32.7009 -32.6882
   -32.6626 -32.6590 -32.6525 -32.6472 -32.6343 -32.6243 -32.6219 -32.6022
   -32.6017 -32.6004 -32.5996 -32.5995 -32.5873 -32.5819 -32.5632 -32.5631
    12.3622  13.4497  15.0488  15.2836  15.6224  15.6357  15.8431  15.9345
    16.0115  16.0202  16.0732  16.0928  16.1469  16.2052  16.3452  16.6614
    16.6635  16.6766  17.1844  17.2275  17.2383  17.2624  17.5408  17.5850
    17.6003  17.6552  17.6564  17.8054  17.8810  18.0171  18.0625  18.1237
    18.2266  18.2389  18.2959  18.3105  18.4298  18.4309  18.4757  18.5089
    18.5234  18.5527  18.6304  18.7696  18.8408  18.8420  19.1156  19.5000
    19.5265  19.6857  19.6928  19.7423  19.7449  19.7633  19.9354  20.0079
    20.0400  20.0892  20.1598  20.2016  20.3764  20.4309  20.4546  20.5305
    20.5651  20.5710  20.5736  20.6873  20.6939  20.7026  20.7035  20.7578
    20.7788  20.8097  20.8458  20.9693  20.9756  21.0713  21.1127  21.2110
    21.2173  21.2222  21.4171  21.6139  21.6956  22.0494  22.3922  22.7224
    23.0745  23.2167

          k = 0.0556 0.1667-0.4991 ( 11338 PWs)   bands (ev):

   -66.7941 -66.7937 -66.7364 -66.7360 -66.7230 -66.7226 -66.7113 -66.7110
   -66.7108 -66.7105 -66.7081 -66.7077 -66.6995 -66.6991 -66.6562 -66.6559
   -33.0508 -33.0507 -33.0351 -33.0348 -33.0346 -33.0343 -33.0328 -33.0327
   -33.0107 -33.0106 -32.9782 -32.9781 -32.9764 -32.9763 -32.8925 -32.8922
   -32.8558 -32.8556 -32.8023 -32.8020 -32.7819 -32.7815 -32.7779 -32.7776
   -32.7665 -32.7662 -32.7371 -32.7368 -32.7053 -32.7049 -32.7011 -32.7010
   -32.6545 -32.6545 -32.6285 -32.6281 -32.6244 -32.6241 -32.6214 -32.6214
   -32.6088 -32.6084 -32.5997 -32.5997 -32.5802 -32.5800 -32.5794 -32.5794
    12.8618  12.8622  15.1865  15.1869  15.6563  15.6566  15.9522  15.9525
    16.0890  16.0892  16.2412  16.2417  16.3435  16.3439  16.3719  16.3723
    16.3819  16.3821  17.2003  17.2009  17.2248  17.2254  17.7443  17.7445
    17.7623  17.7627  17.7917  17.7918  17.8508  17.8513  18.1749  18.1751
    18.2148  18.2150  18.2801  18.2802  18.3985  18.3987  18.4158  18.4161
    18.4247  18.4251  18.4658  18.4661  18.5386  18.5390  19.2973  19.2974
    19.7773  19.7779  19.8060  19.8062  19.9273  19.9275  19.9727  19.9729
    20.0100  20.0102  20.0273  20.0274  20.3663  20.3665  20.4980  20.4983
    20.5114  20.5117  20.6337  20.6340  20.6871  20.6875  20.7260  20.7264
    20.8335  20.8335  20.9354  20.9355  21.0447  21.0449  21.1222  21.1223
    21.2858  21.2861  21.4467  21.4468  21.8610  21.8612  22.5763  22.5765
    23.2073  23.2075

          k = 0.0556 0.2778 0.0555 ( 11343 PWs)   bands (ev):

   -66.8190 -66.7653 -66.7282 -66.7279 -66.7184 -66.7181 -66.7125 -66.7123
   -66.7120 -66.7110 -66.7110 -66.7106 -66.7067 -66.7060 -66.6803 -66.6368
   -33.0984 -33.0978 -33.0976 -33.0956 -33.0838 -33.0834 -32.9613 -32.9603
   -32.9547 -32.9513 -32.9510 -32.9388 -32.9291 -32.9265 -32.9198 -32.9197
   -32.8358 -32.8254 -32.8232 -32.8078 -32.7642 -32.7628 -32.7585 -32.7573
   -32.7527 -32.7493 -32.7478 -32.7337 -32.7323 -32.7311 -32.7297 -32.7104
   -32.7027 -32.6906 -32.6904 -32.6621 -32.6588 -32.6584 -32.6529 -32.5961
   -32.5789 -32.5784 -32.5769 -32.5752 -32.5662 -32.5635 -32.5631 -32.5609
    11.8399  14.0089  15.4524  15.4618  15.4858  15.4867  15.6270  15.6272
    15.7334  15.7551  15.8882  15.9006  15.9154  15.9247  16.3097  16.9300
    16.9700  16.9768  17.1595  17.2088  17.2520  17.2624  17.4503  17.4659
    17.5188  17.5345  17.6757  17.6792  17.8690  17.8907  17.9563  17.9598
    18.4243  18.4369  18.5662  18.5859  18.5988  18.6004  18.6324  18.6787
    18.8097  19.0805  19.0920  19.1007  19.3082  19.3179  19.4763  19.4800
    19.4911  19.5150  19.5156  19.5174  19.5621  19.6390  19.7498  20.1792
    20.1944  20.2078  20.2920  20.3062  20.4147  20.4287  20.4780  20.5009
    20.5045  20.6402  20.6412  20.6621  20.6927  20.6946  20.7066  20.7341
    20.7368  20.7440  20.9457  20.9768  21.1028  21.1760  21.1855  21.4144
    21.4770  21.4947  21.5755  21.5799  21.6971  21.7000  22.0591  22.0819
    22.2165  22.2295

          k = 0.0556 0.2778 0.1664 ( 11358 PWs)   bands (ev):

   -66.8158 -66.7635 -66.7444 -66.7273 -66.7261 -66.7176 -66.7144 -66.7118
   -66.7104 -66.7101 -66.7078 -66.7059 -66.7041 -66.6970 -66.6811 -66.6390
   -33.1023 -33.0910 -33.0902 -33.0848 -33.0771 -33.0591 -32.9754 -32.9741
   -32.9719 -32.9604 -32.9584 -32.9566 -32.9342 -32.9314 -32.9061 -32.8816
   -32.8399 -32.8334 -32.7979 -32.7956 -32.7943 -32.7921 -32.7735 -32.7638
   -32.7634 -32.7574 -32.7500 -32.7395 -32.7374 -32.7239 -32.7176 -32.7002
   -32.6978 -32.6838 -32.6751 -32.6636 -32.6469 -32.6297 -32.6288 -32.6221
   -32.5989 -32.5823 -32.5817 -32.5768 -32.5706 -32.5695 -32.5535 -32.5528
    11.9725  14.1024  14.8861  15.3440  15.5361  15.5903  15.7249  15.7486
    15.7773  15.8166  15.9497  15.9614  15.9931  16.2340  16.3578  16.8741
    16.9556  16.9840  17.2209  17.2944  17.3085  17.3245  17.3683  17.4216
    17.4595  17.4810  17.5879  17.6649  17.7651  17.8261  17.8298  18.1703
    18.3303  18.4250  18.4476  18.4690  18.5039  18.5458  18.5686  18.7616
    18.8071  18.9552  18.9941  19.1490  19.1991  19.2780  19.2987  19.3032
    19.3862  19.4846  19.5077  19.5577  19.5894  19.7185  19.7403  20.0646
    20.1981  20.2314  20.2651  20.3065  20.3270  20.3607  20.3976  20.4439
    20.6082  20.6220  20.6236  20.6872  20.6924  20.7131  20.7147  20.7267
    20.7798  20.8875  20.9062  20.9217  20.9333  20.9586  21.0104  21.1011
    21.2332  21.4417  21.4958  21.5789  21.7108  22.2139  22.2351  22.7987
    22.8756  23.0108

          k = 0.0556 0.2778 0.2773 ( 11347 PWs)   bands (ev):

   -66.8095 -66.7602 -66.7599 -66.7340 -66.7258 -66.7166 -66.7163 -66.7114
   -66.7098 -66.7096 -66.7092 -66.7062 -66.6980 -66.6829 -66.6826 -66.6437
   -33.0961 -33.0760 -33.0755 -33.0657 -33.0652 -33.0252 -32.9914 -32.9913
   -32.9881 -32.9873 -32.9782 -32.9751 -32.9526 -32.9227 -32.8812 -32.8410
   -32.8384 -32.8379 -32.8275 -32.8271 -32.7931 -32.7819 -32.7788 -32.7719
   -32.7707 -32.7583 -32.7573 -32.7495 -32.7485 -32.7434 -32.7041 -32.6764
   -32.6678 -32.6675 -32.6610 -32.6576 -32.6544 -32.6303 -32.6239 -32.6028
   -32.6023 -32.5897 -32.5894 -32.5815 -32.5812 -32.5811 -32.5504 -32.5496
    12.2332  14.2704  14.2770  15.1845  15.6593  15.7886  15.7897  15.9107
    15.9123  15.9381  16.0495  16.0936  16.0948  16.3916  16.3991  16.8106
    16.8708  17.0605  17.0617  17.2782  17.3512  17.3716  17.3839  17.4162
    17.4280  17.4911  17.5134  17.6902  17.7148  17.8138  17.8541  18.2243
    18.2245  18.3300  18.3488  18.3500  18.3649  18.3732  18.4269  18.5352
    18.7807  18.7892  18.8435  18.8531  19.0052  19.0558  19.0586  19.1345
    19.5688  19.5697  19.6287  19.6687  19.7138  19.7210  19.9319  20.0181
    20.0218  20.1862  20.2709  20.2808  20.2986  20.3174  20.3286  20.3848
    20.4221  20.5787  20.5804  20.5881  20.6875  20.6973  20.7315  20.7840
    20.7956  20.7983  20.8478  20.8657  20.8740  20.9804  20.9845  21.1594
    21.1611  21.2002  21.5479  21.7394  21.7548  22.4470  22.8616  22.8652
    23.4655  23.4711

          k = 0.0556 0.2778 0.3882 ( 11353 PWs)   bands (ev):

   -66.8003 -66.7752 -66.7551 -66.7417 -66.7239 -66.7190 -66.7149 -66.7112
   -66.7108 -66.7099 -66.7087 -66.7069 -66.6929 -66.6852 -66.6702 -66.6505
   -33.0803 -33.0546 -33.0545 -33.0485 -33.0403 -33.0259 -33.0079 -33.0019
   -33.0009 -32.9997 -32.9968 -32.9845 -32.9804 -32.9053 -32.8882 -32.8569
   -32.8533 -32.8296 -32.8184 -32.7935 -32.7916 -32.7909 -32.7905 -32.7863
   -32.7848 -32.7776 -32.7624 -32.7482 -32.7469 -32.7212 -32.6990 -32.6921
   -32.6739 -32.6531 -32.6484 -32.6404 -32.6385 -32.6338 -32.6138 -32.6018
   -32.6012 -32.5992 -32.5965 -32.5888 -32.5802 -32.5801 -32.5533 -32.5531
    12.6126  13.6589  14.5073  14.9898  15.7793  15.8330  16.0266  16.0626
    16.1020  16.1576  16.1627  16.1807  16.2791  16.3636  16.4037  16.6761
    16.6782  16.7696  17.2549  17.2645  17.2990  17.3134  17.3439  17.4851
    17.5011  17.5395  17.6236  17.6245  17.8779  17.9619  17.9736  17.9910
    18.1025  18.1976  18.2101  18.2691  18.2825  18.3078  18.3902  18.4158
    18.4305  18.4976  18.5047  18.5188  18.6474  18.7135  19.3338  19.3511
    19.7077  19.7236  19.7836  19.8160  19.8186  19.8249  19.8286  19.9264
    20.0311  20.0792  20.1476  20.1873  20.2097  20.3302  20.3516  20.3786
    20.4760  20.4951  20.5127  20.5176  20.6225  20.6938  20.7041  20.7158
    20.7363  20.8055  20.8140  20.8366  20.8429  20.9183  20.9371  21.0039
    21.3325  21.3913  21.5363  21.6914  22.0077  22.5899  22.7345  23.2867
    23.5401  24.1645

          k = 0.0556 0.2778-0.4991 ( 11362 PWs)   bands (ev):

   -66.7889 -66.7886 -66.7490 -66.7487 -66.7217 -66.7214 -66.7132 -66.7129
   -66.7104 -66.7100 -66.7080 -66.7076 -66.6888 -66.6884 -66.6595 -66.6591
   -33.0565 -33.0565 -33.0291 -33.0290 -33.0288 -33.0287 -33.0287 -33.0286
   -33.0109 -33.0108 -33.0012 -33.0011 -32.9379 -32.9378 -32.8833 -32.8830
   -32.8228 -32.8227 -32.8117 -32.8115 -32.8070 -32.8066 -32.7830 -32.7827
   -32.7757 -32.7755 -32.7482 -32.7479 -32.7445 -32.7445 -32.6859 -32.6859
   -32.6823 -32.6819 -32.6221 -32.6218 -32.6185 -32.6182 -32.6165 -32.6161
   -32.6159 -32.6158 -32.5999 -32.5998 -32.5635 -32.5634 -32.5634 -32.5633
    13.0953  13.0957  14.7569  14.7574  15.8408  15.8411  16.1259  16.1261
    16.2526  16.2528  16.3144  16.3148  16.3781  16.3785  16.4410  16.4414
    16.5066  16.5070  17.2656  17.2661  17.2919  17.2924  17.5621  17.5625
    17.5809  17.5814  17.5940  17.5943  17.7863  17.7863  18.1647  18.1650
    18.1856  18.1858  18.1959  18.1960  18.2291  18.2293  18.2310  18.2313
    18.3891  18.3893  18.4017  18.4018  18.4591  18.4595  19.5498  19.5500
    19.6795  19.6796  19.7412  19.7415  19.9109  19.9114  19.9966  19.9967
    20.0139  20.0140  20.0460  20.0461  20.1950  20.1952  20.4329  20.4331
    20.4459  20.4462  20.5770  20.5773  20.6220  20.6221  20.7074  20.7077
    20.7343  20.7345  20.7565  20.7567  20.8490  20.8492  20.9759  20.9760
    21.4613  21.4615  21.5732  21.5733  22.2981  22.2983  23.0289  23.0291
    24.2340  24.2344

          k = 0.0556 0.3889 0.0555 ( 11350 PWs)   bands (ev):

   -66.8091 -66.7817 -66.7262 -66.7258 -66.7210 -66.7206 -66.7118 -66.7116
   -66.7111 -66.7109 -66.7106 -66.7098 -66.7081 -66.7072 -66.6664 -66.6444
   -33.0718 -33.0707 -33.0706 -33.0701 -33.0506 -33.0502 -33.0014 -32.9990
   -32.9945 -32.9942 -32.9663 -32.9660 -32.9598 -32.9446 -32.9202 -32.9070
   -32.8679 -32.8548 -32.8087 -32.7967 -32.7729 -32.7666 -32.7612 -32.7597
   -32.7535 -32.7520 -32.7323 -32.7312 -32.7309 -32.7298 -32.7134 -32.6679
   -32.6637 -32.6563 -32.6560 -32.6322 -32.6297 -32.6274 -32.6271 -32.6234
   -32.5997 -32.5996 -32.5995 -32.5993 -32.5835 -32.5788 -32.5784 -32.5770
    12.2373  13.3474  15.5277  15.5304  15.5328  15.5349  15.7440  15.7456
    15.9203  15.9267  16.0038  16.0205  16.0377  16.0897  16.2984  16.6313
    16.6563  16.6642  17.1547  17.1719  17.2123  17.2211  17.6203  17.6355
    17.7143  17.7295  17.7954  17.7997  17.9943  17.9946  18.1660  18.1744
    18.1952  18.2162  18.2773  18.2905  18.5609  18.5614  18.5694  18.5966
    18.6074  18.6240  18.7369  18.7454  18.9346  19.0434  19.0473  19.2789
    19.3916  19.7117  19.7176  19.7392  19.7458  19.9580  19.9690  20.0614
    20.0730  20.0774  20.1601  20.1720  20.4662  20.4752  20.5606  20.5857
    20.5884  20.6531  20.6693  20.6857  20.6916  20.7037  20.7814  20.7899
    20.8028  20.8045  20.9291  21.0223  21.0234  21.2083  21.2147  21.2911
    21.4670  21.4692  21.4973  21.5131  21.5782  21.5848  22.1606  22.1812
    22.2793  22.2952

          k = 0.0556 0.3889 0.1664 ( 11340 PWs)   bands (ev):

   -66.8061 -66.7794 -66.7408 -66.7313 -66.7252 -66.7201 -66.7129 -66.7112
   -66.7104 -66.7094 -66.7091 -66.7068 -66.7014 -66.6979 -66.6676 -66.6464
   -33.0804 -33.0662 -33.0645 -33.0627 -33.0467 -33.0214 -33.0143 -33.0041
   -32.9981 -32.9963 -32.9773 -32.9705 -32.9692 -32.9304 -32.9161 -32.8831
   -32.8647 -32.8264 -32.8216 -32.7897 -32.7893 -32.7812 -32.7729 -32.7716
   -32.7630 -32.7626 -32.7466 -32.7387 -32.7382 -32.7108 -32.7010 -32.6875
   -32.6622 -32.6591 -32.6524 -32.6469 -32.6343 -32.6241 -32.6218 -32.6028
   -32.6012 -32.6000 -32.5997 -32.5991 -32.5873 -32.5821 -32.5635 -32.5629
    12.3647  13.4558  15.0434  15.2821  15.6237  15.6362  15.8429  15.9334
    16.0124  16.0231  16.0764  16.0990  16.1444  16.2005  16.3541  16.6633
    16.6659  16.6813  17.1905  17.2336  17.2494  17.2732  17.5384  17.5722
    17.6009  17.6443  17.6553  17.8026  17.8820  18.0178  18.0534  18.1148
    18.2248  18.2340  18.2945  18.3029  18.4314  18.4323  18.4776  18.5143
    18.5190  18.5507  18.6367  18.7675  18.8304  18.8309  19.1115  19.4952
    19.5312  19.6885  19.6896  19.7504  19.7537  19.7677  19.9348  20.0158
    20.0311  20.0994  20.1714  20.2039  20.3736  20.4218  20.4448  20.5269
    20.5616  20.5671  20.5756  20.6842  20.6900  20.6974  20.6997  20.7618
    20.7738  20.8099  20.8396  20.9699  20.9776  21.0607  21.1118  21.2120
    21.2203  21.2239  21.4173  21.6143  21.6974  22.0530  22.3950  22.7286
    23.0537  23.2069

          k = 0.0556 0.3889 0.2773 ( 11352 PWs)   bands (ev):

   -66.8003 -66.7751 -66.7552 -66.7418 -66.7239 -66.7189 -66.7150 -66.7112
   -66.7107 -66.7098 -66.7088 -66.7069 -66.6928 -66.6853 -66.6701 -66.6504
   -33.0801 -33.0550 -33.0540 -33.0490 -33.0398 -33.0257 -33.0079 -33.0016
   -33.0010 -32.9997 -32.9966 -32.9844 -32.9802 -32.9053 -32.8879 -32.8568
   -32.8536 -32.8293 -32.8185 -32.7935 -32.7920 -32.7913 -32.7901 -32.7861
   -32.7853 -32.7788 -32.7616 -32.7491 -32.7475 -32.7207 -32.6990 -32.6922
   -32.6739 -32.6528 -32.6484 -32.6402 -32.6383 -32.6337 -32.6139 -32.6014
   -32.6014 -32.5989 -32.5964 -32.5890 -32.5807 -32.5797 -32.5533 -32.5532
    12.6141  13.6638  14.5026  14.9887  15.7798  15.8327  16.0256  16.0648
    16.1013  16.1578  16.1653  16.1832  16.2786  16.3594  16.4101  16.6786
    16.6807  16.7698  17.2598  17.2628  17.3033  17.3233  17.3532  17.4849
    17.4907  17.5304  17.6218  17.6248  17.8714  17.9618  17.9678  17.9916
    18.1026  18.1957  18.2104  18.2659  18.2830  18.3072  18.3951  18.4137
    18.4369  18.4953  18.4965  18.5104  18.6463  18.7152  19.3322  19.3486
    19.7114  19.7261  19.7801  19.8187  19.8204  19.8272  19.8328  19.9201
    20.0299  20.0837  20.1563  20.1970  20.2122  20.3326  20.3435  20.3696
    20.4738  20.4924  20.5102  20.5147  20.6177  20.6928  20.7079  20.7145
    20.7342  20.7981  20.8138  20.8335  20.8443  20.9187  20.9380  21.0064
    21.3315  21.3927  21.5361  21.6920  22.0086  22.5929  22.7360  23.2910
    23.5374  24.1395

          k = 0.0556 0.3889 0.3882 ( 11348 PWs)   bands (ev):

   -66.7919 -66.7689 -66.7687 -66.7517 -66.7220 -66.7174 -66.7171 -66.7132
   -66.7101 -66.7091 -66.7089 -66.7074 -66.6853 -66.6741 -66.6738 -66.6564
   -33.0706 -33.0400 -33.0397 -33.0312 -33.0309 -33.0286 -33.0285 -33.0138
   -33.0129 -33.0109 -33.0100 -32.9945 -32.9401 -32.8896 -32.8453 -32.8449
   -32.8415 -32.8411 -32.8271 -32.8216 -32.8128 -32.7977 -32.7970 -32.7958
   -32.7814 -32.7617 -32.7610 -32.7554 -32.7549 -32.7543 -32.7445 -32.6847
   -32.6754 -32.6495 -32.6491 -32.6310 -32.6247 -32.6215 -32.6102 -32.6070
   -32.6054 -32.6052 -32.5997 -32.5995 -32.5636 -32.5634 -32.5498 -32.5497
    12.9746  13.9498  13.9531  14.6523  15.9539  16.0969  16.0981  16.2424
    16.2654  16.2672  16.2770  16.2962  16.4040  16.4074  16.4786  16.5940
    16.6514  16.9862  16.9872  17.3023  17.3190  17.3824  17.3998  17.4074
    17.4105  17.4165  17.5010  17.6228  17.7036  17.8156  17.9256  18.0046
    18.0048  18.0960  18.1559  18.1719  18.1846  18.1908  18.2191  18.2238
    18.3535  18.3541  18.3571  18.4398  18.4791  18.9967  18.9982  19.5706
    19.6697  19.7481  19.8095  19.8128  19.9289  19.9293  19.9497  19.9593
    20.0764  20.0785  20.1126  20.1969  20.2345  20.2403  20.2407  20.2526
    20.2593  20.4330  20.4366  20.4509  20.5391  20.6320  20.6359  20.6613
    20.7097  20.7402  20.7729  20.7738  20.8105  20.8656  20.8672  20.8907
    21.5172  21.5181  21.5961  21.7024  22.3836  23.1309  23.1685  23.1704
    23.8996  23.9024

          k = 0.0556 0.3889-0.4991 ( 11358 PWs)   bands (ev):

   -66.7814 -66.7811 -66.7610 -66.7606 -66.7199 -66.7196 -66.7155 -66.7151
   -66.7097 -66.7093 -66.7083 -66.7080 -66.6792 -66.6788 -66.6645 -66.6641
   -33.0531 -33.0531 -33.0244 -33.0242 -33.0241 -33.0240 -33.0240 -33.0239
   -33.0220 -33.0217 -33.0123 -33.0121 -32.8916 -32.8916 -32.8694 -32.8690
   -32.8304 -32.8301 -32.8157 -32.8156 -32.7996 -32.7994 -32.7927 -32.7927
   -32.7882 -32.7882 -32.7736 -32.7735 -32.7597 -32.7596 -32.7189 -32.7189
   -32.6611 -32.6607 -32.6281 -32.6277 -32.6143 -32.6140 -32.6135 -32.6133
   -32.6120 -32.6118 -32.6021 -32.6019 -32.5532 -32.5532 -32.5531 -32.5531
    13.4283  13.4288  14.2947  14.2952  16.0726  16.0729  16.3344  16.3346
    16.3474  16.3476  16.3625  16.3629  16.3791  16.3795  16.5043  16.5046
    16.7201  16.7205  17.2845  17.2850  17.3287  17.3289  17.3299  17.3301
    17.3973  17.3977  17.4554  17.4557  17.8326  17.8326  17.9569  17.9570
    18.0425  18.0426  18.0461  18.0463  18.0610  18.0611  18.1088  18.1089
    18.3709  18.3711  18.3922  18.3926  18.6607  18.6608  19.3196  19.3198
    19.7446  19.7448  19.8195  19.8196  19.9984  19.9986  20.0463  20.0467
    20.0995  20.0997  20.1017  20.1018  20.1052  20.1053  20.3382  20.3384
    20.3456  20.3458  20.3725  20.3727  20.5129  20.5133  20.5640  20.5644
    20.7342  20.7345  20.7856  20.7858  20.7978  20.7980  20.8785  20.8787
    21.5888  21.5890  21.6438  21.6438  22.7789  22.7791  23.5317  23.5319
    23.7614  23.7618

          k = 0.0556-0.5000 0.0555 ( 11354 PWs)   bands (ev):

   -66.7965 -66.7965 -66.7238 -66.7236 -66.7233 -66.7231 -66.7114 -66.7112
   -66.7110 -66.7107 -66.7096 -66.7096 -66.7086 -66.7085 -66.6544 -66.6543
   -33.0389 -33.0387 -33.0386 -33.0385 -33.0351 -33.0350 -33.0348 -33.0346
   -33.0107 -33.0107 -33.0103 -33.0101 -32.9547 -32.9545 -32.8963 -32.8962
   -32.8832 -32.8831 -32.7909 -32.7907 -32.7823 -32.7821 -32.7576 -32.7576
   -32.7560 -32.7558 -32.7316 -32.7316 -32.7303 -32.7301 -32.6693 -32.6692
   -32.6306 -32.6305 -32.6290 -32.6289 -32.6259 -32.6256 -32.6253 -32.6253
   -32.6058 -32.6057 -32.6004 -32.6002 -32.6000 -32.6000 -32.5980 -32.5979
    12.7466  12.7469  15.5534  15.5536  15.5581  15.5582  15.8544  15.8546
    15.8580  15.8582  16.1890  16.1891  16.3254  16.3257  16.3336  16.3338
    16.3351  16.3355  17.1761  17.1763  17.1854  17.1856  17.8367  17.8368
    17.8508  17.8510  17.9353  17.9354  17.9468  17.9469  18.1487  18.1488
    18.1521  18.1523  18.3075  18.3076  18.3141  18.3142  18.5723  18.5725
    18.5892  18.5893  18.6027  18.6030  18.6034  18.6035  19.0918  19.0921
    19.7014  19.7016  19.8984  19.8987  19.9074  19.9075  19.9731  19.9734
    19.9827  19.9829  20.3033  20.3034  20.4288  20.4289  20.5251  20.5252
    20.5305  20.5306  20.6647  20.6648  20.6775  20.6776  20.6922  20.6924
    21.0604  21.0605  21.0616  21.0618  21.1265  21.1266  21.2735  21.2736
    21.2739  21.2741  21.5222  21.5222  21.5345  21.5347  22.2480  22.2481
    22.2663  22.2665

          k = 0.0556-0.5000 0.1664 ( 11352 PWs)   bands (ev):

   -66.7938 -66.7938 -66.7363 -66.7363 -66.7227 -66.7227 -66.7113 -66.7112
   -66.7106 -66.7105 -66.7080 -66.7079 -66.6994 -66.6994 -66.6560 -66.6559
   -33.0503 -33.0503 -33.0355 -33.0353 -33.0349 -33.0347 -33.0321 -33.0319
   -33.0101 -33.0099 -32.9778 -32.9778 -32.9761 -32.9759 -32.8927 -32.8925
   -32.8566 -32.8565 -32.8017 -32.8016 -32.7819 -32.7817 -32.7774 -32.7772
   -32.7678 -32.7677 -32.7385 -32.7384 -32.7055 -32.7053 -32.7014 -32.7013
   -32.6541 -32.6540 -32.6281 -32.6281 -32.6239 -32.6239 -32.6214 -32.6212
   -32.6086 -32.6085 -32.5998 -32.5996 -32.5805 -32.5805 -32.5790 -32.5789
    12.8660  12.8663  15.1834  15.1836  15.6574  15.6576  15.9527  15.9529
    16.0867  16.0869  16.2490  16.2491  16.3476  16.3479  16.3762  16.3764
    16.3802  16.3806  17.2090  17.2092  17.2333  17.2335  17.7346  17.7347
    17.7568  17.7569  17.7925  17.7927  17.8494  17.8495  18.1757  18.1758
    18.2129  18.2131  18.2820  18.2822  18.3959  18.3961  18.4145  18.4146
    18.4175  18.4176  18.4560  18.4561  18.5353  18.5354  19.2922  19.2925
    19.7847  19.7849  19.8070  19.8073  19.9366  19.9367  19.9831  19.9832
    20.0137  20.0140  20.0235  20.0235  20.3590  20.3591  20.4916  20.4917
    20.5041  20.5042  20.6336  20.6337  20.6835  20.6837  20.7218  20.7219
    20.8309  20.8309  20.9361  20.9363  21.0402  21.0402  21.1238  21.1240
    21.2856  21.2857  21.4478  21.4479  21.8638  21.8640  22.5808  22.5810
    23.1918  23.1920

          k = 0.0556-0.5000 0.2773 ( 11358 PWs)   bands (ev):

   -66.7887 -66.7886 -66.7489 -66.7489 -66.7215 -66.7214 -66.7131 -66.7131
   -66.7102 -66.7101 -66.7079 -66.7078 -66.6887 -66.6886 -66.6593 -66.6593
   -33.0563 -33.0563 -33.0293 -33.0291 -33.0290 -33.0289 -33.0281 -33.0279
   -33.0104 -33.0102 -33.0012 -33.0011 -32.9376 -32.9375 -32.8833 -32.8831
   -32.8234 -32.8233 -32.8111 -32.8110 -32.8070 -32.8068 -32.7838 -32.7837
   -32.7752 -32.7750 -32.7489 -32.7488 -32.7448 -32.7447 -32.6857 -32.6856
   -32.6822 -32.6820 -32.6217 -32.6216 -32.6181 -32.6180 -32.6163 -32.6162
   -32.6160 -32.6158 -32.6000 -32.5999 -32.5638 -32.5638 -32.5631 -32.5630
    13.0984  13.0987  14.7543  14.7546  15.8412  15.8414  16.1258  16.1259
    16.2506  16.2509  16.3192  16.3194  16.3811  16.3814  16.4443  16.4446
    16.5062  16.5065  17.2732  17.2733  17.2988  17.2989  17.5590  17.5591
    17.5797  17.5798  17.5878  17.5880  17.7868  17.7870  18.1562  18.1564
    18.1873  18.1875  18.1947  18.1949  18.2233  18.2234  18.2297  18.2298
    18.3901  18.3901  18.4004  18.4006  18.4572  18.4573  19.5471  19.5473
    19.6775  19.6775  19.7424  19.7427  19.9154  19.9155  20.0035  20.0036
    20.0215  20.0215  20.0490  20.0491  20.1902  20.1904  20.4275  20.4276
    20.4399  20.4400  20.5773  20.5773  20.6210  20.6211  20.7061  20.7063
    20.7305  20.7306  20.7543  20.7544  20.8495  20.8497  20.9772  20.9774
    21.4607  21.4608  21.5741  21.5742  22.3001  22.3004  23.0318  23.0321
    24.2324  24.2327

          k = 0.0556-0.5000 0.3882 ( 11358 PWs)   bands (ev):

   -66.7812 -66.7812 -66.7609 -66.7608 -66.7197 -66.7197 -66.7154 -66.7153
   -66.7095 -66.7095 -66.7082 -66.7081 -66.6791 -66.6790 -66.6643 -66.6642
   -33.0531 -33.0530 -33.0244 -33.0242 -33.0241 -33.0241 -33.0240 -33.0239
   -33.0221 -33.0219 -33.0121 -33.0119 -32.8915 -32.8914 -32.8693 -32.8690
   -32.8304 -32.8302 -32.8152 -32.8151 -32.8000 -32.8000 -32.7928 -32.7928
   -32.7884 -32.7883 -32.7733 -32.7732 -32.7600 -32.7600 -32.7188 -32.7187
   -32.6611 -32.6608 -32.6279 -32.6277 -32.6141 -32.6140 -32.6134 -32.6133
   -32.6121 -32.6119 -32.6021 -32.6020 -32.5533 -32.5532 -32.5531 -32.5530
    13.4301  13.4303  14.2933  14.2935  16.0724  16.0726  16.3336  16.3338
    16.3461  16.3464  16.3644  16.3647  16.3806  16.3808  16.5062  16.5064
    16.7206  16.7208  17.2840  17.2841  17.3321  17.3322  17.3344  17.3345
    17.3959  17.3960  17.4522  17.4524  17.8327  17.8329  17.9522  17.9524
    18.0388  18.0390  18.0478  18.0480  18.0610  18.0612  18.1089  18.1092
    18.3707  18.3709  18.3916  18.3918  18.6613  18.6614  19.3189  19.3189
    19.7456  19.7458  19.8183  19.8186  19.9963  19.9966  20.0480  20.0481
    20.1007  20.1008  20.1050  20.1051  20.1090  20.1090  20.3353  20.3353
    20.3422  20.3423  20.3732  20.3734  20.5136  20.5137  20.5614  20.5615
    20.7338  20.7340  20.7846  20.7848  20.7981  20.7982  20.8792  20.8794
    21.5885  21.5885  21.6442  21.6442  22.7799  22.7801  23.5331  23.5334
    23.7606  23.7608

          k = 0.0556-0.5000-0.4991 ( 11368 PWs)   bands (ev):

   -66.7721 -66.7719 -66.7717 -66.7715 -66.7179 -66.7177 -66.7175 -66.7173
   -66.7090 -66.7089 -66.7087 -66.7084 -66.6713 -66.6711 -66.6709 -66.6706
   -33.0420 -33.0420 -33.0419 -33.0419 -33.0226 -33.0224 -33.0224 -33.0222
   -33.0160 -33.0159 -33.0158 -33.0156 -32.8519 -32.8515 -32.8513 -32.8512
   -32.8428 -32.8428 -32.8425 -32.8423 -32.8115 -32.8115 -32.8114 -32.8114
   -32.7684 -32.7684 -32.7683 -32.7683 -32.7538 -32.7537 -32.7534 -32.7533
   -32.6433 -32.6429 -32.6427 -32.6426 -32.6110 -32.6109 -32.6108 -32.6106
   -32.6069 -32.6069 -32.6068 -32.6066 -32.5498 -32.5497 -32.5497 -32.5497
    13.8385  13.8389  13.8391  13.8392  16.2791  16.2793  16.2794  16.2797
    16.3786  16.3791  16.3791  16.3793  16.4867  16.4868  16.4869  16.4872
    16.9890  16.9892  16.9895  16.9896  17.3243  17.3244  17.3246  17.3247
    17.3721  17.3722  17.3723  17.3724  17.9259  17.9261  17.9262  17.9262
    17.9320  17.9321  17.9321  17.9324  18.0204  18.0204  18.0205  18.0207
    18.3606  18.3607  18.3608  18.3612  18.9743  18.9744  18.9747  18.9749
    19.8346  19.8346  19.8347  19.8352  20.0902  20.0904  20.0906  20.0907
    20.1279  20.1280  20.1281  20.1281  20.2228  20.2229  20.2229  20.2230
    20.2250  20.2250  20.2252  20.2253  20.4906  20.4906  20.4909  20.4912
    20.7630  20.7634  20.7635  20.7636  20.8208  20.8211  20.8213  20.8213
    21.6503  21.6503  21.6504  21.6505  23.2727  23.2731  23.2731  23.2733
    24.0424  24.0427

          k = 0.1667 0.1667 0.0555 ( 11347 PWs)   bands (ev):

   -66.8224 -66.7468 -66.7465 -66.7289 -66.7207 -66.7155 -66.7153 -66.7124
   -66.7111 -66.7109 -66.7073 -66.7065 -66.7054 -66.6963 -66.6960 -66.6341
   -33.1142 -33.1081 -33.1081 -33.1000 -33.1000 -33.0879 -32.9669 -32.9485
   -32.9418 -32.9364 -32.9361 -32.9289 -32.9253 -32.9218 -32.8969 -32.8514
   -32.8361 -32.8356 -32.8020 -32.8014 -32.8011 -32.7707 -32.7600 -32.7596
   -32.7551 -32.7510 -32.7506 -32.7400 -32.7396 -32.7373 -32.7342 -32.7270
   -32.7158 -32.7027 -32.6970 -32.6967 -32.6718 -32.6592 -32.6591 -32.5915
   -32.5787 -32.5693 -32.5693 -32.5614 -32.5613 -32.5598 -32.5509 -32.5487
    11.7044  14.7620  14.7620  15.3926  15.4273  15.5515  15.5515  15.6278
    15.6279  15.6387  15.8306  15.8397  15.9163  16.2074  16.2074  16.9929
    17.1062  17.2825  17.3311  17.3312  17.3323  17.3324  17.3598  17.3694
    17.3695  17.4011  17.4840  17.5992  17.6249  17.6389  17.9193  18.3043
    18.3046  18.5175  18.5791  18.5792  18.5964  18.6385  18.7826  18.8193
    19.1165  19.1169  19.1946  19.1947  19.2424  19.3007  19.4039  19.4964
    19.4964  19.5112  19.5114  19.6961  19.6961  19.8610  19.9536  19.9541
    20.2006  20.3147  20.3160  20.3161  20.3737  20.3737  20.3773  20.3962
    20.4152  20.5844  20.6352  20.6685  20.6686  20.6797  20.6797  20.6858
    20.6868  20.7915  20.7918  21.0114  21.1183  21.1186  21.1429  21.1429
    21.2503  21.4928  21.5137  21.6452  21.7190  22.0522  22.3926  22.3927
    22.5948  22.7506

          k = 0.1667 0.1667 0.1664 ( 11339 PWs)   bands (ev):

   -66.8191 -66.7457 -66.7456 -66.7452 -66.7203 -66.7202 -66.7199 -66.7082
   -66.7073 -66.7072 -66.7068 -66.7046 -66.6967 -66.6966 -66.6962 -66.6365
   -33.1059 -33.1059 -33.1054 -33.0820 -33.0820 -33.0816 -32.9625 -32.9618
   -32.9601 -32.9536 -32.9535 -32.9534 -32.9060 -32.9002 -32.9002 -32.8592
   -32.8588 -32.8586 -32.8077 -32.8077 -32.8069 -32.7639 -32.7626 -32.7623
   -32.7535 -32.7532 -32.7356 -32.7354 -32.7349 -32.7312 -32.7300 -32.7297
   -32.6989 -32.6989 -32.6984 -32.6903 -32.6433 -32.6432 -32.6427 -32.6129
   -32.5825 -32.5821 -32.5820 -32.5589 -32.5585 -32.5585 -32.5550 -32.5546
    11.8389  14.8322  14.8411  14.8412  15.4991  15.4992  15.4993  15.7340
    15.7351  15.7352  15.8949  15.8999  16.2506  16.2603  16.2603  16.9100
    17.2116  17.2120  17.3040  17.3058  17.3059  17.3400  17.3547  17.3547
    17.4497  17.4643  17.4643  17.4875  17.5624  17.5707  18.1505  18.1521
    18.1523  18.5050  18.5051  18.5054  18.5110  18.5142  18.9367  18.9369
    18.9375  18.9424  19.1264  19.1264  19.1356  19.3058  19.3058  19.3059
    19.5250  19.5251  19.5375  19.5840  19.5841  19.5919  20.1539  20.1543
    20.1580  20.2246  20.2247  20.2361  20.3362  20.3480  20.3758  20.3759
    20.3885  20.6328  20.6330  20.6383  20.6621  20.6644  20.6686  20.6716
    20.7365  20.7867  20.7867  20.7871  21.1268  21.1397  21.1397  21.3468
    21.3470  21.3534  21.3730  21.3767  22.0945  22.0946  22.0970  22.8371
    22.8645  22.8645

          k = 0.1667 0.1667 0.2773 ( 11366 PWs)   bands (ev):

   -66.8127 -66.7620 -66.7431 -66.7428 -66.7255 -66.7252 -66.7187 -66.7102
   -66.7065 -66.7045 -66.7041 -66.7038 -66.6971 -66.6969 -66.6821 -66.6413
   -33.0940 -33.0939 -33.0878 -33.0693 -33.0549 -33.0548 -32.9846 -32.9819
   -32.9819 -32.9734 -32.9710 -32.9476 -32.9469 -32.8955 -32.8953 -32.8829
   -32.8772 -32.8422 -32.8158 -32.8086 -32.8085 -32.7799 -32.7743 -32.7740
   -32.7673 -32.7615 -32.7389 -32.7218 -32.7215 -32.7080 -32.7051 -32.7050
   -32.7015 -32.7014 -32.6650 -32.6648 -32.6444 -32.6212 -32.6211 -32.6163
   -32.5994 -32.5993 -32.5901 -32.5752 -32.5666 -32.5613 -32.5612 -32.5555
    12.1036  14.1911  14.9813  14.9813  15.4553  15.4554  15.7046  15.8721
    15.8722  15.9153  16.0133  16.0186  16.3163  16.3163  16.4105  16.8275
    16.9838  17.0461  17.1827  17.3036  17.3167  17.3168  17.3912  17.4165
    17.4339  17.4339  17.5987  17.6099  17.6100  17.7902  18.0091  18.0093
    18.2952  18.3258  18.3259  18.4149  18.4339  18.4827  18.6812  18.6813
    18.6922  18.6923  18.9300  19.0628  19.0629  19.0901  19.0933  19.1397
    19.4264  19.5283  19.5284  19.6729  19.6729  19.8446  19.9260  20.1145
    20.1145  20.2193  20.3006  20.3169  20.3170  20.4059  20.4068  20.4113
    20.4262  20.4265  20.6181  20.6201  20.6436  20.6669  20.6820  20.6821
    20.6822  20.8941  20.9550  20.9550  20.9827  21.0589  21.1310  21.1424
    21.1424  21.4191  21.4294  21.4296  21.8308  21.8309  22.7246  23.0622
    23.0622  23.4873

          k = 0.1667 0.1667 0.3882 ( 11364 PWs)   bands (ev):

   -66.8032 -66.7773 -66.7397 -66.7394 -66.7305 -66.7302 -66.7170 -66.7125
   -66.7059 -66.7047 -66.7016 -66.7013 -66.6981 -66.6978 -66.6689 -66.6484
   -33.0736 -33.0736 -33.0624 -33.0519 -33.0203 -33.0202 -33.0143 -33.0142
   -33.0078 -32.9909 -32.9811 -32.9804 -32.9378 -32.9376 -32.9281 -32.8747
   -32.8574 -32.8519 -32.8042 -32.8040 -32.8018 -32.7987 -32.7860 -32.7858
   -32.7704 -32.7620 -32.7481 -32.7147 -32.7144 -32.7047 -32.7045 -32.6824
   -32.6747 -32.6746 -32.6662 -32.6406 -32.6339 -32.6209 -32.6209 -32.6025
   -32.5998 -32.5997 -32.5991 -32.5932 -32.5841 -32.5689 -32.5688 -32.5622
    12.4895  13.5598  15.1467  15.1467  15.3951  15.3952  15.9930  16.0289
    16.0290  16.1618  16.1641  16.1925  16.2959  16.2960  16.4151  16.6797
    16.6838  16.7081  17.1878  17.2594  17.3016  17.3261  17.4545  17.4546
    17.5643  17.5643  17.7737  17.7737  17.8788  17.8908  17.8909  18.0544
    18.2001  18.2002  18.2805  18.2806  18.3607  18.3726  18.3760  18.4087
    18.4087  18.4533  18.6046  18.6048  18.6413  18.6542  19.2730  19.3954
    19.6250  19.6938  19.7718  19.7718  19.7779  19.7780  19.9970  19.9971
    20.0518  20.0525  20.1468  20.1933  20.1933  20.3824  20.4502  20.4992
    20.5514  20.5657  20.6504  20.6632  20.6656  20.6658  20.7091  20.7332
    20.7539  20.7539  20.8181  20.8714  21.1362  21.1363  21.1589  21.1853
    21.1853  21.3910  21.4007  21.4008  21.5743  21.5744  23.2936  23.2936
    23.4165  23.5864

          k = 0.1667 0.1667-0.4991 ( 11352 PWs)   bands (ev):

   -66.7915 -66.7912 -66.7357 -66.7352 -66.7350 -66.7349 -66.7149 -66.7146
   -66.7054 -66.7050 -66.6999 -66.6994 -66.6991 -66.6991 -66.6578 -66.6574
   -33.0461 -33.0461 -33.0460 -33.0460 -33.0310 -33.0307 -33.0297 -33.0294
   -32.9837 -32.9835 -32.9806 -32.9804 -32.9802 -32.9802 -32.9037 -32.9034
   -32.8292 -32.8290 -32.8266 -32.8264 -32.7963 -32.7961 -32.7960 -32.7957
   -32.7569 -32.7566 -32.7254 -32.7253 -32.7092 -32.7089 -32.7088 -32.7085
   -32.6463 -32.6462 -32.6459 -32.6458 -32.6297 -32.6293 -32.6196 -32.6193
   -32.6071 -32.6067 -32.5820 -32.5819 -32.5819 -32.5818 -32.5750 -32.5749
    12.9819  12.9824  15.2937  15.2938  15.2941  15.2942  16.1838  16.1839
    16.1841  16.1841  16.3138  16.3143  16.3392  16.3397  16.4166  16.4169
    16.4369  16.4373  17.2169  17.2175  17.2820  17.2825  17.7120  17.7123
    17.7125  17.7127  17.7302  17.7303  17.7305  17.7306  18.1806  18.1807
    18.1809  18.1809  18.2315  18.2319  18.2927  18.2929  18.2929  18.2929
    18.3491  18.3493  18.3501  18.3505  18.4181  18.4185  19.4740  19.4741
    19.7064  19.7065  19.8461  19.8466  19.8807  19.8807  19.8808  19.8810
    20.0082  20.0082  20.0083  20.0083  20.4696  20.4698  20.4792  20.4794
    20.5061  20.5063  20.6060  20.6064  20.6573  20.6577  20.7649  20.7652
    20.7723  20.7724  20.7725  20.7726  21.2942  21.2942  21.2942  21.2944
    21.2997  21.3000  21.3366  21.3368  21.3369  21.3369  23.4946  23.4946
    23.4948  23.4948

          k = 0.1667 0.2778 0.0555 ( 11361 PWs)   bands (ev):

   -66.8158 -66.7635 -66.7442 -66.7275 -66.7259 -66.7178 -66.7143 -66.7120
   -66.7106 -66.7101 -66.7078 -66.7059 -66.7039 -66.6968 -66.6811 -66.6390
   -33.1018 -33.0910 -33.0907 -33.0847 -33.0776 -33.0587 -32.9751 -32.9731
   -32.9718 -32.9605 -32.9584 -32.9561 -32.9362 -32.9313 -32.9054 -32.8816
   -32.8398 -32.8350 -32.7980 -32.7972 -32.7935 -32.7918 -32.7725 -32.7651
   -32.7636 -32.7560 -32.7500 -32.7382 -32.7365 -32.7240 -32.7190 -32.7000
   -32.6991 -32.6837 -32.6747 -32.6646 -32.6465 -32.6292 -32.6290 -32.6219
   -32.5993 -32.5819 -32.5816 -32.5767 -32.5712 -32.5690 -32.5540 -32.5525
    11.9730  14.1029  14.8950  15.3457  15.5277  15.5900  15.7253  15.7486
    15.7772  15.8165  15.9462  15.9655  15.9849  16.2426  16.3580  16.8760
    16.9587  16.9844  17.2204  17.2946  17.3092  17.3249  17.3714  17.4363
    17.4442  17.4956  17.5860  17.6495  17.7632  17.8247  17.8278  18.1715
    18.3208  18.4330  18.4440  18.4608  18.5036  18.5538  18.5793  18.7699
    18.7945  18.9515  18.9851  19.1390  19.1992  19.2783  19.3084  19.3098
    19.3799  19.4899  19.5070  19.5593  19.5901  19.7173  19.7455  20.0764
    20.2021  20.2198  20.2605  20.2947  20.3404  20.3611  20.3989  20.4412
    20.6075  20.6255  20.6271  20.6816  20.6868  20.7112  20.7112  20.7335
    20.7781  20.8849  20.9065  20.9217  20.9242  20.9570  21.0094  21.1141
    21.2252  21.4420  21.4971  21.5644  21.7132  22.1946  22.2310  22.7893
    22.9037  23.0285

          k = 0.1667 0.2778 0.1664 ( 11362 PWs)   bands (ev):

   -66.8126 -66.7618 -66.7432 -66.7429 -66.7254 -66.7251 -66.7189 -66.7102
   -66.7066 -66.7046 -66.7040 -66.7037 -66.6972 -66.6969 -66.6819 -66.6413
   -33.0938 -33.0933 -33.0883 -33.0698 -33.0547 -33.0544 -32.9845 -32.9817
   -32.9813 -32.9723 -32.9707 -32.9483 -32.9476 -32.8952 -32.8950 -32.8829
   -32.8771 -32.8431 -32.8158 -32.8094 -32.8083 -32.7788 -32.7757 -32.7741
   -32.7678 -32.7615 -32.7379 -32.7230 -32.7216 -32.7076 -32.7049 -32.7045
   -32.7021 -32.7013 -32.6652 -32.6648 -32.6444 -32.6210 -32.6206 -32.6166
   -32.5996 -32.5992 -32.5897 -32.5748 -32.5669 -32.5616 -32.5611 -32.5555
    12.1046  14.1988  14.9740  14.9821  15.4549  15.4560  15.7056  15.8711
    15.8719  15.9174  16.0144  16.0190  16.3087  16.3168  16.4198  16.8301
    16.9846  17.0519  17.1858  17.3155  17.3169  17.3174  17.4038  17.4197
    17.4224  17.4342  17.5908  17.5964  17.6105  17.7825  18.0075  18.0077
    18.2960  18.3228  18.3295  18.4095  18.4285  18.4886  18.6762  18.6835
    18.6917  18.7001  18.9206  19.0624  19.0730  19.0785  19.0908  19.1342
    19.4300  19.5307  19.5337  19.6769  19.6806  19.8362  19.9213  20.1142
    20.1244  20.2278  20.2908  20.3188  20.3298  20.3954  20.4043  20.4043
    20.4261  20.4273  20.6203  20.6216  20.6383  20.6623  20.6767  20.6773
    20.6847  20.9025  20.9535  20.9555  20.9831  21.0519  21.1266  21.1319
    21.1427  21.4218  21.4284  21.4342  21.8317  21.8328  22.7219  23.0389
    23.0639  23.4848

          k = 0.1667 0.2778 0.2773 ( 11363 PWs)   bands (ev):

   -66.8065 -66.7586 -66.7583 -66.7406 -66.7330 -66.7238 -66.7235 -66.7130
   -66.7038 -66.7037 -66.7034 -66.6982 -66.6974 -66.6836 -66.6833 -66.6457
   -33.0874 -33.0773 -33.0768 -33.0467 -33.0463 -33.0235 -32.9971 -32.9950
   -32.9950 -32.9948 -32.9804 -32.9571 -32.9441 -32.9197 -32.8885 -32.8566
   -32.8538 -32.8534 -32.8433 -32.8429 -32.8199 -32.7949 -32.7937 -32.7923
   -32.7465 -32.7362 -32.7356 -32.7289 -32.7279 -32.7065 -32.7061 -32.6909
   -32.6806 -32.6782 -32.6684 -32.6681 -32.6462 -32.6205 -32.6091 -32.6017
   -32.6014 -32.5985 -32.5980 -32.5764 -32.5760 -32.5740 -32.5581 -32.5556
    12.3630  14.3716  14.3779  15.1384  15.3007  15.6688  15.6691  16.0313
    16.0486  16.0506  16.1192  16.1448  16.4211  16.4775  16.4850  16.7996
    16.9838  17.0375  17.0378  17.2436  17.2645  17.3764  17.3889  17.4620
    17.4739  17.4884  17.5069  17.5180  17.7652  17.7748  17.8522  18.1201
    18.1222  18.2179  18.2639  18.2690  18.3273  18.3421  18.4263  18.4940
    18.5544  18.5622  18.7032  18.7132  18.7745  18.8391  18.8418  19.2797
    19.6316  19.6327  19.6678  19.7915  19.8640  19.8716  20.0069  20.0501
    20.2016  20.2092  20.2100  20.2118  20.2256  20.3001  20.3373  20.3489
    20.3820  20.5869  20.5892  20.5907  20.6203  20.6520  20.6601  20.6621
    20.6782  20.8601  20.8674  20.9788  21.0071  21.1228  21.1242  21.1418
    21.1470  21.2365  21.4108  21.5112  21.5145  22.3796  22.3816  23.3340
    24.0865  24.1158

          k = 0.1667 0.2778 0.3882 ( 11365 PWs)   bands (ev):

   -66.7976 -66.7730 -66.7535 -66.7405 -66.7373 -66.7286 -66.7214 -66.7159
   -66.7035 -66.7031 -66.7013 -66.6983 -66.6931 -66.6857 -66.6713 -66.6523
   -33.0723 -33.0597 -33.0531 -33.0353 -33.0230 -33.0178 -33.0148 -33.0098
   -33.0004 -32.9915 -32.9890 -32.9855 -32.9509 -32.9272 -32.8976 -32.8750
   -32.8718 -32.8363 -32.8281 -32.8224 -32.8197 -32.8096 -32.8085 -32.8072
   -32.7668 -32.7447 -32.7358 -32.7202 -32.7185 -32.7101 -32.7040 -32.6935
   -32.6740 -32.6580 -32.6565 -32.6454 -32.6381 -32.6297 -32.6164 -32.6070
   -32.5978 -32.5973 -32.5902 -32.5814 -32.5802 -32.5795 -32.5607 -32.5583
    12.7387  13.7712  14.6147  15.1074  15.3267  15.6093  15.9680  16.1961
    16.2061  16.2569  16.2859  16.3204  16.4524  16.4611  16.4948  16.6973
    16.7235  16.7714  17.2261  17.2430  17.3234  17.3251  17.3687  17.4097
    17.5010  17.5945  17.6141  17.6617  17.7375  17.8791  17.9240  17.9302
    18.0430  18.1000  18.1620  18.1958  18.2198  18.2526  18.2798  18.2947
    18.3283  18.3363  18.3682  18.3775  18.4613  18.5416  19.0606  19.4927
    19.6881  19.7857  19.8542  19.8567  19.8600  19.9019  19.9215  19.9699
    20.1044  20.1187  20.1256  20.2145  20.2184  20.3156  20.3966  20.4490
    20.5021  20.5193  20.5276  20.6102  20.6518  20.6548  20.6866  20.7081
    20.7150  20.7259  20.7330  20.8346  20.9329  21.0364  21.1518  21.2136
    21.2671  21.2861  21.4166  21.4446  21.5063  22.0543  22.9909  23.6496
    24.1420  24.2637

          k = 0.1667 0.2778-0.4991 ( 11362 PWs)   bands (ev):

   -66.7865 -66.7861 -66.7476 -66.7473 -66.7333 -66.7330 -66.7189 -66.7185
   -66.7033 -66.7030 -66.6997 -66.6994 -66.6892 -66.6888 -66.6610 -66.6606
   -33.0501 -33.0500 -33.0378 -33.0377 -33.0232 -33.0229 -33.0229 -33.0226
   -32.9989 -32.9988 -32.9847 -32.9846 -32.9426 -32.9425 -32.9037 -32.9033
   -32.8467 -32.8465 -32.8249 -32.8246 -32.8176 -32.8174 -32.7977 -32.7976
   -32.7629 -32.7629 -32.7419 -32.7416 -32.7146 -32.7143 -32.6829 -32.6825
   -32.6735 -32.6734 -32.6348 -32.6347 -32.6257 -32.6253 -32.6164 -32.6161
   -32.6121 -32.6117 -32.5873 -32.5873 -32.5684 -32.5684 -32.5662 -32.5662
    13.2156  13.2161  14.8709  14.8713  15.4960  15.4963  16.3259  16.3263
    16.3492  16.3494  16.3586  16.3588  16.4005  16.4009  16.5302  16.5306
    16.5369  16.5372  17.2730  17.2735  17.3449  17.3453  17.5207  17.5212
    17.5358  17.5363  17.6290  17.6292  17.7459  17.7460  17.9680  17.9683
    18.1135  18.1138  18.1415  18.1416  18.1441  18.1444  18.1921  18.1923
    18.2567  18.2569  18.2619  18.2620  18.3269  18.3273  19.3489  19.3490
    19.7232  19.7234  19.8720  19.8722  19.9607  19.9612  20.0045  20.0047
    20.0510  20.0511  20.0573  20.0574  20.4229  20.4231  20.4236  20.4238
    20.4600  20.4603  20.5557  20.5561  20.6450  20.6453  20.6525  20.6529
    20.7403  20.7406  20.7945  20.7946  20.9384  20.9386  21.1056  21.1057
    21.3691  21.3693  21.4233  21.4234  21.7362  21.7364  23.6231  23.6235
    23.9444  23.9446

          k = 0.1667 0.3889 0.0555 ( 11340 PWs)   bands (ev):

   -66.8061 -66.7794 -66.7406 -66.7311 -66.7254 -66.7203 -66.7129 -66.7114
   -66.7106 -66.7094 -66.7091 -66.7068 -66.7012 -66.6977 -66.6676 -66.6464
   -33.0797 -33.0663 -33.0649 -33.0626 -33.0470 -33.0209 -33.0139 -33.0041
   -32.9981 -32.9966 -32.9764 -32.9707 -32.9686 -32.9302 -32.9179 -32.8823
   -32.8664 -32.8255 -32.8216 -32.7911 -32.7896 -32.7812 -32.7745 -32.7705
   -32.7630 -32.7613 -32.7462 -32.7375 -32.7370 -32.7123 -32.7023 -32.6877
   -32.6621 -32.6588 -32.6522 -32.6466 -32.6351 -32.6244 -32.6214 -32.6023
   -32.6015 -32.5999 -32.5993 -32.5990 -32.5879 -32.5817 -32.5634 -32.5631
    12.3652  13.4563  15.0508  15.2855  15.6173  15.6345  15.8421  15.9344
    16.0067  16.0233  16.0765  16.0970  16.1470  16.2059  16.3540  16.6640
    16.6669  16.6826  17.1903  17.2338  17.2496  17.2735  17.5430  17.5860
    17.5861  17.6541  17.6578  17.8045  17.8672  18.0058  18.0527  18.1141
    18.2286  18.2392  18.3018  18.3106  18.4216  18.4224  18.4642  18.5067
    18.5285  18.5614  18.6285  18.7765  18.8303  18.8309  19.1086  19.4931
    19.5347  19.6838  19.6942  19.7476  19.7498  19.7749  19.9451  20.0180
    20.0345  20.0901  20.1619  20.2150  20.3709  20.4233  20.4471  20.5261
    20.5644  20.5700  20.5730  20.6792  20.6855  20.6950  20.6978  20.7617
    20.7702  20.8050  20.8481  20.9656  20.9681  21.0722  21.1123  21.2116
    21.2130  21.2234  21.4184  21.6161  21.6869  22.0483  22.3787  22.7172
    23.0795  23.2279

          k = 0.1667 0.3889 0.1664 ( 11366 PWs)   bands (ev):

   -66.8032 -66.7772 -66.7397 -66.7394 -66.7305 -66.7302 -66.7171 -66.7125
   -66.7060 -66.7048 -66.7015 -66.7012 -66.6982 -66.6978 -66.6688 -66.6484
   -33.0734 -33.0728 -33.0628 -33.0522 -33.0199 -33.0196 -33.0140 -33.0136
   -33.0079 -32.9912 -32.9801 -32.9800 -32.9373 -32.9372 -32.9292 -32.8756
   -32.8575 -32.8516 -32.8054 -32.8041 -32.8007 -32.7990 -32.7874 -32.7859
   -32.7707 -32.7619 -32.7474 -32.7157 -32.7146 -32.7057 -32.7046 -32.6825
   -32.6745 -32.6741 -32.6658 -32.6403 -32.6343 -32.6210 -32.6206 -32.6021
   -32.5997 -32.5992 -32.5987 -32.5936 -32.5844 -32.5691 -32.5687 -32.5624
    12.4919  13.5658  15.1416  15.1483  15.3939  15.3966  15.9955  16.0281
    16.0283  16.1652  16.1701  16.1903  16.2915  16.2963  16.4236  16.6834
    16.6841  16.7133  17.1936  17.2705  17.3078  17.3364  17.4536  17.4563
    17.5511  17.5648  17.7633  17.7756  17.8693  17.8837  17.8901  18.0457
    18.2005  18.2014  18.2781  18.2848  18.3543  18.3711  18.3749  18.4007
    18.4091  18.4576  18.6035  18.6119  18.6303  18.6447  19.2692  19.3903
    19.6311  19.6890  19.7769  19.7778  19.7813  19.7863  19.9975  20.0056
    20.0493  20.0601  20.1386  20.1966  20.2056  20.3753  20.4411  20.4952
    20.5503  20.5632  20.6453  20.6584  20.6616  20.6654  20.7030  20.7370
    20.7455  20.7550  20.8120  20.8646  21.1338  21.1374  21.1598  21.1800
    21.1862  21.3933  21.3988  21.4041  21.5758  21.5763  23.2749  23.2973
    23.4140  23.5805

          k = 0.1667 0.3889 0.2773 ( 11363 PWs)   bands (ev):

   -66.7975 -66.7729 -66.7536 -66.7406 -66.7372 -66.7284 -66.7215 -66.7159
   -66.7034 -66.7033 -66.7012 -66.6983 -66.6931 -66.6858 -66.6712 -66.6523
   -33.0722 -33.0591 -33.0535 -33.0356 -33.0228 -33.0172 -33.0144 -33.0098
   -33.0003 -32.9912 -32.9891 -32.9854 -32.9507 -32.9276 -32.8973 -32.8755
   -32.8714 -32.8363 -32.8282 -32.8230 -32.8188 -32.8096 -32.8087 -32.8084
   -32.7674 -32.7446 -32.7352 -32.7211 -32.7185 -32.7106 -32.7036 -32.6935
   -32.6741 -32.6578 -32.6565 -32.6452 -32.6382 -32.6295 -32.6166 -32.6067
   -32.5976 -32.5973 -32.5902 -32.5811 -32.5802 -32.5799 -32.5605 -32.5584
    12.7401  13.7759  14.6102  15.1064  15.3274  15.6099  15.9695  16.1955
    16.2045  16.2592  16.2888  16.3201  16.4522  16.4569  16.5015  16.7002
    16.7261  16.7709  17.2253  17.2486  17.3262  17.3338  17.3731  17.4180
    17.4899  17.5946  17.6071  17.6542  17.7338  17.8818  17.9182  17.9295
    18.0400  18.1006  18.1631  18.1979  18.2233  18.2520  18.2758  18.2912
    18.3186  18.3439  18.3606  18.3775  18.4609  18.5424  19.0578  19.4911
    19.6867  19.7895  19.8551  19.8607  19.8649  19.9046  19.9220  19.9666
    20.1111  20.1186  20.1237  20.2171  20.2284  20.3095  20.3872  20.4464
    20.5009  20.5182  20.5249  20.6046  20.6506  20.6532  20.6902  20.7088
    20.7124  20.7257  20.7296  20.8304  20.9280  21.0372  21.1554  21.2149
    21.2685  21.2847  21.4179  21.4452  21.5057  22.0559  22.9893  23.6515
    24.1485  24.2630

          k = 0.1667 0.3889 0.3882 ( 11366 PWs)   bands (ev):

   -66.7893 -66.7670 -66.7667 -66.7502 -66.7341 -66.7261 -66.7258 -66.7194
   -66.7023 -66.7015 -66.7012 -66.6989 -66.6859 -66.6751 -66.6748 -66.6580
   -33.0625 -33.0408 -33.0404 -33.0238 -33.0238 -33.0188 -33.0149 -33.0146
   -33.0111 -33.0056 -32.9990 -32.9696 -32.9442 -32.9140 -32.8725 -32.8665
   -32.8663 -32.8531 -32.8527 -32.8357 -32.8336 -32.8328 -32.8318 -32.7971
   -32.7611 -32.7372 -32.7346 -32.7342 -32.7272 -32.7266 -32.7157 -32.6748
   -32.6730 -32.6468 -32.6465 -32.6392 -32.6390 -32.6208 -32.6143 -32.6141
   -32.6039 -32.5965 -32.5964 -32.5955 -32.5678 -32.5674 -32.5574 -32.5561
    13.0985  14.0650  14.0682  14.7719  15.5521  15.9048  15.9052  16.3375
    16.3567  16.4337  16.4361  16.5004  16.5037  16.5159  16.5436  16.5898
    16.7481  16.9853  16.9858  17.2504  17.3110  17.3574  17.4172  17.4260
    17.4493  17.4534  17.5988  17.6091  17.6143  17.6741  17.8835  17.9655
    17.9661  17.9736  18.0378  18.0451  18.1100  18.1134  18.1262  18.1610
    18.1863  18.2172  18.2193  18.3071  18.3142  18.7338  18.7350  19.3267
    19.7383  19.8963  19.9636  19.9650  19.9910  20.0244  20.0285  20.0330
    20.1501  20.2116  20.2321  20.2366  20.2694  20.2707  20.2815  20.2885
    20.4293  20.4543  20.4552  20.5095  20.5384  20.6256  20.6284  20.6577
    20.6851  20.6856  20.7350  20.7443  20.8964  20.9516  20.9545  20.9749
    21.3966  21.3975  21.4583  21.5359  21.7986  22.5850  22.5861  23.6947
    24.0612  24.7784

          k = 0.1667 0.3889-0.4991 ( 11366 PWs)   bands (ev):

   -66.7792 -66.7788 -66.7593 -66.7590 -66.7305 -66.7301 -66.7230 -66.7226
   -66.7018 -66.7014 -66.7001 -66.6997 -66.6800 -66.6797 -66.6658 -66.6654
   -33.0458 -33.0457 -33.0281 -33.0280 -33.0188 -33.0185 -33.0173 -33.0173
   -33.0125 -33.0122 -32.9921 -32.9919 -32.8993 -32.8992 -32.8927 -32.8924
   -32.8571 -32.8570 -32.8515 -32.8512 -32.8393 -32.8392 -32.8069 -32.8068
   -32.7653 -32.7652 -32.7325 -32.7324 -32.7207 -32.7206 -32.7029 -32.7029
   -32.6594 -32.6591 -32.6249 -32.6248 -32.6233 -32.6229 -32.6171 -32.6167
   -32.6156 -32.6154 -32.5955 -32.5954 -32.5601 -32.5600 -32.5592 -32.5592
    13.5488  13.5492  14.4128  14.4133  15.7636  15.7640  16.2418  16.2422
    16.4434  16.4437  16.4506  16.4509  16.5697  16.5699  16.6509  16.6512
    16.7442  16.7446  17.2833  17.2838  17.3445  17.3450  17.3469  17.3470
    17.3529  17.3532  17.5191  17.5193  17.7734  17.7736  17.7995  17.7995
    17.9161  17.9165  17.9808  17.9810  18.0281  18.0282  18.0597  18.0598
    18.2206  18.2208  18.2594  18.2597  18.4389  18.4390  19.0007  19.0008
    19.9346  19.9348  19.9953  19.9955  20.0865  20.0869  20.1208  20.1210
    20.1413  20.1415  20.1421  20.1421  20.2558  20.2560  20.3576  20.3577
    20.3697  20.3700  20.4989  20.4992  20.5346  20.5349  20.6094  20.6095
    20.6699  20.6703  20.7167  20.7170  20.8197  20.8199  20.9556  20.9557
    21.4561  21.4562  21.4957  21.4957  22.1870  22.1874  23.1364  23.1368
    24.4609  24.4611

          k = 0.1667-0.5000 0.0555 ( 11336 PWs)   bands (ev):

   -66.7938 -66.7938 -66.7362 -66.7361 -66.7229 -66.7229 -66.7113 -66.7112
   -66.7108 -66.7108 -66.7080 -66.7080 -66.6992 -66.6992 -66.6560 -66.6559
   -33.0498 -33.0496 -33.0353 -33.0351 -33.0349 -33.0347 -33.0324 -33.0323
   -33.0103 -33.0102 -32.9777 -32.9775 -32.9753 -32.9751 -32.8944 -32.8943
   -32.8556 -32.8554 -32.8017 -32.8016 -32.7834 -32.7834 -32.7774 -32.7772
   -32.7665 -32.7663 -32.7370 -32.7368 -32.7067 -32.7066 -32.7011 -32.7009
   -32.6544 -32.6542 -32.6279 -32.6278 -32.6238 -32.6238 -32.6209 -32.6209
   -32.6094 -32.6093 -32.5994 -32.5994 -32.5802 -32.5800 -32.5794 -32.5792
    12.8665  12.8668  15.1889  15.1890  15.6536  15.6538  15.9499  15.9501
    16.0894  16.0896  16.2483  16.2484  16.3482  16.3484  16.3767  16.3769
    16.3817  16.3822  17.2092  17.2094  17.2336  17.2338  17.7454  17.7456
    17.7638  17.7640  17.7784  17.7786  17.8545  17.8547  18.1627  18.1628
    18.2121  18.2122  18.2778  18.2780  18.4027  18.4028  18.4076  18.4078
    18.4144  18.4145  18.4557  18.4558  18.5456  18.5457  19.2899  19.2902
    19.7869  19.7871  19.8150  19.8151  19.9302  19.9305  19.9763  19.9765
    20.0198  20.0199  20.0231  20.0231  20.3609  20.3610  20.4937  20.4939
    20.5069  20.5070  20.6334  20.6335  20.6790  20.6791  20.7176  20.7177
    20.8333  20.8335  20.9279  20.9280  21.0463  21.0464  21.1176  21.1177
    21.2864  21.2865  21.4485  21.4487  21.8573  21.8574  22.5673  22.5675
    23.2152  23.2154

          k = 0.1667-0.5000 0.1664 ( 11354 PWs)   bands (ev):

   -66.7913 -66.7912 -66.7355 -66.7353 -66.7351 -66.7348 -66.7149 -66.7148
   -66.7053 -66.7053 -66.6997 -66.6995 -66.6992 -66.6990 -66.6576 -66.6575
   -33.0458 -33.0457 -33.0454 -33.0452 -33.0311 -33.0310 -33.0301 -33.0299
   -32.9831 -32.9829 -32.9801 -32.9800 -32.9797 -32.9795 -32.9049 -32.9047
   -32.8294 -32.8292 -32.8260 -32.8258 -32.7974 -32.7974 -32.7961 -32.7959
   -32.7564 -32.7562 -32.7255 -32.7254 -32.7101 -32.7100 -32.7089 -32.7087
   -32.6462 -32.6460 -32.6457 -32.6455 -32.6291 -32.6290 -32.6193 -32.6192
   -32.6072 -32.6072 -32.5820 -32.5817 -32.5816 -32.5815 -32.5753 -32.5752
    12.9861  12.9864  15.2909  15.2911  15.2957  15.2959  16.1817  16.1819
    16.1837  16.1839  16.3214  16.3215  16.3433  16.3435  16.4150  16.4154
    16.4413  16.4416  17.2257  17.2258  17.2900  17.2902  17.7131  17.7131
    17.7134  17.7136  17.7189  17.7191  17.7309  17.7310  18.1730  18.1732
    18.1788  18.1789  18.2213  18.2214  18.2918  18.2920  18.2972  18.2974
    18.3408  18.3410  18.3440  18.3442  18.4210  18.4211  19.4693  19.4695
    19.7021  19.7021  19.8540  19.8541  19.8831  19.8833  19.8881  19.8882
    20.0118  20.0120  20.0189  20.0190  20.4652  20.4653  20.4718  20.4720
    20.5002  20.5003  20.6058  20.6058  20.6525  20.6526  20.7584  20.7585
    20.7635  20.7635  20.7724  20.7726  21.2919  21.2919  21.2964  21.2966
    21.3013  21.3013  21.3370  21.3371  21.3383  21.3385  23.4808  23.4810
    23.5008  23.5010

          k = 0.1667-0.5000 0.2773 ( 11362 PWs)   bands (ev):

   -66.7863 -66.7862 -66.7475 -66.7475 -66.7331 -66.7331 -66.7188 -66.7188
   -66.7033 -66.7032 -66.6995 -66.6994 -66.6891 -66.6890 -66.6608 -66.6607
   -33.0498 -33.0497 -33.0373 -33.0370 -33.0235 -33.0234 -33.0229 -33.0227
   -32.9986 -32.9985 -32.9845 -32.9843 -32.9424 -32.9423 -32.9041 -32.9039
   -32.8462 -32.8460 -32.8248 -32.8245 -32.8185 -32.8185 -32.7980 -32.7978
[...]
   -32.8322 -32.8322 -32.8152 -32.8150 -32.7995 -32.7993 -32.7925 -32.7923
   -32.7879 -32.7877 -32.7732 -32.7730 -32.7597 -32.7595 -32.7187 -32.7185
   -32.6621 -32.6620 -32.6288 -32.6287 -32.6137 -32.6136 -32.6131 -32.6130
   -32.6115 -32.6114 -32.6017 -32.6016 -32.5534 -32.5534 -32.5533 -32.5530
    13.4327  13.4330  14.2983  14.2986  16.0721  16.0723  16.3343  16.3345
    16.3472  16.3474  16.3636  16.3638  16.3829  16.3832  16.5085  16.5087
    16.7251  16.7254  17.2900  17.2902  17.3340  17.3342  17.3349  17.3351
    17.3992  17.3994  17.4558  17.4560  17.8201  17.8203  17.9506  17.9507
    18.0354  18.0355  18.0458  18.0459  18.0500  18.0503  18.1062  18.1063
    18.3772  18.3773  18.3994  18.3994  18.6491  18.6492  19.3102  19.3103
    19.7498  19.7499  19.8148  19.8151  19.9986  19.9987  20.0577  20.0579
    20.1061  20.1063  20.1083  20.1085  20.1114  20.1115  20.3395  20.3397
    20.3458  20.3460  20.3704  20.3706  20.5114  20.5114  20.5633  20.5634
    20.7216  20.7216  20.7725  20.7725  20.7845  20.7845  20.8661  20.8661
    21.5903  21.5904  21.6457  21.6458  22.7767  22.7769  23.5248  23.5250
    23.7584  23.7587

          k = 0.3889-0.5000 0.1664 ( 11358 PWs)   bands (ev):

   -66.7789 -66.7789 -66.7591 -66.7590 -66.7304 -66.7304 -66.7229 -66.7229
   -66.7017 -66.7017 -66.7000 -66.7000 -66.6798 -66.6797 -66.6655 -66.6654
   -33.0450 -33.0448 -33.0280 -33.0279 -33.0188 -33.0187 -33.0164 -33.0162
   -33.0124 -33.0123 -32.9918 -32.9917 -32.8990 -32.8988 -32.8941 -32.8941
   -32.8564 -32.8562 -32.8529 -32.8529 -32.8391 -32.8389 -32.8068 -32.8066
   -32.7652 -32.7651 -32.7324 -32.7322 -32.7207 -32.7205 -32.7029 -32.7027
   -32.6601 -32.6601 -32.6246 -32.6245 -32.6239 -32.6238 -32.6164 -32.6164
   -32.6152 -32.6151 -32.5950 -32.5949 -32.5602 -32.5600 -32.5594 -32.5592
    13.5526  13.5529  14.4160  14.4162  15.7624  15.7626  16.2444  16.2447
    16.4426  16.4428  16.4511  16.4513  16.5694  16.5696  16.6549  16.6551
    16.7491  16.7493  17.2888  17.2890  17.3476  17.3478  17.3522  17.3524
    17.3576  17.3578  17.5180  17.5182  17.7680  17.7681  17.7877  17.7880
    17.9185  17.9186  17.9734  17.9736  18.0179  18.0182  18.0557  18.0559
    18.2271  18.2272  18.2657  18.2658  18.4308  18.4310  18.9953  18.9954
    19.9366  19.9367  19.9916  19.9918  20.0969  20.0970  20.1307  20.1308
    20.1432  20.1434  20.1470  20.1472  20.2520  20.2521  20.3601  20.3602
    20.3688  20.3690  20.4973  20.4973  20.5330  20.5331  20.6093  20.6095
    20.6598  20.6598  20.7051  20.7051  20.8083  20.8084  20.9455  20.9455
    21.4594  21.4594  21.4987  21.4988  22.1879  22.1881  23.1357  23.1360
    24.4487  24.4488

          k = 0.3889-0.5000 0.2773 ( 11378 PWs)   bands (ev):

   -66.7745 -66.7745 -66.7557 -66.7557 -66.7409 -66.7409 -66.7306 -66.7306
   -66.6959 -66.6959 -66.6913 -66.6913 -66.6813 -66.6813 -66.6681 -66.6681
   -33.0307 -33.0305 -33.0233 -33.0233 -33.0069 -33.0068 -33.0043 -33.0041
   -32.9969 -32.9968 -32.9649 -32.9648 -32.9219 -32.9218 -32.9134 -32.9133
   -32.8952 -32.8950 -32.8822 -32.8822 -32.8768 -32.8766 -32.8318 -32.8316
   -32.7373 -32.7371 -32.6948 -32.6946 -32.6842 -32.6840 -32.6818 -32.6816
   -32.6561 -32.6561 -32.6410 -32.6409 -32.6209 -32.6208 -32.6207 -32.6207
   -32.6173 -32.6172 -32.5919 -32.5918 -32.5732 -32.5731 -32.5708 -32.5707
    13.7855  13.7858  14.6430  14.6433  15.3873  15.3875  16.0352  16.0354
    16.6159  16.6161  16.6257  16.6259  16.7696  16.7699  16.7936  16.7939
    16.8318  16.8320  17.2818  17.2820  17.3066  17.3067  17.3867  17.3869
    17.4026  17.4028  17.5866  17.5868  17.6005  17.6006  17.7293  17.7295
    17.7806  17.7808  17.8075  17.8077  17.9229  17.9230  17.9595  17.9597
    18.0036  18.0037  18.0784  18.0785  18.1314  18.1316  18.6217  18.6218
    20.1564  20.1565  20.1749  20.1750  20.1852  20.1853  20.1989  20.1990
    20.2418  20.2421  20.2805  20.2807  20.3979  20.3980  20.4159  20.4161
    20.4708  20.4708  20.4990  20.4991  20.5385  20.5386  20.5861  20.5861
    20.6179  20.6180  20.8159  20.8160  20.9264  20.9266  21.0023  21.0024
    21.2463  21.2464  21.2673  21.2675  21.7163  21.7165  22.6164  22.6167
    25.5283  25.5284

          k = 0.3889-0.5000 0.3882 ( 11396 PWs)   bands (ev):

   -66.7682 -66.7682 -66.7513 -66.7511 -66.7509 -66.7506 -66.7381 -66.7380
   -66.6910 -66.6909 -66.6840 -66.6837 -66.6835 -66.6833 -66.6720 -66.6720
   -33.0115 -33.0114 -33.0110 -33.0108 -32.9926 -32.9924 -32.9920 -32.9919
   -32.9771 -32.9770 -32.9427 -32.9425 -32.9332 -32.9331 -32.9329 -32.9326
   -32.9265 -32.9264 -32.9120 -32.9119 -32.9109 -32.9106 -32.8634 -32.8633
   -32.7096 -32.7095 -32.6640 -32.6639 -32.6612 -32.6612 -32.6608 -32.6606
   -32.6518 -32.6518 -32.6517 -32.6515 -32.6303 -32.6302 -32.6227 -32.6226
   -32.6140 -32.6139 -32.5917 -32.5915 -32.5914 -32.5913 -32.5850 -32.5849
    14.1163  14.1165  14.9591  14.9594  14.9613  14.9615  15.7198  15.7200
    16.8177  16.8181  16.8693  16.8694  16.8800  16.8802  16.8821  16.8824
    17.0245  17.0247  17.2531  17.2532  17.2562  17.2564  17.4294  17.4296
    17.4730  17.4732  17.5225  17.5228  17.5441  17.5442  17.6554  17.6556
    17.6620  17.6622  17.7737  17.7739  17.7773  17.7774  17.8333  17.8335
    17.8344  17.8345  17.8797  17.8799  17.9050  17.9051  18.2615  18.2616
    20.2441  20.2441  20.2599  20.2600  20.2647  20.2647  20.3868  20.3869
    20.3923  20.3925  20.4096  20.4097  20.4347  20.4347  20.4997  20.4998
    20.5174  20.5175  20.5206  20.5207  20.5235  20.5236  20.6065  20.6067
    20.6441  20.6442  20.7971  20.7972  21.0167  21.0168  21.0247  21.0249
    21.0427  21.0428  21.3140  21.3143  21.3155  21.3157  22.1574  22.1577
    26.6961  26.7149

          k = 0.3889-0.5000-0.4991 ( 11392 PWs)   bands (ev):

   -66.7605 -66.7603 -66.7601 -66.7599 -66.7452 -66.7450 -66.7448 -66.7446
   -66.6871 -66.6869 -66.6867 -66.6865 -66.6775 -66.6773 -66.6771 -66.6769
   -32.9965 -32.9965 -32.9964 -32.9964 -32.9921 -32.9919 -32.9918 -32.9917
   -32.9550 -32.9549 -32.9549 -32.9546 -32.9378 -32.9375 -32.9374 -32.9373
   -32.9334 -32.9334 -32.9333 -32.9333 -32.8983 -32.8983 -32.8981 -32.8979
   -32.6840 -32.6840 -32.6839 -32.6837 -32.6502 -32.6501 -32.6501 -32.6501
   -32.6438 -32.6438 -32.6437 -32.6435 -32.6257 -32.6254 -32.6253 -32.6252
   -32.6123 -32.6121 -32.6120 -32.6119 -32.5917 -32.5917 -32.5916 -32.5916
    14.5196  14.5199  14.5201  14.5203  15.3379  15.3382  15.3384  15.3386
    16.8853  16.8857  16.8857  16.8859  17.0861  17.0863  17.0866  17.0866
    17.1707  17.1709  17.1710  17.1712  17.1892  17.1894  17.1896  17.1896
    17.5795  17.5797  17.5798  17.5798  17.5954  17.5955  17.5956  17.5957
    17.5965  17.5966  17.5966  17.5968  17.7564  17.7566  17.7567  17.7568
    17.8160  17.8160  17.8161  17.8164  17.9656  17.9657  17.9658  17.9659
    20.2954  20.2957  20.2959  20.2960  20.3530  20.3531  20.3533  20.3535
    20.4375  20.4376  20.4378  20.4380  20.5059  20.5062  20.5064  20.5066
    20.5189  20.5190  20.5190  20.5191  20.5709  20.5710  20.5711  20.5713
    20.8399  20.8400  20.8401  20.8403  20.9508  20.9513  20.9514  20.9514
    20.9939  20.9940  20.9941  20.9941  21.7273  21.7277  21.7278  21.7279
    27.2672  27.2674

          k =-0.5000-0.5000 0.0555 ( 11380 PWs)   bands (ev):

   -66.7719 -66.7718 -66.7716 -66.7716 -66.7178 -66.7178 -66.7176 -66.7176
   -66.7090 -66.7090 -66.7087 -66.7087 -66.6710 -66.6710 -66.6707 -66.6707
   -33.0411 -33.0411 -33.0411 -33.0407 -33.0225 -33.0224 -33.0224 -33.0223
   -33.0160 -33.0159 -33.0159 -33.0158 -32.8537 -32.8537 -32.8533 -32.8533
   -32.8427 -32.8423 -32.8420 -32.8420 -32.8113 -32.8113 -32.8113 -32.8109
   -32.7684 -32.7684 -32.7684 -32.7680 -32.7536 -32.7532 -32.7529 -32.7529
   -32.6441 -32.6441 -32.6437 -32.6436 -32.6107 -32.6105 -32.6105 -32.6105
   -32.6065 -32.6064 -32.6063 -32.6063 -32.5499 -32.5499 -32.5499 -32.5495
    13.8427  13.8429  13.8429  13.8432  16.2808  16.2811  16.2811  16.2812
    16.3790  16.3791  16.3791  16.3794  16.4890  16.4893  16.4893  16.4894
    16.9946  16.9947  16.9947  16.9951  17.3265  17.3267  17.3267  17.3269
    17.3732  17.3735  17.3735  17.3737  17.9141  17.9144  17.9144  17.9145
    17.9302  17.9302  17.9302  17.9304  18.0166  18.0167  18.0167  18.0168
    18.3674  18.3674  18.3677  18.3678  18.9637  18.9638  18.9642  18.9642
    19.8374  19.8374  19.8376  19.8378  20.0878  20.0883  20.0885  20.0885
    20.1394  20.1395  20.1395  20.1396  20.2259  20.2262  20.2262  20.2264
    20.2269  20.2269  20.2269  20.2271  20.4884  20.4884  20.4885  20.4886
    20.7495  20.7495  20.7498  20.7499  20.8073  20.8073  20.8076  20.8077
    21.6522  21.6524  21.6524  21.6524  23.2701  23.2705  23.2705  23.2705
    24.0354  24.0357

          k =-0.5000-0.5000 0.1664 ( 11344 PWs)   bands (ev):

   -66.7699 -66.7698 -66.7696 -66.7696 -66.7269 -66.7269 -66.7267 -66.7266
   -66.7008 -66.7008 -66.7005 -66.7005 -66.6720 -66.6720 -66.6717 -66.6717
   -33.0333 -33.0333 -33.0333 -33.0329 -33.0205 -33.0205 -33.0204 -33.0203
   -33.0013 -33.0011 -33.0011 -33.0010 -32.8762 -32.8762 -32.8760 -32.8759
   -32.8538 -32.8538 -32.8538 -32.8534 -32.8534 -32.8531 -32.8527 -32.8527
   -32.7338 -32.7335 -32.7332 -32.7332 -32.7261 -32.7261 -32.7261 -32.7257
   -32.6402 -32.6402 -32.6398 -32.6397 -32.6181 -32.6180 -32.6179 -32.6179
   -32.6055 -32.6054 -32.6053 -32.6053 -32.5571 -32.5571 -32.5571 -32.5567
    13.9622  13.9623  13.9623  13.9627  16.0405  16.0408  16.0408  16.0410
    16.4706  16.4707  16.4707  16.4710  16.7024  16.7027  16.7027  16.7027
    17.0126  17.0127  17.0127  17.0130  17.2842  17.2843  17.2843  17.2845
    17.4296  17.4298  17.4298  17.4300  17.7698  17.7698  17.7698  17.7700
    17.8829  17.8832  17.8832  17.8834  17.9713  17.9715  17.9715  17.9716
    18.2264  18.2264  18.2266  18.2267  18.6835  18.6837  18.6839  18.6839
    20.0714  20.0714  20.0715  20.0717  20.1553  20.1553  20.1553  20.1555
    20.2567  20.2568  20.2568  20.2571  20.2689  20.2690  20.2690  20.2693
    20.2927  20.2932  20.2934  20.2934  20.4801  20.4802  20.4802  20.4804
    20.6822  20.6822  20.6825  20.6825  20.8521  20.8521  20.8523  20.8525
    21.5086  21.5088  21.5088  21.5088  22.6585  22.6589  22.6589  22.6589
    24.9700  24.9702

          k =-0.5000-0.5000 0.2773 ( 11380 PWs)   bands (ev):

   -66.7659 -66.7659 -66.7656 -66.7656 -66.7362 -66.7362 -66.7360 -66.7360
   -66.6934 -66.6934 -66.6931 -66.6931 -66.6741 -66.6741 -66.6739 -66.6739
   -33.0181 -33.0181 -33.0181 -33.0177 -33.0103 -33.0102 -33.0102 -33.0101
   -32.9808 -32.9806 -32.9805 -32.9805 -32.9070 -32.9070 -32.9068 -32.9067
   -32.8948 -32.8948 -32.8948 -32.8944 -32.8727 -32.8724 -32.8722 -32.8722
   -32.7088 -32.7085 -32.7083 -32.7083 -32.6866 -32.6866 -32.6866 -32.6862
   -32.6336 -32.6336 -32.6333 -32.6332 -32.6290 -32.6288 -32.6287 -32.6287
   -32.6077 -32.6076 -32.6076 -32.6076 -32.5711 -32.5711 -32.5711 -32.5707
    14.1937  14.1938  14.1938  14.1942  15.7270  15.7273  15.7273  15.7274
    16.6450  16.6451  16.6451  16.6454  16.9379  16.9382  16.9382  16.9382
    17.0460  17.0461  17.0462  17.0465  17.2405  17.2407  17.2407  17.2409
    17.4973  17.4975  17.4975  17.4977  17.6362  17.6363  17.6363  17.6364
    17.8043  17.8044  17.8044  17.8045  17.8252  17.8255  17.8255  17.8257
    18.0219  18.0219  18.0220  18.0222  18.3249  18.3251  18.3253  18.3253
    20.2174  20.2174  20.2174  20.2176  20.3020  20.3020  20.3020  20.3023
    20.3379  20.3379  20.3380  20.3382  20.3668  20.3669  20.3669  20.3672
    20.4631  20.4631  20.4632  20.4633  20.5944  20.5949  20.5951  20.5951
    20.5997  20.5997  20.6000  20.6000  20.8670  20.8670  20.8672  20.8674
    21.2710  21.2712  21.2712  21.2713  22.1595  22.1599  22.1599  22.1599
    26.0577  26.0578

          k =-0.5000-0.5000 0.3882 ( 11392 PWs)   bands (ev):

   -66.7604 -66.7604 -66.7601 -66.7601 -66.7451 -66.7451 -66.7448 -66.7448
   -66.6870 -66.6870 -66.6867 -66.6867 -66.6773 -66.6773 -66.6771 -66.6770
   -32.9958 -32.9957 -32.9957 -32.9953 -32.9924 -32.9923 -32.9923 -32.9922
   -32.9550 -32.9548 -32.9548 -32.9547 -32.9385 -32.9385 -32.9384 -32.9383
   -32.9329 -32.9328 -32.9328 -32.9324 -32.8984 -32.8981 -32.8980 -32.8980
   -32.6842 -32.6840 -32.6838 -32.6838 -32.6502 -32.6502 -32.6502 -32.6498
   -32.6437 -32.6435 -32.6434 -32.6434 -32.6259 -32.6259 -32.6258 -32.6257
   -32.6118 -32.6118 -32.6118 -32.6118 -32.5919 -32.5919 -32.5919 -32.5915
    14.5210  14.5212  14.5212  14.5215  15.3373  15.3375  15.3375  15.3377
    16.8826  16.8827  16.8827  16.8830  17.0909  17.0910  17.0910  17.0913
    17.1701  17.1704  17.1704  17.1705  17.1929  17.1930  17.1930  17.1933
    17.5766  17.5769  17.5769  17.5770  17.5922  17.5925  17.5925  17.5925
    17.6006  17.6006  17.6006  17.6008  17.7487  17.7490  17.7490  17.7491
    17.8219  17.8220  17.8220  17.8222  17.9640  17.9642  17.9643  17.9643
    20.3013  20.3013  20.3013  20.3015  20.3518  20.3518  20.3518  20.3520
    20.4354  20.4355  20.4355  20.4357  20.5035  20.5035  20.5037  20.5038
    20.5255  20.5257  20.5257  20.5258  20.5659  20.5659  20.5660  20.5662
    20.8318  20.8318  20.8320  20.8321  20.9500  20.9505  20.9506  20.9506
    20.9998  21.0000  21.0000  21.0002  21.7280  21.7285  21.7285  21.7285
    27.2479  27.2479

          k =-0.5000-0.5000-0.4991 ( 11320 PWs)   bands (ev):

   -66.7537 -66.7537 -66.7533 -66.7532 -66.7529 -66.7529 -66.7528 -66.7527
   -66.6818 -66.6818 -66.6815 -66.6814 -66.6811 -66.6811 -66.6809 -66.6809
   -32.9677 -32.9677 -32.9677 -32.9674 -32.9673 -32.9673 -32.9672 -32.9672
   -32.9669 -32.9665 -32.9665 -32.9663 -32.9663 -32.9663 -32.9660 -32.9657
   -32.9270 -32.9269 -32.9267 -32.9266 -32.9266 -32.9263 -32.9263 -32.9261
   -32.6619 -32.6618 -32.6616 -32.6615 -32.6615 -32.6612 -32.6612 -32.6610
   -32.6190 -32.6186 -32.6186 -32.6186 -32.6186 -32.6185 -32.6185 -32.6184
   -32.6184 -32.6184 -32.6181 -32.6181 -32.6181 -32.6180 -32.6180 -32.6178
    14.9163  14.9164  14.9164  14.9168  14.9169  14.9170  14.9170  14.9172
    17.1358  17.1358  17.1359  17.1363  17.1364  17.1365  17.1365  17.1366
    17.1417  17.1417  17.1417  17.1420  17.1421  17.1423  17.1423  17.1425
    17.6483  17.6489  17.6489  17.6489  17.6491  17.6491  17.6493  17.6493
    17.6623  17.6626  17.6629  17.6629  17.6630  17.6630  17.6630  17.6636
    17.6703  17.6703  17.6703  17.6707  17.6708  17.6708  17.6709  17.6709
    20.3973  20.3973  20.3975  20.3977  20.3980  20.3981  20.3981  20.3982
    20.4000  20.4000  20.4001  20.4004  20.4006  20.4006  20.4007  20.4007
    20.7330  20.7330  20.7331  20.7333  20.7334  20.7334  20.7336  20.7337
    20.7420  20.7421  20.7421  20.7421  20.7422  20.7425  20.7425  20.7428
    21.3292  21.3301  21.3302  21.3302  21.3303  21.3303  21.3303  21.3303
    28.4213  28.4244

     the Fermi energy is    20.4657 ev

!    total energy              =   -5267.70791664 Ry
     Harris-Foulkes estimate   =   -5267.70795079 Ry
     estimated scf accuracy    <       0.00004560 Ry

     total all-electron energy =    -40728.452446 Ry

     The total energy is the sum of the following terms:

     one-electron contribution =   -1623.03808965 Ry
     hartree contribution      =     990.36946044 Ry
     xc contribution           =    -442.98696011 Ry
     ewald contribution        =   -2867.15921859 Ry
     one-center paw contrib.   =   -1324.76172449 Ry
     smearing contrib. (-TS)   =      -0.13138424 Ry

     convergence has been achieved in  11 iterations

     Forces acting on atoms (cartesian axes, Ry/au):

     atom    1 type  1   force =     0.00000000    0.00000000    0.00000000
     atom    2 type  1   force =    -0.00015098   -0.00015098    0.00062100
     atom    3 type  1   force =     0.00000000    0.00000000    0.00000000
     atom    4 type  1   force =    -0.00015098   -0.00015098   -0.00062100
     atom    5 type  1   force =     0.00000000    0.00000000    0.00000000
     atom    6 type  1   force =    -0.00015098    0.00015098    0.00062100
     atom    7 type  1   force =     0.00000000    0.00000000    0.00000000
     atom    8 type  1   force =    -0.00015098    0.00015098   -0.00062100
     atom    9 type  1   force =     0.00000000    0.00000000    0.00000000
     atom   10 type  1   force =     0.00015098   -0.00015098    0.00062100
     atom   11 type  1   force =     0.00000000    0.00000000    0.00000000
     atom   12 type  1   force =     0.00015098   -0.00015098   -0.00062100
     atom   13 type  1   force =     0.00000000    0.00000000    0.00000000
     atom   14 type  1   force =     0.00015098    0.00015098    0.00062100
     atom   15 type  1   force =     0.00000000    0.00000000    0.00000000
     atom   16 type  1   force =     0.00015098    0.00015098   -0.00062100

     Total force =     0.001857     Total SCF correction =     0.006441
     SCF correction compared to forces is large: reduce conv_thr to get better values


     Computing stress (Cartesian axis) and pressure

          total   stress  (Ry/bohr**3)                   (kbar)     P=   37.33
   0.00024536   0.00000000   0.00000000         36.09      0.00      0.00
   0.00000000   0.00024536   0.00000000          0.00     36.09      0.00
   0.00000000   0.00000000   0.00027062          0.00      0.00     39.81


     Writing output data file ecedYurlszleuhft.save/
 
     init_run     :      6.94s CPU      7.33s WALL (       1 calls)
     electrons    :    250.27s CPU    258.49s WALL (       1 calls)
     forces       :      2.27s CPU      2.49s WALL (       1 calls)
     stress       :      5.78s CPU      5.85s WALL (       1 calls)

     Called by init_run:
     wfcinit      :      6.66s CPU      6.94s WALL (       1 calls)
     potinit      :      0.11s CPU      0.13s WALL (       1 calls)
     hinit0       :      0.10s CPU      0.15s WALL (       1 calls)

     Called by electrons:
     c_bands      :    224.80s CPU    231.39s WALL (      12 calls)
     sum_band     :     24.41s CPU     25.74s WALL (      12 calls)
     v_of_rho     :      0.12s CPU      0.22s WALL (      12 calls)
     newd         :      0.16s CPU      0.21s WALL (      12 calls)
     PAW_pot      :      0.83s CPU      0.90s WALL (      12 calls)
     mix_rho      :      0.03s CPU      0.06s WALL (      12 calls)

     Called by c_bands:
     init_us_2    :      1.24s CPU      1.27s WALL (    2025 calls)
     cegterg      :    218.55s CPU    225.06s WALL (     900 calls)

     Called by sum_band:
     sum_band:bec :      0.35s CPU      0.36s WALL (     900 calls)
     addusdens    :      0.17s CPU      0.22s WALL (      12 calls)

     Called by *egterg:
     h_psi        :    100.52s CPU    104.64s WALL (    2779 calls)
     s_psi        :      5.22s CPU      5.25s WALL (    2779 calls)
     g_psi        :      0.21s CPU      0.21s WALL (    1804 calls)
     cdiaghg      :     93.11s CPU     93.40s WALL (    2629 calls)

     Called by h_psi:
     h_psi:pot    :    100.00s CPU    104.12s WALL (    2779 calls)
     h_psi:calbec :      7.92s CPU      9.23s WALL (    2779 calls)
     vloc_psi     :     86.85s CPU     89.62s WALL (    2779 calls)
     add_vuspsi   :      5.21s CPU      5.25s WALL (    2779 calls)

     General routines
     calbec       :     12.86s CPU     15.02s WALL (    4054 calls)
     fft          :      0.14s CPU      0.33s WALL (     181 calls)
     ffts         :      0.03s CPU      0.07s WALL (      24 calls)
     fftw         :    100.55s CPU    103.73s WALL (  755104 calls)
     interpolate  :      0.02s CPU      0.04s WALL (      12 calls)
 
     Parallel routines
     fft_scatt_xy :      6.58s CPU      6.79s WALL (  755309 calls)
     fft_scatt_yz :     68.35s CPU     70.73s WALL (  755309 calls)
 
     PWSCF        :  4m30.49s CPU     4m47.37s WALL

 
   This run was terminated on:   8: 6:20   5Sep2020            

=------------------------------------------------------------------------------=
   JOB DONE.
=------------------------------------------------------------------------------=
