--------------------------------------------------------------------------
WARNING: There was an error initializing an OpenFabrics device.

  Local host:   bear-pg0211u07b
  Local device: mlx5_0
--------------------------------------------------------------------------

     Program PWSCF v.6.3 starts on  5Sep2020 at  7:56:48 

     This program is part of the open-source Quantum ESPRESSO suite
     for quantum simulation of materials; please cite
         "P. Giannozzi et al., J. Phys.:Condens. Matter 21 395502 (2009);
         "P. Giannozzi et al., J. Phys.:Condens. Matter 29 465901 (2017);
          URL http://www.quantum-espresso.org", 
     in publications or presentations arising from this work. More details at
     http://www.quantum-espresso.org/quote

     Parallel version (MPI & OpenMP), running on      40 processor cores
     Number of MPI processes:                40
     Threads/MPI process:                     1

     MPI processes distributed on     1 nodes
     R & G space division:  proc/nbgrp/npool/nimage =      40
     Reading input from wd/ec/ec_3_003.in
Warning: card &IONS ignored
Warning: card ION_DYNAMICS = 'BFGS', ignored
Warning: card / ignored
Warning: card &CELL ignored
Warning: card CELL_DYNAMICS = 'BFGS', ignored
Warning: card CELL_FACTOR = 2.0, ignored
Warning: card PRESS = 0.0, ignored
Warning: card / ignored

     Current dimensions of program PWSCF are:
     Max number of different atomic species (ntypx) = 10
     Max number of k-points (npk) =  40000
     Max angular momentum in pseudopotentials (lmaxx) =  3
               file Fe.pbe-spn-kjpaw_psl.1.0.0.UPF: wavefunction(s)  3P 3D renormalized

     Subspace diagonalization in iterative solution of the eigenvalue problem:
     a serial algorithm will be used

 
     Parallelization info
     --------------------
     sticks:   dense  smooth     PW     G-vecs:    dense   smooth      PW
     Min          92      60     17                 4228     2269     339
     Max          93      62     18                 4233     2273     343
     Sum        3705    2441    681               169205    90871   13613
 


     bravais-lattice index     =            0
     lattice parameter (alat)  =      10.3915  a.u.
     unit-cell volume          =    1123.4999 (a.u.)^3
     number of atoms/cell      =           16
     number of atomic types    =            1
     number of electrons       =       256.00
     number of Kohn-Sham states=          154
     kinetic-energy cutoff     =      71.0000  Ry
     charge density cutoff     =     430.0000  Ry
     convergence threshold     =      5.0E-05
     mixing beta               =       0.1000
     number of iterations used =           10  plain     mixing
     Exchange-correlation      = SLA PW PBX PBC ( 1  4  3  4 0 0)

     celldm(1)=  10.391466  celldm(2)=   0.000000  celldm(3)=   0.000000
     celldm(4)=   0.000000  celldm(5)=   0.000000  celldm(6)=   0.000000

     crystal axes: (cart. coord. in units of alat)
               a(1) = (   1.000000   0.000000   0.000000 )  
               a(2) = (   0.000000   1.000000   0.000000 )  
               a(3) = (   0.000000   0.000000   1.001250 )  

     reciprocal axes: (cart. coord. in units 2 pi/alat)
               b(1) = (  1.000000  0.000000  0.000000 )  
               b(2) = (  0.000000  1.000000  0.000000 )  
               b(3) = (  0.000000  0.000000  0.998752 )  


     PseudoPot. # 1 for Fe read from file:
     /rds/homes/b/bxp912/pp/Fe.pbe-spn-kjpaw_psl.1.0.0.UPF
     MD5 check sum: 42f43b795421b414b0dc916aa790dbcb
     Pseudo is Projector augmented-wave + core cor, Zval = 16.0
     Generated using "atomic" code by A. Dal Corso v.6.3
     Shape of augmentation charge: PSQ
     Using radial grid of 1191 points,  6 beta functions with: 
                l(1) =   0
                l(2) =   0
                l(3) =   1
                l(4) =   1
                l(5) =   2
                l(6) =   2
     Q(r) pseudized with 0 coefficients 


     atomic species   valence    mass     pseudopotential
        Fe            16.00    55.84500     Fe( 1.00)

     16 Sym. Ops., with inversion, found



   Cartesian axes

     site n.     atom                  positions (alat units)
         1           Fe  tau(   1) = (   0.0000000   0.0000000   0.0000000  )
         2           Fe  tau(   2) = (   0.2500089   0.2500089   0.2503214  )
         3           Fe  tau(   3) = (   0.0000000   0.0000000   0.5006245  )
         4           Fe  tau(   4) = (   0.2500089   0.2500089   0.7509286  )
         5           Fe  tau(   5) = (   0.0000000   0.5000001   0.0000000  )
         6           Fe  tau(   6) = (   0.2500089   0.7499912   0.2503214  )
         7           Fe  tau(   7) = (   0.0000000   0.5000001   0.5006245  )
         8           Fe  tau(   8) = (   0.2500089   0.7499912   0.7509286  )
         9           Fe  tau(   9) = (   0.5000001   0.0000000   0.0000000  )
        10           Fe  tau(  10) = (   0.7499912   0.2500089   0.2503214  )
        11           Fe  tau(  11) = (   0.5000001   0.0000000   0.5006245  )
        12           Fe  tau(  12) = (   0.7499912   0.2500089   0.7509286  )
        13           Fe  tau(  13) = (   0.5000001   0.5000001   0.0000000  )
        14           Fe  tau(  14) = (   0.7499912   0.7499912   0.2503214  )
        15           Fe  tau(  15) = (   0.5000001   0.5000001   0.5006245  )
        16           Fe  tau(  16) = (   0.7499912   0.7499912   0.7509286  )

     number of k points=    75  Marzari-Vanderbilt smearing, width (Ry)=  0.0400
                       cart. coord. in units 2pi/alat
        k(    1) = (   0.0555556   0.0555556   0.0554862), wk =   0.0219479
        k(    2) = (   0.0555556   0.0555556   0.1664586), wk =   0.0219479
        k(    3) = (   0.0555556   0.0555556   0.2774310), wk =   0.0219479
        k(    4) = (   0.0555556   0.0555556   0.3884034), wk =   0.0219479
        k(    5) = (   0.0555556   0.0555556  -0.4993758), wk =   0.0109739
        k(    6) = (   0.0555556   0.1666667   0.0554862), wk =   0.0438957
        k(    7) = (   0.0555556   0.1666667   0.1664586), wk =   0.0438957
        k(    8) = (   0.0555556   0.1666667   0.2774310), wk =   0.0438957
        k(    9) = (   0.0555556   0.1666667   0.3884034), wk =   0.0438957
        k(   10) = (   0.0555556   0.1666667  -0.4993758), wk =   0.0219479
        k(   11) = (   0.0555556   0.2777778   0.0554862), wk =   0.0438957
        k(   12) = (   0.0555556   0.2777778   0.1664586), wk =   0.0438957
        k(   13) = (   0.0555556   0.2777778   0.2774310), wk =   0.0438957
        k(   14) = (   0.0555556   0.2777778   0.3884034), wk =   0.0438957
        k(   15) = (   0.0555556   0.2777778  -0.4993758), wk =   0.0219479
        k(   16) = (   0.0555556   0.3888889   0.0554862), wk =   0.0438957
        k(   17) = (   0.0555556   0.3888889   0.1664586), wk =   0.0438957
        k(   18) = (   0.0555556   0.3888889   0.2774310), wk =   0.0438957
        k(   19) = (   0.0555556   0.3888889   0.3884034), wk =   0.0438957
        k(   20) = (   0.0555556   0.3888889  -0.4993758), wk =   0.0219479
        k(   21) = (   0.0555556  -0.5000000   0.0554862), wk =   0.0219479
        k(   22) = (   0.0555556  -0.5000000   0.1664586), wk =   0.0219479
        k(   23) = (   0.0555556  -0.5000000   0.2774310), wk =   0.0219479
        k(   24) = (   0.0555556  -0.5000000   0.3884034), wk =   0.0219479
        k(   25) = (   0.0555556  -0.5000000  -0.4993758), wk =   0.0109739
        k(   26) = (   0.1666667   0.1666667   0.0554862), wk =   0.0219479
        k(   27) = (   0.1666667   0.1666667   0.1664586), wk =   0.0219479
        k(   28) = (   0.1666667   0.1666667   0.2774310), wk =   0.0219479
        k(   29) = (   0.1666667   0.1666667   0.3884034), wk =   0.0219479
        k(   30) = (   0.1666667   0.1666667  -0.4993758), wk =   0.0109739
        k(   31) = (   0.1666667   0.2777778   0.0554862), wk =   0.0438957
        k(   32) = (   0.1666667   0.2777778   0.1664586), wk =   0.0438957
        k(   33) = (   0.1666667   0.2777778   0.2774310), wk =   0.0438957
        k(   34) = (   0.1666667   0.2777778   0.3884034), wk =   0.0438957
        k(   35) = (   0.1666667   0.2777778  -0.4993758), wk =   0.0219479
        k(   36) = (   0.1666667   0.3888889   0.0554862), wk =   0.0438957
        k(   37) = (   0.1666667   0.3888889   0.1664586), wk =   0.0438957
        k(   38) = (   0.1666667   0.3888889   0.2774310), wk =   0.0438957
        k(   39) = (   0.1666667   0.3888889   0.3884034), wk =   0.0438957
        k(   40) = (   0.1666667   0.3888889  -0.4993758), wk =   0.0219479
        k(   41) = (   0.1666667  -0.5000000   0.0554862), wk =   0.0219479
        k(   42) = (   0.1666667  -0.5000000   0.1664586), wk =   0.0219479
        k(   43) = (   0.1666667  -0.5000000   0.2774310), wk =   0.0219479
        k(   44) = (   0.1666667  -0.5000000   0.3884034), wk =   0.0219479
        k(   45) = (   0.1666667  -0.5000000  -0.4993758), wk =   0.0109739
        k(   46) = (   0.2777778   0.2777778   0.0554862), wk =   0.0219479
        k(   47) = (   0.2777778   0.2777778   0.1664586), wk =   0.0219479
        k(   48) = (   0.2777778   0.2777778   0.2774310), wk =   0.0219479
        k(   49) = (   0.2777778   0.2777778   0.3884034), wk =   0.0219479
        k(   50) = (   0.2777778   0.2777778  -0.4993758), wk =   0.0109739
        k(   51) = (   0.2777778   0.3888889   0.0554862), wk =   0.0438957
        k(   52) = (   0.2777778   0.3888889   0.1664586), wk =   0.0438957
        k(   53) = (   0.2777778   0.3888889   0.2774310), wk =   0.0438957
        k(   54) = (   0.2777778   0.3888889   0.3884034), wk =   0.0438957
        k(   55) = (   0.2777778   0.3888889  -0.4993758), wk =   0.0219479
        k(   56) = (   0.2777778  -0.5000000   0.0554862), wk =   0.0219479
        k(   57) = (   0.2777778  -0.5000000   0.1664586), wk =   0.0219479
        k(   58) = (   0.2777778  -0.5000000   0.2774310), wk =   0.0219479
        k(   59) = (   0.2777778  -0.5000000   0.3884034), wk =   0.0219479
        k(   60) = (   0.2777778  -0.5000000  -0.4993758), wk =   0.0109739
        k(   61) = (   0.3888889   0.3888889   0.0554862), wk =   0.0219479
        k(   62) = (   0.3888889   0.3888889   0.1664586), wk =   0.0219479
        k(   63) = (   0.3888889   0.3888889   0.2774310), wk =   0.0219479
        k(   64) = (   0.3888889   0.3888889   0.3884034), wk =   0.0219479
        k(   65) = (   0.3888889   0.3888889  -0.4993758), wk =   0.0109739
        k(   66) = (   0.3888889  -0.5000000   0.0554862), wk =   0.0219479
        k(   67) = (   0.3888889  -0.5000000   0.1664586), wk =   0.0219479
        k(   68) = (   0.3888889  -0.5000000   0.2774310), wk =   0.0219479
        k(   69) = (   0.3888889  -0.5000000   0.3884034), wk =   0.0219479
        k(   70) = (   0.3888889  -0.5000000  -0.4993758), wk =   0.0109739
        k(   71) = (  -0.5000000  -0.5000000   0.0554862), wk =   0.0054870
        k(   72) = (  -0.5000000  -0.5000000   0.1664586), wk =   0.0054870
        k(   73) = (  -0.5000000  -0.5000000   0.2774310), wk =   0.0054870
        k(   74) = (  -0.5000000  -0.5000000   0.3884034), wk =   0.0054870
        k(   75) = (  -0.5000000  -0.5000000  -0.4993758), wk =   0.0027435

     Dense  grid:   169205 G-vectors     FFT dimensions: (  72,  72,  72)

     Smooth grid:    90871 G-vectors     FFT dimensions: (  60,  60,  60)

     Estimated max dynamical RAM per process >      83.28 MB

     Estimated total dynamical RAM >       3.25 GB

     Check: negative/imaginary core charge=   -0.000006    0.000000

     Initial potential from superposition of free atoms

     starting charge  255.99300, renormalised to  256.00000
     Starting wfcs are  160 randomized atomic wfcs
     Checking if some PAW data can be deallocated... 

     total cpu time spent up to now is        7.6 secs

     Self-consistent Calculation

     iteration #  1     ecut=    71.00 Ry     beta= 0.10
     Davidson diagonalization with overlap
     ethr =  1.00E-02,  avg # of iterations =  3.3

     Threshold (ethr) on eigenvalues was too large:
     Diagonalizing with lowered threshold

     Davidson diagonalization with overlap
     ethr =  2.54E-04,  avg # of iterations =  3.1

     total cpu time spent up to now is       61.5 secs

     total energy              =   -5267.75211172 Ry
     Harris-Foulkes estimate   =   -5267.86771066 Ry
     estimated scf accuracy    <       0.73282215 Ry

     iteration #  2     ecut=    71.00 Ry     beta= 0.10
     Davidson diagonalization with overlap
     ethr =  2.86E-04,  avg # of iterations =  1.0

     total cpu time spent up to now is       77.9 secs

     total energy              =   -5267.61823108 Ry
     Harris-Foulkes estimate   =   -5267.76739397 Ry
     estimated scf accuracy    <       0.36320926 Ry

     iteration #  3     ecut=    71.00 Ry     beta= 0.10
     Davidson diagonalization with overlap
     ethr =  1.42E-04,  avg # of iterations =  3.2

     total cpu time spent up to now is      108.3 secs

     total energy              =   -5267.69915620 Ry
     Harris-Foulkes estimate   =   -5267.72193108 Ry
     estimated scf accuracy    <       0.53876585 Ry

     iteration #  4     ecut=    71.00 Ry     beta= 0.10
     Davidson diagonalization with overlap
     ethr =  1.42E-04,  avg # of iterations =  1.0

     total cpu time spent up to now is      124.8 secs

     total energy              =   -5267.70581229 Ry
     Harris-Foulkes estimate   =   -5267.71136282 Ry
     estimated scf accuracy    <       0.03083930 Ry

     iteration #  5     ecut=    71.00 Ry     beta= 0.10
     Davidson diagonalization with overlap
     ethr =  1.20E-05,  avg # of iterations =  1.9

     total cpu time spent up to now is      144.3 secs

     total energy              =   -5267.70495601 Ry
     Harris-Foulkes estimate   =   -5267.70772624 Ry
     estimated scf accuracy    <       0.02174588 Ry

     iteration #  6     ecut=    71.00 Ry     beta= 0.10
     Davidson diagonalization with overlap
     ethr =  8.49E-06,  avg # of iterations =  3.0

     total cpu time spent up to now is      170.6 secs

     total energy              =   -5267.70823119 Ry
     Harris-Foulkes estimate   =   -5267.70747282 Ry
     estimated scf accuracy    <       0.01115243 Ry

     iteration #  7     ecut=    71.00 Ry     beta= 0.10
     Davidson diagonalization with overlap
     ethr =  4.36E-06,  avg # of iterations =  1.0

     total cpu time spent up to now is      187.0 secs

     total energy              =   -5267.70698615 Ry
     Harris-Foulkes estimate   =   -5267.70861265 Ry
     estimated scf accuracy    <       0.01312418 Ry

     iteration #  8     ecut=    71.00 Ry     beta= 0.10
     Davidson diagonalization with overlap
     ethr =  4.36E-06,  avg # of iterations =  1.0

     total cpu time spent up to now is      203.5 secs

     total energy              =   -5267.70731505 Ry
     Harris-Foulkes estimate   =   -5267.70778533 Ry
     estimated scf accuracy    <       0.00770157 Ry

     iteration #  9     ecut=    71.00 Ry     beta= 0.10
     Davidson diagonalization with overlap
     ethr =  3.01E-06,  avg # of iterations =  2.1

     total cpu time spent up to now is      224.1 secs

     total energy              =   -5267.70768446 Ry
     Harris-Foulkes estimate   =   -5267.70769469 Ry
     estimated scf accuracy    <       0.00042491 Ry

     iteration # 10     ecut=    71.00 Ry     beta= 0.10
     Davidson diagonalization with overlap
     ethr =  1.66E-07,  avg # of iterations =  2.2

     total cpu time spent up to now is      245.3 secs

     total energy              =   -5267.70769226 Ry
     Harris-Foulkes estimate   =   -5267.70770313 Ry
     estimated scf accuracy    <       0.00019445 Ry

     iteration # 11     ecut=    71.00 Ry     beta= 0.10
     Davidson diagonalization with overlap
     ethr =  7.60E-08,  avg # of iterations =  1.0

     total cpu time spent up to now is      261.7 secs

     End of self-consistent calculation

          k = 0.0556 0.0556 0.0555 ( 11293 PWs)   bands (ev):

   -66.8149 -66.7158 -66.7157 -66.7154 -66.6994 -66.6992 -66.6989 -66.6983
   -66.6983 -66.6979 -66.6976 -66.6975 -66.6972 -66.6902 -66.6901 -66.6140
   -33.1108 -33.1108 -33.1105 -33.1077 -33.1077 -33.1074 -32.9436 -32.9422
   -32.9367 -32.8671 -32.8642 -32.8639 -32.8639 -32.8424 -32.8423 -32.8292
   -32.8287 -32.8286 -32.7915 -32.7914 -32.7671 -32.7510 -32.7510 -32.7505
   -32.7396 -32.7394 -32.7391 -32.7267 -32.7256 -32.7253 -32.7233 -32.7224
   -32.7221 -32.7151 -32.7150 -32.7146 -32.7042 -32.7042 -32.7038 -32.5403
   -32.5388 -32.5385 -32.5384 -32.5356 -32.5353 -32.5353 -32.5338 -32.5335
    11.4417  15.3221  15.3297  15.3297  15.4497  15.4501  15.4501  15.4756
    15.4761  15.4762  15.7174  15.7210  15.8344  15.8423  15.8423  17.2119
    17.3007  17.3026  17.3035  17.3141  17.3141  17.3172  17.3280  17.3280
    17.4411  17.4452  17.4900  17.7427  17.7454  17.7455  18.1365  18.1398
    18.1401  18.6201  18.6257  18.6709  18.9483  18.9484  18.9531  19.0528
    19.0529  19.0569  19.1399  19.1401  19.1453  19.2353  19.2354  19.2405
    19.9829  19.9833  19.9867  20.2049  20.2050  20.2120  20.2336  20.2337
    20.2365  20.3717  20.3717  20.3737  20.3738  20.3813  20.3828  20.4046
    20.4135  20.6587  20.6587  20.6692  20.6700  20.6703  20.6745  20.7148
    20.7151  20.7200  20.7202  21.2041  21.2043  21.2120  21.4313  21.4727
    21.4859  21.4859  21.5095  21.5108  21.9378  21.9379  21.9398  21.9521
    21.9690  21.9690

          k = 0.0556 0.0556 0.1665 ( 11325 PWs)   bands (ev):

   -66.8113 -66.7335 -66.7150 -66.7147 -66.7014 -66.7011 -66.6985 -66.6980
   -66.6977 -66.6971 -66.6967 -66.6964 -66.6908 -66.6905 -66.6813 -66.6167
   -33.1029 -33.1029 -33.1013 -33.0985 -33.0939 -33.0939 -32.9472 -32.9360
   -32.9267 -32.9040 -32.8956 -32.8955 -32.8931 -32.8924 -32.8617 -32.8614
   -32.8261 -32.7982 -32.7881 -32.7862 -32.7741 -32.7505 -32.7502 -32.7423
   -32.7326 -32.7295 -32.7291 -32.7291 -32.7286 -32.7198 -32.7194 -32.7152
   -32.7150 -32.7117 -32.7116 -32.6799 -32.6777 -32.6775 -32.6699 -32.5554
   -32.5480 -32.5480 -32.5467 -32.5440 -32.5392 -32.5387 -32.5387 -32.5362
    11.5794  14.6913  15.3860  15.3860  15.4606  15.4607  15.5408  15.5408
    15.5502  15.5748  15.7799  15.7857  15.8855  15.8855  16.1693  17.1018
    17.2131  17.2199  17.2856  17.2980  17.3344  17.3515  17.3644  17.3644
    17.4058  17.4058  17.6349  17.6469  17.6999  17.7001  18.0404  18.0406
    18.4899  18.5981  18.6158  18.7359  18.7371  18.7371  18.8031  18.9170
    18.9170  18.9604  19.2266  19.2267  19.3428  19.3429  19.3808  19.4816
    19.6700  19.6701  19.7428  19.9627  19.9629  19.9717  20.1336  20.2131
    20.2134  20.3122  20.3123  20.3312  20.3973  20.3975  20.4022  20.4284
    20.4429  20.4568  20.4569  20.4845  20.6773  20.6942  20.6945  20.7179
    20.7181  20.8948  20.9993  20.9994  21.1619  21.2576  21.3720  21.4940
    21.4940  21.5016  21.5389  21.5390  21.8410  21.8410  22.0138  22.0138
    22.1027  22.1028

          k = 0.0556 0.0556 0.2774 ( 11337 PWs)   bands (ev):

   -66.8046 -66.7509 -66.7135 -66.7133 -66.7037 -66.7035 -66.6976 -66.6976
   -66.6972 -66.6963 -66.6962 -66.6959 -66.6919 -66.6913 -66.6657 -66.6219
   -33.0845 -33.0845 -33.0833 -33.0814 -33.0699 -33.0699 -32.9481 -32.9459
   -32.9404 -32.9373 -32.9372 -32.9233 -32.9152 -32.9118 -32.9060 -32.9059
   -32.8205 -32.8109 -32.8081 -32.7933 -32.7483 -32.7480 -32.7438 -32.7434
   -32.7391 -32.7334 -32.7331 -32.7180 -32.7176 -32.7153 -32.7150 -32.6959
   -32.6882 -32.6763 -32.6762 -32.6470 -32.6444 -32.6442 -32.6377 -32.5813
   -32.5635 -32.5635 -32.5622 -32.5606 -32.5509 -32.5481 -32.5481 -32.5458
    11.8506  14.0150  15.4726  15.4726  15.4981  15.4982  15.6391  15.6392
    15.7435  15.7651  15.8956  15.9140  15.9355  15.9355  16.3137  16.9383
    16.9809  16.9845  17.1695  17.2181  17.2538  17.2643  17.4765  17.4765
    17.5452  17.5452  17.6912  17.6914  17.8889  17.9106  17.9719  17.9721
    18.4475  18.4475  18.5810  18.6092  18.6093  18.6095  18.6472  18.6951
    18.8296  19.0902  19.1072  19.1074  19.3238  19.3241  19.4857  19.4858
    19.5116  19.5239  19.5240  19.5395  19.5865  19.6603  19.7714  20.1867
    20.2126  20.2127  20.3107  20.3108  20.4392  20.4532  20.4988  20.5169
    20.5171  20.6555  20.6565  20.6826  20.7127  20.7146  20.7235  20.7500
    20.7501  20.7652  20.9548  20.9952  21.1222  21.1953  21.1953  21.4295
    21.5084  21.5084  21.5930  21.5930  21.7137  21.7137  22.0949  22.0949
    22.2373  22.2373

          k = 0.0556 0.0556 0.3884 ( 11351 PWs)   bands (ev):

   -66.7947 -66.7673 -66.7115 -66.7112 -66.7063 -66.7060 -66.6971 -66.6967
   -66.6964 -66.6961 -66.6959 -66.6950 -66.6933 -66.6924 -66.6517 -66.6295
   -33.0575 -33.0567 -33.0567 -33.0564 -33.0367 -33.0367 -32.9871 -32.9847
   -32.9807 -32.9807 -32.9524 -32.9524 -32.9466 -32.9311 -32.9047 -32.8922
   -32.8526 -32.8397 -32.7944 -32.7823 -32.7590 -32.7526 -32.7453 -32.7449
   -32.7375 -32.7371 -32.7165 -32.7161 -32.7154 -32.7150 -32.6985 -32.6534
   -32.6492 -32.6418 -32.6418 -32.6170 -32.6150 -32.6129 -32.6128 -32.6082
   -32.5849 -32.5849 -32.5846 -32.5845 -32.5682 -32.5636 -32.5636 -32.5618
    12.2471  13.3548  15.5438  15.5438  15.5454  15.5454  15.7571  15.7572
    15.9375  15.9375  16.0131  16.0297  16.0440  16.1028  16.3029  16.6430
    16.6643  16.6721  17.1625  17.1797  17.2159  17.2247  17.6460  17.6460
    17.7400  17.7401  17.8111  17.8113  18.0091  18.0093  18.1865  18.1865
    18.2166  18.2375  18.3012  18.3012  18.5756  18.5775  18.5777  18.6070
    18.6255  18.6358  18.7535  18.7537  18.9554  19.0667  19.0709  19.2998
    19.3994  19.7235  19.7237  19.7507  19.7508  19.9764  19.9790  20.0782
    20.0784  20.0989  20.1762  20.1764  20.4890  20.4982  20.5791  20.6037
    20.6065  20.6726  20.6897  20.7058  20.7118  20.7244  20.8018  20.8026
    20.8185  20.8187  20.9453  21.0378  21.0378  21.2279  21.2280  21.3064
    21.4837  21.4837  21.5260  21.5261  21.5972  21.5972  22.1930  22.1930
    22.3039  22.3040

          k = 0.0556 0.0556-0.4994 ( 11340 PWs)   bands (ev):

   -66.7822 -66.7819 -66.7093 -66.7088 -66.7086 -66.7086 -66.6969 -66.6964
   -66.6962 -66.6961 -66.6950 -66.6947 -66.6939 -66.6935 -66.6397 -66.6393
   -33.0247 -33.0244 -33.0244 -33.0241 -33.0214 -33.0213 -33.0212 -33.0212
   -32.9970 -32.9968 -32.9967 -32.9967 -32.9413 -32.9410 -32.8810 -32.8807
   -32.8682 -32.8679 -32.7768 -32.7765 -32.7682 -32.7678 -32.7418 -32.7415
   -32.7415 -32.7411 -32.7160 -32.7156 -32.7156 -32.7152 -32.6545 -32.6543
   -32.6162 -32.6158 -32.6144 -32.6140 -32.6110 -32.6109 -32.6107 -32.6107
   -32.5906 -32.5902 -32.5854 -32.5853 -32.5852 -32.5852 -32.5829 -32.5826
    12.7551  12.7556  15.5686  15.5686  15.5689  15.5690  15.8690  15.8691
    15.8694  15.8694  16.1943  16.1948  16.3338  16.3343  16.3420  16.3424
    16.3477  16.3480  17.1814  17.1821  17.1908  17.1915  17.8612  17.8613
    17.8615  17.8616  17.9577  17.9578  17.9579  17.9581  18.1642  18.1646
    18.1648  18.1648  18.3242  18.3245  18.3246  18.3247  18.5879  18.5883
    18.6115  18.6119  18.6148  18.6153  18.6251  18.6256  19.1130  19.1131
    19.7087  19.7093  19.9130  19.9130  19.9131  19.9134  19.9872  19.9872
    19.9873  19.9875  20.3238  20.3240  20.4499  20.4501  20.5457  20.5460
    20.5511  20.5514  20.6805  20.6809  20.6976  20.6980  20.7127  20.7131
    21.0767  21.0770  21.0770  21.0770  21.1422  21.1427  21.2889  21.2891
    21.2891  21.2892  21.5466  21.5467  21.5468  21.5469  22.2766  22.2766
    22.2768  22.2768

          k = 0.0556 0.1667 0.0555 ( 11331 PWs)   bands (ev):

   -66.8113 -66.7334 -66.7151 -66.7148 -66.7013 -66.7010 -66.6987 -66.6981
   -66.6978 -66.6972 -66.6967 -66.6964 -66.6909 -66.6905 -66.6812 -66.6167
   -33.1029 -33.1024 -33.1017 -33.0989 -33.0939 -33.0935 -32.9463 -32.9370
   -32.9269 -32.9040 -32.8953 -32.8953 -32.8930 -32.8924 -32.8613 -32.8611
   -32.8261 -32.7984 -32.7883 -32.7868 -32.7746 -32.7513 -32.7503 -32.7422
   -32.7317 -32.7304 -32.7293 -32.7289 -32.7278 -32.7206 -32.7196 -32.7160
   -32.7152 -32.7111 -32.7110 -32.6802 -32.6772 -32.6769 -32.6702 -32.5553
   -32.5483 -32.5480 -32.5465 -32.5437 -32.5394 -32.5389 -32.5385 -32.5362
    11.5797  14.6981  15.3791  15.3863  15.4605  15.4606  15.5404  15.5407
    15.5510  15.5757  15.7816  15.7845  15.8784  15.8858  16.1770  17.1034
    17.2134  17.2241  17.2958  17.3082  17.3376  17.3534  17.3539  17.3645
    17.3952  17.4059  17.6307  17.6424  17.6977  17.7000  18.0381  18.0408
    18.4927  18.5966  18.6203  18.7308  18.7323  18.7386  18.7993  18.9111
    18.9190  18.9588  19.2325  19.2329  19.3487  19.3496  19.3752  19.4759
    19.6709  19.6771  19.7383  19.9640  19.9650  19.9718  20.1245  20.2129
    20.2162  20.3106  20.3202  20.3377  20.3934  20.3936  20.4043  20.4196
    20.4370  20.4567  20.4592  20.4826  20.6729  20.6965  20.6966  20.7142
    20.7145  20.8892  20.9996  21.0060  21.1714  21.2567  21.3702  21.4815
    21.4942  21.5028  21.5385  21.5442  21.8412  21.8428  21.9979  22.0143
    22.1025  22.1079

          k = 0.0556 0.1667 0.1665 ( 11336 PWs)   bands (ev):

   -66.8080 -66.7323 -66.7320 -66.7141 -66.7062 -66.7007 -66.7005 -66.6976
   -66.6963 -66.6960 -66.6927 -66.6918 -66.6906 -66.6817 -66.6814 -66.6193
   -33.1008 -33.0940 -33.0937 -33.0860 -33.0856 -33.0743 -32.9540 -32.9325
   -32.9276 -32.9224 -32.9223 -32.9148 -32.9113 -32.9072 -32.8828 -32.8368
   -32.8218 -32.8213 -32.7873 -32.7854 -32.7852 -32.7567 -32.7458 -32.7451
   -32.7391 -32.7372 -32.7362 -32.7261 -32.7252 -32.7229 -32.7199 -32.7109
   -32.7012 -32.6885 -32.6812 -32.6809 -32.6576 -32.6447 -32.6443 -32.5767
   -32.5633 -32.5545 -32.5542 -32.5467 -32.5464 -32.5442 -32.5353 -32.5338
    11.7158  14.7671  14.7735  15.4040  15.4488  15.5627  15.5632  15.6388
    15.6395  15.6509  15.8439  15.8480  15.9379  16.2116  16.2185  17.0036
    17.1157  17.2933  17.3332  17.3415  17.3431  17.3432  17.3703  17.3802
    17.3864  17.4102  17.5107  17.6171  17.6398  17.6575  17.9345  18.3150
    18.3164  18.5376  18.6006  18.6009  18.6021  18.6469  18.7913  18.8373
    19.1382  19.1407  19.2020  19.2052  19.2488  19.3116  19.4126  19.5119
    19.5188  19.5206  19.5275  19.7115  19.7197  19.8638  19.9701  19.9734
    20.2047  20.3207  20.3337  20.3417  20.3902  20.3917  20.3997  20.4187
    20.4197  20.5987  20.6460  20.6795  20.6796  20.6956  20.6973  20.7078
    20.7092  20.8095  20.8137  21.0285  21.1365  21.1412  21.1481  21.1574
    21.2684  21.5247  21.5284  21.6605  21.7322  22.0889  22.4101  22.4131
    22.5991  22.7445

          k = 0.0556 0.1667 0.2774 ( 11350 PWs)   bands (ev):

   -66.8014 -66.7491 -66.7296 -66.7127 -66.7114 -66.7030 -66.6995 -66.6972
   -66.6958 -66.6953 -66.6930 -66.6911 -66.6894 -66.6821 -66.6665 -66.6242
   -33.0884 -33.0768 -33.0766 -33.0704 -33.0636 -33.0451 -32.9614 -32.9601
   -32.9576 -32.9465 -32.9440 -32.9424 -32.9199 -32.9174 -32.8914 -32.8676
   -32.8254 -32.8190 -32.7834 -32.7811 -32.7789 -32.7771 -32.7581 -32.7500
   -32.7489 -32.7415 -32.7361 -32.7236 -32.7220 -32.7098 -32.7030 -32.6856
   -32.6831 -32.6692 -32.6604 -32.6488 -32.6322 -32.6145 -32.6141 -32.6071
   -32.5841 -32.5670 -32.5669 -32.5621 -32.5555 -32.5542 -32.5386 -32.5376
    11.9838  14.1091  14.9059  15.3565  15.5475  15.6022  15.7374  15.7591
    15.7893  15.8268  15.9576  15.9750  16.0045  16.2536  16.3626  16.8846
    16.9658  16.9953  17.2303  17.2967  17.3179  17.3270  17.3830  17.4470
    17.4702  17.5062  17.6002  17.6758  17.7835  17.8392  17.8481  18.1851
    18.3416  18.4436  18.4604  18.4809  18.5197  18.5648  18.5840  18.7768
    18.8175  18.9708  19.0007  19.1550  19.2218  19.3018  19.3151  19.3171
    19.4033  19.4960  19.5174  19.5681  19.5983  19.7373  19.7633  20.0817
    20.2082  20.2368  20.2770  20.3112  20.3440  20.3847  20.4224  20.4631
    20.6237  20.6384  20.6401  20.7041  20.7096  20.7297  20.7336  20.7450
    20.7952  20.9077  20.9234  20.9309  20.9449  20.9726  21.0283  21.1284
    21.2447  21.4575  21.5120  21.5933  21.7275  22.2279  22.2484  22.8092
    22.9161  23.0329

          k = 0.0556 0.1667 0.3884 ( 11335 PWs)   bands (ev):

   -66.7917 -66.7650 -66.7260 -66.7166 -66.7106 -66.7056 -66.6981 -66.6966
   -66.6957 -66.6947 -66.6942 -66.6920 -66.6866 -66.6831 -66.6529 -66.6316
   -33.0664 -33.0519 -33.0510 -33.0484 -33.0331 -33.0074 -33.0004 -32.9899
   -32.9838 -32.9827 -32.9633 -32.9568 -32.9552 -32.9164 -32.9017 -32.8682
   -32.8503 -32.8111 -32.8073 -32.7753 -32.7750 -32.7674 -32.7584 -32.7560
   -32.7490 -32.7468 -32.7316 -32.7229 -32.7224 -32.6961 -32.6863 -32.6733
   -32.6476 -32.6441 -32.6376 -32.6322 -32.6195 -32.6094 -32.6069 -32.5873
   -32.5867 -32.5853 -32.5846 -32.5844 -32.5723 -32.5669 -32.5482 -32.5481
    12.3750  13.4637  15.0612  15.2959  15.6347  15.6478  15.8550  15.9463
    16.0236  16.0328  16.0859  16.1055  16.1580  16.2171  16.3592  16.6749
    16.6754  16.6902  17.1983  17.2416  17.2533  17.2774  17.5536  17.5965
    17.6116  17.6679  17.6682  17.8180  17.8927  18.0292  18.0740  18.1353
    18.2401  18.2518  18.3100  18.3232  18.4427  18.4437  18.4882  18.5231
    18.5371  18.5671  18.6449  18.7843  18.8527  18.8539  19.1286  19.5133
    19.5423  19.7018  19.7061  19.7585  19.7611  19.7798  19.9513  20.0248
    20.0534  20.1055  20.1765  20.2185  20.3908  20.4444  20.4681  20.5450
    20.5802  20.5860  20.5893  20.7017  20.7081  20.7171  20.7178  20.7744
    20.7930  20.8249  20.8612  20.9848  20.9909  21.0863  21.1285  21.2273
    21.2333  21.2386  21.4336  21.6307  21.7114  22.0664  22.4081  22.7398
    23.0904  23.2343

          k = 0.0556 0.1667-0.4994 ( 11334 PWs)   bands (ev):

   -66.7796 -66.7792 -66.7218 -66.7214 -66.7083 -66.7079 -66.6966 -66.6963
   -66.6961 -66.6958 -66.6934 -66.6930 -66.6848 -66.6844 -66.6414 -66.6410
   -33.0366 -33.0365 -33.0211 -33.0208 -33.0206 -33.0203 -33.0186 -33.0186
   -32.9965 -32.9964 -32.9639 -32.9638 -32.9620 -32.9619 -32.8784 -32.8780
   -32.8414 -32.8412 -32.7876 -32.7874 -32.7674 -32.7671 -32.7632 -32.7629
   -32.7520 -32.7517 -32.7225 -32.7221 -32.6907 -32.6903 -32.6864 -32.6863
   -32.6396 -32.6396 -32.6134 -32.6130 -32.6094 -32.6090 -32.6064 -32.6064
   -32.5939 -32.5935 -32.5847 -32.5847 -32.5652 -32.5650 -32.5644 -32.5643
    12.8751  12.8756  15.1989  15.1993  15.6685  15.6688  15.9643  15.9645
    16.1008  16.1011  16.2546  16.2551  16.3567  16.3571  16.3851  16.3855
    16.3933  16.3936  17.2148  17.2154  17.2393  17.2399  17.7564  17.7566
    17.7749  17.7752  17.8034  17.8034  17.8642  17.8647  18.1870  18.1872
    18.2278  18.2279  18.2937  18.2938  18.4125  18.4126  18.4286  18.4289
    18.4364  18.4368  18.4775  18.4778  18.5526  18.5530  19.3103  19.3104
    19.7938  19.7944  19.8219  19.8221  19.9435  19.9437  19.9892  19.9894
    20.0269  20.0271  20.0410  20.0411  20.3801  20.3803  20.5123  20.5125
    20.5257  20.5259  20.6491  20.6495  20.7014  20.7018  20.7403  20.7406
    20.8490  20.8490  20.9505  20.9506  21.0604  21.0605  21.1379  21.1380
    21.3019  21.3023  21.4633  21.4634  21.8777  21.8778  22.5930  22.5932
    23.2240  23.2242

          k = 0.0556 0.2778 0.0555 ( 11335 PWs)   bands (ev):

   -66.8045 -66.7508 -66.7136 -66.7133 -66.7037 -66.7034 -66.6978 -66.6975
   -66.6973 -66.6963 -66.6962 -66.6959 -66.6919 -66.6913 -66.6656 -66.6219
   -33.0844 -33.0840 -33.0837 -33.0816 -33.0698 -33.0695 -32.9472 -32.9461
   -32.9404 -32.9369 -32.9368 -32.9244 -32.9149 -32.9122 -32.9056 -32.9055
   -32.8211 -32.8109 -32.8086 -32.7932 -32.7492 -32.7482 -32.7438 -32.7428
   -32.7382 -32.7343 -32.7333 -32.7187 -32.7177 -32.7161 -32.7151 -32.6957
   -32.6880 -32.6758 -32.6757 -32.6472 -32.6439 -32.6436 -32.6380 -32.5811
   -32.5637 -32.5634 -32.5620 -32.5602 -32.5511 -32.5484 -32.5481 -32.5458
    11.8517  14.0207  15.4672  15.4734  15.4978  15.4984  15.6388  15.6389
    15.7449  15.7666  15.8990  15.9120  15.9301  15.9363  16.3208  16.9419
    16.9819  16.9887  17.1717  17.2210  17.2630  17.2734  17.4664  17.4768
    17.5351  17.5455  17.6893  17.6916  17.8833  17.9050  17.9700  17.9724
    18.4404  18.4489  18.5805  18.6022  18.6109  18.6132  18.6465  18.6927
    18.8245  19.0939  19.1073  19.1131  19.3239  19.3304  19.4905  19.4929
    19.5065  19.5290  19.5305  19.5317  19.5783  19.6547  19.7655  20.1932
    20.2113  20.2202  20.3091  20.3186  20.4315  20.4455  20.4942  20.5167
    20.5192  20.6559  20.6570  20.6783  20.7088  20.7107  20.7224  20.7501
    20.7519  20.7604  20.9607  20.9930  21.1193  21.1934  21.1998  21.4305
    21.4973  21.5091  21.5925  21.5955  21.7139  21.7158  22.0810  22.0962
    22.2352  22.2437

          k = 0.0556 0.2778 0.1665 ( 11354 PWs)   bands (ev):

   -66.8014 -66.7490 -66.7297 -66.7127 -66.7114 -66.7029 -66.6996 -66.6971
   -66.6957 -66.6954 -66.6930 -66.6912 -66.6894 -66.6822 -66.6664 -66.6241
   -33.0884 -33.0770 -33.0764 -33.0707 -33.0632 -33.0451 -32.9612 -32.9598
   -32.9576 -32.9462 -32.9441 -32.9423 -32.9201 -32.9171 -32.8916 -32.8673
   -32.8253 -32.8191 -32.7833 -32.7812 -32.7796 -32.7774 -32.7587 -32.7493
   -32.7489 -32.7424 -32.7354 -32.7246 -32.7225 -32.7092 -32.7030 -32.6854
   -32.6832 -32.6690 -32.6603 -32.6489 -32.6320 -32.6147 -32.6140 -32.6072
   -32.5840 -32.5672 -32.5667 -32.5618 -32.5556 -32.5544 -32.5385 -32.5377
    11.9844  14.1144  14.9008  15.3562  15.5480  15.6021  15.7369  15.7603
    15.7891  15.8281  15.9603  15.9733  16.0049  16.2483  16.3691  16.8865
    16.9682  16.9960  17.2331  17.3055  17.3210  17.3357  17.3815  17.4374
    17.4704  17.4969  17.6003  17.6761  17.7790  17.8389  17.8436  18.1839
    18.3425  18.4401  18.4608  18.4816  18.5177  18.5610  18.5835  18.7766
    18.8193  18.9691  19.0064  19.1613  19.2148  19.2940  19.3147  19.3179
    19.4004  19.4991  19.5214  19.5718  19.6032  19.7337  19.7567  20.0811
    20.2128  20.2442  20.2794  20.3192  20.3439  20.3773  20.4145  20.4595
    20.6236  20.6381  20.6397  20.7024  20.7077  20.7287  20.7305  20.7434
    20.7953  20.9036  20.9222  20.9367  20.9477  20.9740  21.0265  21.1200
    21.2479  21.4579  21.5123  21.5937  21.7276  22.2287  22.2511  22.8140
    22.8990  23.0303

          k = 0.0556 0.2778 0.2774 ( 11341 PWs)   bands (ev):

   -66.7951 -66.7456 -66.7454 -66.7194 -66.7112 -66.7019 -66.7017 -66.6967
   -66.6951 -66.6949 -66.6945 -66.6915 -66.6833 -66.6681 -66.6678 -66.6288
   -33.0821 -33.0619 -33.0616 -33.0516 -33.0513 -33.0110 -32.9772 -32.9771
   -32.9739 -32.9730 -32.9638 -32.9609 -32.9383 -32.9086 -32.8667 -32.8265
   -32.8238 -32.8233 -32.8131 -32.8128 -32.7786 -32.7672 -32.7644 -32.7569
   -32.7561 -32.7434 -32.7428 -32.7346 -32.7339 -32.7287 -32.6894 -32.6616
   -32.6531 -32.6527 -32.6462 -32.6428 -32.6395 -32.6153 -32.6090 -32.5878
   -32.5874 -32.5746 -32.5744 -32.5664 -32.5662 -32.5662 -32.5354 -32.5345
    12.2455  14.2848  14.2892  15.1970  15.6714  15.8008  15.8016  15.9230
    15.9241  15.9499  16.0608  16.1055  16.1069  16.4056  16.4106  16.8234
    16.8839  17.0732  17.0740  17.2912  17.3645  17.3871  17.3953  17.4316
    17.4395  17.5037  17.5246  17.7029  17.7275  17.8264  17.8655  18.2365
    18.2367  18.3441  18.3629  18.3637  18.3775  18.3877  18.4409  18.5500
    18.7956  18.8013  18.8588  18.8652  19.0208  19.0693  19.0712  19.1481
    19.5843  19.5849  19.6435  19.6839  19.7301  19.7348  19.9479  20.0333
    20.0359  20.2025  20.2874  20.2941  20.3154  20.3343  20.3417  20.3997
    20.4365  20.5947  20.5963  20.6039  20.7021  20.7118  20.7464  20.7994
    20.8108  20.8126  20.8632  20.8834  20.8890  20.9961  20.9989  21.1758
    21.1769  21.2163  21.5645  21.7562  21.7704  22.4626  22.8793  22.8816
    23.4835  23.4872

          k = 0.0556 0.2778 0.3884 ( 11346 PWs)   bands (ev):

   -66.7859 -66.7606 -66.7405 -66.7271 -66.7092 -66.7043 -66.7002 -66.6965
   -66.6961 -66.6951 -66.6941 -66.6922 -66.6781 -66.6704 -66.6553 -66.6356
   -33.0662 -33.0406 -33.0404 -33.0345 -33.0261 -33.0117 -32.9938 -32.9877
   -32.9868 -32.9854 -32.9824 -32.9702 -32.9661 -32.8911 -32.8738 -32.8425
   -32.8388 -32.8150 -32.8040 -32.7791 -32.7771 -32.7762 -32.7759 -32.7717
   -32.7702 -32.7631 -32.7476 -32.7336 -32.7322 -32.7064 -32.6842 -32.6775
   -32.6592 -32.6382 -32.6335 -32.6255 -32.6235 -32.6188 -32.5988 -32.5868
   -32.5862 -32.5841 -32.5815 -32.5738 -32.5652 -32.5651 -32.5382 -32.5380
    12.6254  13.6728  14.5197  15.0024  15.7917  15.8451  16.0385  16.0753
    16.1137  16.1698  16.1754  16.1926  16.2911  16.3753  16.4171  16.6895
    16.6915  16.7820  17.2686  17.2772  17.3129  17.3283  17.3587  17.4979
    17.5128  17.5515  17.6357  17.6362  17.8896  17.9758  17.9855  18.0029
    18.1143  18.2110  18.2224  18.2822  18.2950  18.3217  18.4042  18.4298
    18.4450  18.5120  18.5166  18.5308  18.6622  18.7263  19.3474  19.3642
    19.7236  19.7393  19.7975  19.8316  19.8344  19.8411  19.8445  19.9404
    20.0453  20.0959  20.1640  20.2039  20.2267  20.3456  20.3654  20.3923
    20.4905  20.5099  20.5281  20.5329  20.6376  20.7082  20.7206  20.7302
    20.7505  20.8205  20.8286  20.8508  20.8577  20.9332  20.9530  21.0192
    21.3487  21.4079  21.5528  21.7083  22.0240  22.6074  22.7509  23.3042
    23.5571  24.1806

          k = 0.0556 0.2778-0.4994 ( 11360 PWs)   bands (ev):

   -66.7744 -66.7740 -66.7344 -66.7341 -66.7070 -66.7067 -66.6986 -66.6982
   -66.6957 -66.6953 -66.6933 -66.6929 -66.6740 -66.6736 -66.6447 -66.6443
   -33.0424 -33.0423 -33.0150 -33.0149 -33.0147 -33.0146 -33.0145 -33.0145
   -32.9967 -32.9966 -32.9869 -32.9869 -32.9235 -32.9235 -32.8691 -32.8688
   -32.8083 -32.8082 -32.7971 -32.7969 -32.7926 -32.7923 -32.7685 -32.7682
   -32.7610 -32.7607 -32.7336 -32.7333 -32.7299 -32.7299 -32.6711 -32.6710
   -32.6676 -32.6672 -32.6071 -32.6067 -32.6035 -32.6031 -32.6016 -32.6012
   -32.6009 -32.6008 -32.5849 -32.5848 -32.5485 -32.5484 -32.5483 -32.5483
    13.1085  13.1090  14.7696  14.7700  15.8531  15.8534  16.1380  16.1383
    16.2643  16.2646  16.3271  16.3275  16.3913  16.3917  16.4541  16.4545
    16.5188  16.5191  17.2799  17.2804  17.3062  17.3066  17.5748  17.5752
    17.5942  17.5947  17.6062  17.6065  17.7979  17.7979  18.1764  18.1768
    18.1993  18.1994  18.2090  18.2091  18.2415  18.2417  18.2428  18.2431
    18.4014  18.4015  18.4159  18.4160  18.4732  18.4736  19.5634  19.5636
    19.6930  19.6931  19.7569  19.7571  19.9273  19.9278  20.0128  20.0129
    20.0301  20.0302  20.0627  20.0628  20.2093  20.2095  20.4475  20.4477
    20.4604  20.4607  20.5924  20.5927  20.6373  20.6374  20.7217  20.7221
    20.7495  20.7498  20.7707  20.7710  20.8636  20.8638  20.9909  20.9910
    21.4776  21.4779  21.5900  21.5900  22.3151  22.3153  23.0459  23.0461
    24.2516  24.2520

          k = 0.0556 0.3889 0.0555 ( 11345 PWs)   bands (ev):

   -66.7947 -66.7672 -66.7115 -66.7112 -66.7063 -66.7060 -66.6971 -66.6969
   -66.6964 -66.6962 -66.6959 -66.6951 -66.6933 -66.6925 -66.6516 -66.6295
   -33.0578 -33.0566 -33.0565 -33.0561 -33.0365 -33.0362 -32.9872 -32.9849
   -32.9804 -32.9802 -32.9521 -32.9518 -32.9457 -32.9304 -32.9057 -32.8926
   -32.8533 -32.8402 -32.7942 -32.7821 -32.7584 -32.7521 -32.7462 -32.7452
   -32.7384 -32.7373 -32.7173 -32.7163 -32.7162 -32.7152 -32.6986 -32.6531
   -32.6489 -32.6415 -32.6413 -32.6172 -32.6147 -32.6125 -32.6122 -32.6084
   -32.5847 -32.5846 -32.5846 -32.5844 -32.5685 -32.5637 -32.5635 -32.5620
    12.2491  13.3592  15.5417  15.5428  15.5444  15.5465  15.7564  15.7574
    15.9340  15.9383  16.0154  16.0320  16.0485  16.1012  16.3094  16.6431
    16.6681  16.6760  17.1666  17.1838  17.2236  17.2323  17.6364  17.6465
    17.7305  17.7407  17.8093  17.8121  18.0078  18.0081  18.1811  18.1868
    18.2100  18.2310  18.2935  18.3023  18.5752  18.5764  18.5817  18.6094
    18.6226  18.6366  18.7522  18.7579  18.9496  19.0591  19.0631  19.2942
    19.4049  19.7266  19.7305  19.7541  19.7585  19.9739  19.9828  20.0779
    20.0856  20.0933  20.1765  20.1845  20.4827  20.4918  20.5765  20.6017
    20.6044  20.6692  20.6855  20.7019  20.7078  20.7200  20.7977  20.8052
    20.8187  20.8199  20.9450  21.0382  21.0390  21.2255  21.2298  21.3072
    21.4837  21.4851  21.5170  21.5275  21.5956  21.6000  22.1817  22.1955
    22.2988  22.3095

          k = 0.0556 0.3889 0.1665 ( 11330 PWs)   bands (ev):

   -66.7916 -66.7649 -66.7261 -66.7166 -66.7105 -66.7055 -66.6982 -66.6965
   -66.6957 -66.6947 -66.6943 -66.6921 -66.6867 -66.6831 -66.6528 -66.6315
   -33.0664 -33.0522 -33.0506 -33.0486 -33.0327 -33.0072 -33.0002 -32.9900
   -32.9839 -32.9822 -32.9630 -32.9564 -32.9549 -32.9161 -32.9019 -32.8686
   -32.8504 -32.8117 -32.8071 -32.7752 -32.7748 -32.7667 -32.7584 -32.7568
   -32.7484 -32.7478 -32.7318 -32.7237 -32.7232 -32.6962 -32.6864 -32.6728
   -32.6474 -32.6442 -32.6374 -32.6320 -32.6194 -32.6093 -32.6068 -32.5877
   -32.5864 -32.5850 -32.5847 -32.5841 -32.5723 -32.5670 -32.5483 -32.5480
    12.3766  13.4678  15.0575  15.2949  15.6355  15.6481  15.8548  15.9455
    16.0242  16.0348  16.0880  16.1096  16.1564  16.2140  16.3652  16.6752
    16.6779  16.6933  17.2024  17.2457  17.2607  17.2846  17.5520  17.5880
    17.6120  17.6600  17.6680  17.8161  17.8933  18.0296  18.0679  18.1294
    18.2389  18.2486  18.3090  18.3181  18.4439  18.4445  18.4895  18.5267
    18.5342  18.5658  18.6492  18.7830  18.8457  18.8464  19.1258  19.5100
    19.5454  19.7032  19.7044  19.7639  19.7670  19.7827  19.9510  20.0301
    20.0475  20.1123  20.1842  20.2200  20.3889  20.4384  20.4616  20.5426
    20.5780  20.5834  20.5906  20.6996  20.7055  20.7136  20.7153  20.7770
    20.7896  20.8251  20.8570  20.9853  20.9923  21.0792  21.1279  21.2279
    21.2353  21.2397  21.4338  21.6311  21.7126  22.0689  22.4100  22.7438
    23.0765  23.2277

          k = 0.0556 0.3889 0.2774 ( 11341 PWs)   bands (ev):

   -66.7858 -66.7605 -66.7406 -66.7271 -66.7092 -66.7043 -66.7003 -66.6965
   -66.6960 -66.6951 -66.6941 -66.6922 -66.6781 -66.6705 -66.6553 -66.6355
   -33.0661 -33.0408 -33.0401 -33.0349 -33.0258 -33.0115 -32.9938 -32.9875
   -32.9869 -32.9854 -32.9822 -32.9701 -32.9661 -32.8911 -32.8736 -32.8426
   -32.8389 -32.8148 -32.8040 -32.7790 -32.7773 -32.7766 -32.7755 -32.7714
   -32.7706 -32.7639 -32.7470 -32.7342 -32.7327 -32.7060 -32.6842 -32.6775
   -32.6592 -32.6380 -32.6335 -32.6254 -32.6234 -32.6188 -32.5989 -32.5864
   -32.5863 -32.5840 -32.5815 -32.5739 -32.5656 -32.5648 -32.5381 -32.5381
    12.6263  13.6761  14.5166  15.0017  15.7920  15.8449  16.0379  16.0767
    16.1133  16.1699  16.1772  16.1943  16.2909  16.3725  16.4214  16.6912
    16.6931  16.7821  17.2720  17.2761  17.3157  17.3349  17.3650  17.4977
    17.5058  17.5454  17.6350  17.6360  17.8853  17.9757  17.9816  18.0033
    18.1144  18.2098  18.2225  18.2801  18.2953  18.3214  18.4075  18.4284
    18.4493  18.5103  18.5114  18.5252  18.6615  18.7275  19.3463  19.3624
    19.7261  19.7410  19.7952  19.8344  19.8346  19.8426  19.8473  19.9361
    20.0445  20.0989  20.1698  20.2104  20.2284  20.3472  20.3601  20.3864
    20.4891  20.5082  20.5265  20.5309  20.6346  20.7075  20.7231  20.7293
    20.7491  20.8155  20.8284  20.8489  20.8586  20.9335  20.9536  21.0209
    21.3480  21.4089  21.5528  21.7087  22.0247  22.6093  22.7519  23.3071
    23.5553  24.1638

          k = 0.0556 0.3889 0.3884 ( 11337 PWs)   bands (ev):

   -66.7774 -66.7543 -66.7541 -66.7371 -66.7074 -66.7027 -66.7025 -66.6985
   -66.6954 -66.6944 -66.6942 -66.6927 -66.6705 -66.6593 -66.6590 -66.6416
   -33.0565 -33.0259 -33.0257 -33.0171 -33.0168 -33.0144 -33.0144 -32.9996
   -32.9986 -32.9968 -32.9958 -32.9804 -32.9258 -32.8754 -32.8310 -32.8307
   -32.8270 -32.8265 -32.8125 -32.8069 -32.7984 -32.7830 -32.7825 -32.7810
   -32.7668 -32.7470 -32.7465 -32.7407 -32.7402 -32.7397 -32.7298 -32.6698
   -32.6607 -32.6346 -32.6343 -32.6160 -32.6098 -32.6065 -32.5953 -32.5920
   -32.5904 -32.5903 -32.5847 -32.5846 -32.5484 -32.5483 -32.5348 -32.5346
    12.9873  13.9635  13.9657  14.6653  15.9663  16.1096  16.1103  16.2543
    16.2781  16.2793  16.2886  16.3087  16.4166  16.4189  16.4910  16.6071
    16.6644  16.9992  16.9999  17.3153  17.3321  17.3952  17.4143  17.4193
    17.4248  17.4288  17.5138  17.6365  17.7151  17.8284  17.9384  18.0166
    18.0168  18.1096  18.1681  18.1853  18.1989  18.2030  18.2330  18.2361
    18.3679  18.3683  18.3692  18.4543  18.4938  19.0099  19.0109  19.5847
    19.6835  19.7636  19.8252  19.8274  19.9448  19.9451  19.9648  19.9747
    20.0915  20.0929  20.1289  20.2135  20.2509  20.2549  20.2555  20.2690
    20.2735  20.4488  20.4523  20.4656  20.5546  20.6485  20.6511  20.6767
    20.7241  20.7545  20.7874  20.7881  20.8249  20.8804  20.8815  20.9052
    21.5339  21.5345  21.6128  21.7192  22.4003  23.1476  23.1861  23.1873
    23.9173  23.9192

          k = 0.0556 0.3889-0.4994 ( 11352 PWs)   bands (ev):

   -66.7669 -66.7665 -66.7464 -66.7460 -66.7052 -66.7049 -66.7008 -66.7004
   -66.6950 -66.6946 -66.6936 -66.6933 -66.6644 -66.6640 -66.6497 -66.6493
   -33.0389 -33.0389 -33.0103 -33.0101 -33.0100 -33.0099 -33.0098 -33.0098
   -33.0079 -33.0076 -32.9981 -32.9979 -32.8772 -32.8771 -32.8551 -32.8548
   -32.8161 -32.8157 -32.8010 -32.8009 -32.7850 -32.7849 -32.7781 -32.7781
   -32.7736 -32.7736 -32.7588 -32.7587 -32.7451 -32.7449 -32.7042 -32.7041
   -32.6464 -32.6460 -32.6132 -32.6128 -32.5992 -32.5989 -32.5985 -32.5983
   -32.5970 -32.5968 -32.5871 -32.5869 -32.5382 -32.5382 -32.5381 -32.5380
    13.4415  13.4420  14.3076  14.3080  16.0851  16.0854  16.3468  16.3470
    16.3591  16.3594  16.3746  16.3749  16.3922  16.3926  16.5174  16.5177
    16.7328  16.7332  17.2977  17.2982  17.3425  17.3426  17.3436  17.3439
    17.4100  17.4104  17.4678  17.4681  17.8442  17.8443  17.9692  17.9694
    18.0548  18.0550  18.0597  18.0600  18.0730  18.0732  18.1220  18.1221
    18.3852  18.3854  18.4065  18.4068  18.6732  18.6734  19.3328  19.3330
    19.7600  19.7603  19.8337  19.8338  20.0132  20.0134  20.0627  20.0631
    20.1160  20.1162  20.1176  20.1177  20.1210  20.1211  20.3533  20.3535
    20.3606  20.3608  20.3876  20.3879  20.5282  20.5285  20.5791  20.5795
    20.7485  20.7488  20.7997  20.8000  20.8121  20.8123  20.8931  20.8932
    21.6054  21.6055  21.6605  21.6606  22.7961  22.7963  23.5489  23.5491
    23.7790  23.7793

          k = 0.0556-0.5000 0.0555 ( 11346 PWs)   bands (ev):

   -66.7820 -66.7820 -66.7092 -66.7089 -66.7087 -66.7085 -66.6967 -66.6965
   -66.6963 -66.6960 -66.6949 -66.6949 -66.6938 -66.6938 -66.6395 -66.6395
   -33.0248 -33.0246 -33.0245 -33.0244 -33.0211 -33.0210 -33.0208 -33.0206
   -32.9966 -32.9965 -32.9963 -32.9961 -32.9405 -32.9403 -32.8817 -32.8816
   -32.8688 -32.8686 -32.7764 -32.7762 -32.7677 -32.7675 -32.7426 -32.7425
   -32.7415 -32.7413 -32.7166 -32.7166 -32.7157 -32.7155 -32.6545 -32.6543
   -32.6158 -32.6157 -32.6141 -32.6141 -32.6109 -32.6107 -32.6105 -32.6104
   -32.5907 -32.5906 -32.5855 -32.5852 -32.5851 -32.5851 -32.5830 -32.5829
    12.7584  12.7587  15.5666  15.5668  15.5697  15.5699  15.8673  15.8675
    15.8697  15.8699  16.1999  16.2000  16.3371  16.3373  16.3452  16.3455
    16.3468  16.3472  17.1876  17.1878  17.1970  17.1972  17.8527  17.8529
    17.8622  17.8623  17.9509  17.9511  17.9585  17.9587  18.1628  18.1629
    18.1651  18.1653  18.3223  18.3224  18.3267  18.3268  18.5868  18.5869
    18.6044  18.6045  18.6163  18.6164  18.6182  18.6182  19.1070  19.1073
    19.7150  19.7152  19.9141  19.9144  19.9201  19.9202  19.9888  19.9891
    19.9953  19.9954  20.3194  20.3195  20.4449  20.4451  20.5414  20.5415
    20.5468  20.5469  20.6804  20.6804  20.6937  20.6938  20.7085  20.7086
    21.0765  21.0766  21.0773  21.0775  21.1424  21.1425  21.2897  21.2897
    21.2899  21.2901  21.5409  21.5410  21.5492  21.5494  22.2684  22.2685
    22.2806  22.2808

          k = 0.0556-0.5000 0.1665 ( 11338 PWs)   bands (ev):

   -66.7794 -66.7793 -66.7217 -66.7216 -66.7081 -66.7080 -66.6966 -66.6965
   -66.6960 -66.6959 -66.6933 -66.6932 -66.6846 -66.6846 -66.6411 -66.6411
   -33.0362 -33.0362 -33.0213 -33.0211 -33.0208 -33.0206 -33.0182 -33.0180
   -32.9961 -32.9959 -32.9636 -32.9635 -32.9617 -32.9616 -32.8785 -32.8783
   -32.8419 -32.8418 -32.7872 -32.7871 -32.7674 -32.7672 -32.7628 -32.7626
   -32.7528 -32.7527 -32.7233 -32.7233 -32.6908 -32.6906 -32.6866 -32.6865
   -32.6393 -32.6392 -32.6132 -32.6132 -32.6090 -32.6090 -32.6064 -32.6062
   -32.5938 -32.5936 -32.5847 -32.5845 -32.5654 -32.5654 -32.5641 -32.5640
    12.8780  12.8783  15.1969  15.1971  15.6693  15.6695  15.9646  15.9648
    16.0994  16.0996  16.2599  16.2600  16.3595  16.3597  16.3880  16.3882
    16.3922  16.3926  17.2206  17.2208  17.2450  17.2452  17.7499  17.7501
    17.7712  17.7713  17.8039  17.8040  17.8633  17.8635  18.1876  18.1877
    18.2265  18.2267  18.2950  18.2951  18.4107  18.4109  18.4295  18.4297
    18.4299  18.4299  18.4710  18.4711  18.5504  18.5506  19.3068  19.3071
    19.7988  19.7990  19.8226  19.8229  19.9498  19.9499  19.9962  19.9962
    20.0293  20.0296  20.0385  20.0385  20.3753  20.3755  20.5080  20.5081
    20.5208  20.5208  20.6492  20.6493  20.6990  20.6992  20.7374  20.7376
    20.8473  20.8474  20.9510  20.9512  21.0573  21.0573  21.1390  21.1391
    21.3019  21.3020  21.4642  21.4642  21.8795  21.8797  22.5960  22.5963
    23.2137  23.2138

          k = 0.0556-0.5000 0.2774 ( 11352 PWs)   bands (ev):

   -66.7742 -66.7741 -66.7343 -66.7343 -66.7068 -66.7068 -66.6984 -66.6984
   -66.6955 -66.6954 -66.6932 -66.6931 -66.6739 -66.6739 -66.6445 -66.6444
   -33.0423 -33.0422 -33.0152 -33.0150 -33.0149 -33.0148 -33.0141 -33.0139
   -32.9963 -32.9961 -32.9869 -32.9868 -32.9233 -32.9233 -32.8690 -32.8688
   -32.8087 -32.8086 -32.7967 -32.7965 -32.7926 -32.7924 -32.7690 -32.7689
   -32.7606 -32.7605 -32.7340 -32.7340 -32.7300 -32.7300 -32.6709 -32.6708
   -32.6675 -32.6673 -32.6068 -32.6067 -32.6032 -32.6031 -32.6014 -32.6013
   -32.6010 -32.6008 -32.5849 -32.5848 -32.5487 -32.5487 -32.5481 -32.5480
    13.1107  13.1110  14.7679  14.7681  15.8534  15.8536  16.1380  16.1382
    16.2630  16.2633  16.3303  16.3306  16.3933  16.3936  16.4564  16.4566
    16.5185  16.5188  17.2850  17.2851  17.3108  17.3109  17.5727  17.5729
    17.5935  17.5936  17.6022  17.6023  17.7982  17.7984  18.1708  18.1709
    18.2005  18.2006  18.2082  18.2084  18.2377  18.2378  18.2419  18.2420
    18.4020  18.4021  18.4150  18.4152  18.4720  18.4722  19.5616  19.5618
    19.6917  19.6917  19.7577  19.7579  19.9303  19.9304  20.0174  20.0175
    20.0352  20.0353  20.0647  20.0649  20.2061  20.2063  20.4439  20.4440
    20.4564  20.4565  20.5926  20.5927  20.6367  20.6368  20.7208  20.7210
    20.7471  20.7471  20.7692  20.7694  20.8640  20.8642  20.9918  20.9920
    21.4774  21.4774  21.5906  21.5906  22.3164  22.3167  23.0479  23.0481
    24.2505  24.2508

          k = 0.0556-0.5000 0.3884 ( 11348 PWs)   bands (ev):

   -66.7667 -66.7667 -66.7463 -66.7462 -66.7051 -66.7050 -66.7007 -66.7006
   -66.6948 -66.6948 -66.6935 -66.6934 -66.6643 -66.6642 -66.6495 -66.6494
   -33.0389 -33.0388 -33.0103 -33.0101 -33.0100 -33.0099 -33.0098 -33.0097
   -33.0079 -33.0078 -32.9980 -32.9978 -32.8771 -32.8771 -32.8551 -32.8548
   -32.8161 -32.8158 -32.8007 -32.8006 -32.7853 -32.7853 -32.7782 -32.7782
   -32.7736 -32.7735 -32.7586 -32.7585 -32.7453 -32.7453 -32.7041 -32.7040
   -32.6463 -32.6461 -32.6131 -32.6129 -32.5991 -32.5990 -32.5983 -32.5983
   -32.5970 -32.5969 -32.5871 -32.5870 -32.5382 -32.5382 -32.5381 -32.5380
    13.4427  13.4430  14.3067  14.3069  16.0850  16.0852  16.3463  16.3465
    16.3583  16.3586  16.3759  16.3762  16.3932  16.3934  16.5186  16.5188
    16.7332  16.7333  17.2974  17.2976  17.3446  17.3448  17.3466  17.3467
    17.4091  17.4093  17.4657  17.4659  17.8443  17.8445  17.9661  17.9662
    18.0524  18.0526  18.0609  18.0611  18.0730  18.0732  18.1221  18.1223
    18.3851  18.3853  18.4061  18.4063  18.6737  18.6737  19.3324  19.3324
    19.7607  19.7610  19.8329  19.8331  20.0119  20.0122  20.0639  20.0639
    20.1168  20.1169  20.1199  20.1200  20.1235  20.1236  20.3514  20.3514
    20.3583  20.3584  20.3882  20.3883  20.5287  20.5288  20.5773  20.5775
    20.7482  20.7484  20.7992  20.7994  20.8123  20.8125  20.8935  20.8937
    21.6052  21.6052  21.6609  21.6609  22.7967  22.7970  23.5499  23.5501
    23.7784  23.7787

          k = 0.0556-0.5000-0.4994 ( 11364 PWs)   bands (ev):

   -66.7576 -66.7574 -66.7571 -66.7570 -66.7032 -66.7030 -66.7028 -66.7026
   -66.6943 -66.6941 -66.6939 -66.6937 -66.6564 -66.6562 -66.6560 -66.6558
   -33.0279 -33.0278 -33.0278 -33.0278 -33.0084 -33.0082 -33.0082 -33.0080
   -33.0019 -33.0017 -33.0017 -33.0015 -32.8377 -32.8372 -32.8370 -32.8370
   -32.8283 -32.8283 -32.8280 -32.8278 -32.7969 -32.7969 -32.7968 -32.7968
   -32.7538 -32.7537 -32.7537 -32.7537 -32.7391 -32.7390 -32.7387 -32.7386
   -32.6286 -32.6281 -32.6279 -32.6278 -32.5960 -32.5959 -32.5959 -32.5956
   -32.5919 -32.5919 -32.5918 -32.5916 -32.5347 -32.5347 -32.5346 -32.5346
    13.8516  13.8520  13.8522  13.8523  16.2920  16.2921  16.2922  16.2925
    16.3905  16.3909  16.3909  16.3911  16.4995  16.4996  16.4997  16.5000
    17.0019  17.0022  17.0025  17.0026  17.3374  17.3374  17.3376  17.3377
    17.3850  17.3850  17.3851  17.3853  17.9377  17.9379  17.9380  17.9380
    17.9452  17.9452  17.9453  17.9456  18.0334  18.0334  18.0336  18.0337
    18.3749  18.3750  18.3751  18.3756  18.9872  18.9873  18.9875  18.9877
    19.8497  19.8497  19.8498  19.8503  20.1050  20.1053  20.1055  20.1056
    20.1441  20.1443  20.1444  20.1444  20.2383  20.2384  20.2384  20.2385
    20.2403  20.2404  20.2405  20.2406  20.5057  20.5058  20.5060  20.5063
    20.7772  20.7776  20.7778  20.7778  20.8351  20.8354  20.8356  20.8356
    21.6670  21.6670  21.6672  21.6672  23.2901  23.2905  23.2905  23.2907
    24.0598  24.0601

          k = 0.1667 0.1667 0.0555 ( 11336 PWs)   bands (ev):

   -66.8080 -66.7322 -66.7319 -66.7142 -66.7061 -66.7008 -66.7005 -66.6977
   -66.6964 -66.6961 -66.6926 -66.6917 -66.6906 -66.6816 -66.6813 -66.6193
   -33.1004 -33.0941 -33.0941 -33.0860 -33.0859 -33.0740 -32.9530 -32.9338
   -32.9276 -32.9221 -32.9219 -32.9146 -32.9111 -32.9074 -32.8826 -32.8368
   -32.8217 -32.8212 -32.7872 -32.7865 -32.7862 -32.7562 -32.7454 -32.7450
   -32.7401 -32.7364 -32.7361 -32.7254 -32.7250 -32.7227 -32.7196 -32.7118
   -32.7011 -32.6881 -32.6820 -32.6816 -32.6571 -32.6443 -32.6442 -32.5766
   -32.5636 -32.5543 -32.5543 -32.5464 -32.5464 -32.5446 -32.5357 -32.5336
    11.7162  14.7737  14.7738  15.4043  15.4423  15.5631  15.5632  15.6394
    15.6394  15.6505  15.8424  15.8500  15.9313  16.2188  16.2188  17.0050
    17.1181  17.2948  17.3432  17.3432  17.3433  17.3433  17.3760  17.3804
    17.3804  17.4131  17.5003  17.6136  17.6382  17.6534  17.9329  18.3171
    18.3174  18.5328  18.5951  18.5951  18.6078  18.6509  18.7952  18.8342
    19.1328  19.1332  19.2075  19.2075  19.2548  19.3141  19.4169  19.5121
    19.5121  19.5253  19.5255  19.7122  19.7122  19.8731  19.9693  19.9697
    20.2130  20.3276  20.3329  20.3329  20.3907  20.3908  20.3921  20.4135
    20.4277  20.5996  20.6496  20.6831  20.6832  20.6956  20.6956  20.7030
    20.7041  20.8082  20.8085  21.0276  21.1353  21.1356  21.1575  21.1575
    21.2669  21.5132  21.5296  21.6615  21.7347  22.0741  22.4101  22.4103
    22.6085  22.7646

          k = 0.1667 0.1667 0.1665 ( 11332 PWs)   bands (ev):

   -66.8046 -66.7311 -66.7310 -66.7306 -66.7056 -66.7055 -66.7052 -66.6934
   -66.6926 -66.6925 -66.6921 -66.6899 -66.6819 -66.6818 -66.6815 -66.6216
   -33.0920 -33.0919 -33.0916 -33.0680 -33.0680 -33.0676 -32.9483 -32.9473
   -32.9462 -32.9393 -32.9393 -32.9392 -32.8917 -32.8859 -32.8858 -32.8447
   -32.8443 -32.8442 -32.7931 -32.7930 -32.7925 -32.7489 -32.7481 -32.7478
   -32.7388 -32.7386 -32.7208 -32.7206 -32.7203 -32.7162 -32.7154 -32.7151
   -32.6841 -32.6841 -32.6838 -32.6756 -32.6283 -32.6283 -32.6279 -32.5978
   -32.5674 -32.5671 -32.5671 -32.5437 -32.5434 -32.5434 -32.5398 -32.5395
    11.8508  14.8470  14.8530  14.8531  15.5110  15.5110  15.5111  15.7460
    15.7467  15.7468  15.9070  15.9103  16.2653  16.2718  16.2719  16.9224
    17.2244  17.2246  17.3168  17.3180  17.3181  17.3558  17.3657  17.3657
    17.4656  17.4754  17.4754  17.5008  17.5769  17.5824  18.1641  18.1652
    18.1654  18.5193  18.5194  18.5205  18.5234  18.5264  18.9513  18.9515
    18.9516  18.9552  19.1417  19.1418  19.1479  19.3200  19.3201  19.3202
    19.5413  19.5414  19.5497  19.5996  19.5996  19.6048  20.1694  20.1698
    20.1722  20.2411  20.2411  20.2488  20.3535  20.3615  20.3927  20.3928
    20.4011  20.6489  20.6491  20.6526  20.6788  20.6812  20.6831  20.6860
    20.7521  20.8024  20.8024  20.8027  21.1458  21.1544  21.1544  21.3637
    21.3639  21.3682  21.3898  21.3923  22.1115  22.1117  22.1133  22.8607
    22.8790  22.8790

          k = 0.1667 0.1667 0.2774 ( 11354 PWs)   bands (ev):

   -66.7982 -66.7473 -66.7285 -66.7282 -66.7108 -66.7105 -66.7041 -66.6955
   -66.6918 -66.6898 -66.6893 -66.6890 -66.6824 -66.6821 -66.6673 -66.6264
   -33.0799 -33.0799 -33.0740 -33.0552 -33.0408 -33.0407 -32.9705 -32.9676
   -32.9675 -32.9589 -32.9567 -32.9334 -32.9329 -32.8811 -32.8809 -32.8685
   -32.8628 -32.8279 -32.8013 -32.7941 -32.7940 -32.7650 -32.7598 -32.7595
   -32.7528 -32.7469 -32.7239 -32.7072 -32.7068 -32.6932 -32.6903 -32.6902
   -32.6868 -32.6867 -32.6501 -32.6500 -32.6295 -32.6062 -32.6061 -32.6012
   -32.5844 -32.5843 -32.5750 -32.5600 -32.5515 -32.5462 -32.5462 -32.5404
    12.1159  14.2056  14.9934  14.9935  15.4673  15.4674  15.7169  15.8838
    15.8838  15.9276  16.0257  16.0292  16.3281  16.3282  16.4249  16.8404
    16.9961  17.0601  17.1959  17.3192  17.3291  17.3292  17.4067  17.4307
    17.4451  17.4451  17.6103  17.6213  17.6214  17.8018  18.0219  18.0221
    18.3088  18.3394  18.3394  18.4275  18.4464  18.4977  18.6947  18.6948
    18.7070  18.7071  18.9422  19.0784  19.0785  19.1021  19.1069  19.1527
    19.4416  19.5436  19.5437  19.6889  19.6889  19.8575  19.9398  20.1307
    20.1307  20.2364  20.3137  20.3339  20.3339  20.4196  20.4209  20.4250
    20.4416  20.4419  20.6342  20.6360  20.6581  20.6814  20.6965  20.6974
    20.6974  20.9118  20.9708  20.9708  20.9987  21.0733  21.1461  21.1574
    21.1574  21.4360  21.4462  21.4463  21.8478  21.8479  22.7413  23.0774
    23.0774  23.5056

          k = 0.1667 0.1667 0.3884 ( 11362 PWs)   bands (ev):

   -66.7888 -66.7628 -66.7250 -66.7248 -66.7158 -66.7156 -66.7023 -66.6978
   -66.6912 -66.6900 -66.6868 -66.6865 -66.6833 -66.6831 -66.6541 -66.6336
   -33.0594 -33.0594 -33.0484 -33.0379 -33.0061 -33.0061 -33.0001 -33.0000
   -32.9937 -32.9768 -32.9667 -32.9661 -32.9234 -32.9233 -32.9140 -32.8605
   -32.8430 -32.8374 -32.7898 -32.7895 -32.7870 -32.7842 -32.7716 -32.7713
   -32.7559 -32.7474 -32.7333 -32.7001 -32.6998 -32.6901 -32.6898 -32.6676
   -32.6598 -32.6597 -32.6513 -32.6256 -32.6191 -32.6059 -32.6059 -32.5875
   -32.5848 -32.5847 -32.5840 -32.5783 -32.5692 -32.5539 -32.5538 -32.5472
    12.5023  13.5738  15.1591  15.1591  15.4074  15.4074  16.0057  16.0407
    16.0408  16.1746  16.1770  16.2035  16.3079  16.3080  16.4291  16.6930
    16.6956  16.7218  17.2016  17.2744  17.3157  17.3410  17.4673  17.4674
    17.5757  17.5757  17.7857  17.7858  17.8902  17.9030  17.9031  18.0661
    18.2137  18.2138  18.2943  18.2944  18.3731  18.3864  18.3885  18.4214
    18.4215  18.4678  18.6193  18.6195  18.6530  18.6661  19.2865  19.4087
    19.6409  19.7075  19.7878  19.7878  19.7940  19.7940  20.0130  20.0131
    20.0668  20.0686  20.1600  20.2102  20.2102  20.3961  20.4636  20.5137
    20.5667  20.5807  20.6648  20.6777  20.6807  20.6809  20.7234  20.7497
    20.7688  20.7688  20.8325  20.8857  21.1521  21.1522  21.1752  21.2009
    21.2009  21.4077  21.4172  21.4173  21.5911  21.5912  23.3096  23.3096
    23.4336  23.6041

          k = 0.1667 0.1667-0.4994 ( 11348 PWs)   bands (ev):

   -66.7770 -66.7766 -66.7211 -66.7206 -66.7203 -66.7203 -66.7003 -66.6999
   -66.6907 -66.6903 -66.6852 -66.6846 -66.6844 -66.6844 -66.6430 -66.6426
   -33.0320 -33.0319 -33.0319 -33.0318 -33.0170 -33.0167 -33.0157 -33.0154
   -32.9693 -32.9692 -32.9663 -32.9662 -32.9660 -32.9659 -32.8896 -32.8892
   -32.8147 -32.8146 -32.8118 -32.8116 -32.7818 -32.7816 -32.7816 -32.7813
   -32.7421 -32.7418 -32.7107 -32.7107 -32.6946 -32.6942 -32.6942 -32.6939
   -32.6314 -32.6313 -32.6310 -32.6309 -32.6147 -32.6143 -32.6045 -32.6042
   -32.5922 -32.5918 -32.5670 -32.5669 -32.5669 -32.5668 -32.5601 -32.5599
    12.9953  12.9957  15.3061  15.3062  15.3065  15.3066  16.1957  16.1958
    16.1960  16.1960  16.3273  16.3278  16.3525  16.3529  16.4279  16.4282
    16.4501  16.4505  17.2313  17.2320  17.2965  17.2970  17.7252  17.7255
    17.7258  17.7259  17.7419  17.7421  17.7423  17.7423  18.1929  18.1930
    18.1932  18.1932  18.2431  18.2434  18.3067  18.3069  18.3069  18.3070
    18.3616  18.3618  18.3618  18.3622  18.4321  18.4326  19.4874  19.4876
    19.7201  19.7202  19.8625  19.8630  19.8966  19.8967  19.8968  19.8969
    20.0247  20.0248  20.0248  20.0249  20.4842  20.4844  20.4930  20.4932
    20.5202  20.5205  20.6215  20.6218  20.6718  20.6722  20.7792  20.7794
    20.7870  20.7871  20.7872  20.7874  21.3103  21.3104  21.3104  21.3105
    21.3163  21.3166  21.3530  21.3532  21.3533  21.3533  23.5115  23.5115
    23.5117  23.5117

          k = 0.1667 0.2778 0.0555 ( 11358 PWs)   bands (ev):

   -66.8014 -66.7490 -66.7296 -66.7128 -66.7113 -66.7030 -66.6996 -66.6973
   -66.6959 -66.6954 -66.6931 -66.6912 -66.6892 -66.6821 -66.6663 -66.6242
   -33.0880 -33.0770 -33.0767 -33.0707 -33.0635 -33.0448 -32.9610 -32.9592
   -32.9576 -32.9463 -32.9441 -32.9420 -32.9215 -32.9171 -32.8912 -32.8672
   -32.8254 -32.8201 -32.7834 -32.7823 -32.7790 -32.7772 -32.7580 -32.7501
   -32.7491 -32.7415 -32.7354 -32.7236 -32.7219 -32.7093 -32.7040 -32.6853
   -32.6840 -32.6689 -32.6600 -32.6495 -32.6318 -32.6143 -32.6141 -32.6070
   -32.5842 -32.5670 -32.5666 -32.5617 -32.5560 -32.5541 -32.5389 -32.5375
    11.9848  14.1147  14.9067  15.3573  15.5423  15.6020  15.7371  15.7603
    15.7890  15.8281  15.9579  15.9761  15.9994  16.2541  16.3692  16.8878
    16.9702  16.9963  17.2327  17.3057  17.3214  17.3359  17.3835  17.4473
    17.4602  17.5066  17.5991  17.6658  17.7778  17.8380  17.8423  18.1847
    18.3362  18.4454  18.4585  18.4761  18.5174  18.5663  18.5907  18.7821
    18.8109  18.9666  19.0004  19.1547  19.2149  19.2941  19.3214  19.3221
    19.3963  19.5026  19.5209  19.5729  19.6037  19.7329  19.7601  20.0889
    20.2155  20.2364  20.2763  20.3113  20.3527  20.3776  20.4153  20.4577
    20.6232  20.6404  20.6420  20.6987  20.7040  20.7274  20.7281  20.7479
    20.7942  20.9019  20.9224  20.9367  20.9416  20.9729  21.0258  21.1287
    21.2425  21.4582  21.5130  21.5840  21.7292  22.2157  22.2483  22.8077
    22.9178  23.0422

          k = 0.1667 0.2778 0.1665 ( 11356 PWs)   bands (ev):

   -66.7982 -66.7472 -66.7286 -66.7283 -66.7107 -66.7105 -66.7042 -66.6955
   -66.6919 -66.6899 -66.6893 -66.6890 -66.6825 -66.6822 -66.6671 -66.6264
   -33.0798 -33.0794 -33.0743 -33.0557 -33.0407 -33.0404 -32.9704 -32.9676
   -32.9672 -32.9582 -32.9565 -32.9339 -32.9333 -32.8808 -32.8807 -32.8685
   -32.8627 -32.8285 -32.8013 -32.7946 -32.7939 -32.7642 -32.7608 -32.7596
   -32.7531 -32.7468 -32.7233 -32.7079 -32.7070 -32.6929 -32.6901 -32.6898
   -32.6872 -32.6867 -32.6503 -32.6500 -32.6295 -32.6061 -32.6057 -32.6016
   -32.5846 -32.5843 -32.5747 -32.5598 -32.5518 -32.5464 -32.5461 -32.5404
    12.1165  14.2107  14.9886  14.9940  15.4671  15.4678  15.7175  15.8831
    15.8836  15.9290  16.0264  16.0295  16.3231  16.3284  16.4312  16.8421
    16.9966  17.0639  17.1981  17.3280  17.3283  17.3296  17.4151  17.4346
    17.4357  17.4453  17.6050  17.6123  17.6218  17.7967  18.0208  18.0210
    18.3093  18.3374  18.3419  18.4236  18.4428  18.5014  18.6913  18.6963
    18.7067  18.7123  18.9359  19.0782  19.0853  19.0944  19.1053  19.1490
    19.4440  19.5452  19.5472  19.6915  19.6940  19.8519  19.9368  20.1305
    20.1372  20.2421  20.3072  20.3351  20.3425  20.4121  20.4198  20.4204
    20.4416  20.4424  20.6357  20.6371  20.6544  20.6783  20.6928  20.6942
    20.6993  20.9175  20.9698  20.9711  20.9989  21.0686  21.1431  21.1503
    21.1576  21.4378  21.4454  21.4493  21.8483  21.8491  22.7394  23.0619
    23.0785  23.5046

          k = 0.1667 0.2778 0.2774 ( 11356 PWs)   bands (ev):

   -66.7920 -66.7440 -66.7437 -66.7260 -66.7183 -66.7091 -66.7089 -66.6982
   -66.6891 -66.6889 -66.6887 -66.6834 -66.6827 -66.6688 -66.6685 -66.6309
   -33.0734 -33.0633 -33.0629 -33.0326 -33.0323 -33.0093 -32.9829 -32.9808
   -32.9807 -32.9806 -32.9661 -32.9429 -32.9300 -32.9054 -32.8741 -32.8421
   -32.8393 -32.8389 -32.8288 -32.8285 -32.8052 -32.7800 -32.7792 -32.7779
   -32.7317 -32.7214 -32.7209 -32.7140 -32.7133 -32.6919 -32.6913 -32.6761
   -32.6657 -32.6634 -32.6536 -32.6534 -32.6313 -32.6057 -32.5941 -32.5867
   -32.5865 -32.5834 -32.5831 -32.5612 -32.5610 -32.5590 -32.5431 -32.5406
    12.3753  14.3860  14.3902  15.1506  15.3132  15.6810  15.6812  16.0430
    16.0610  16.0623  16.1304  16.1567  16.4330  16.4916  16.4966  16.8122
    16.9974  17.0500  17.0501  17.2564  17.2769  17.3919  17.4002  17.4756
    17.4864  17.4996  17.5222  17.5296  17.7777  17.7864  17.8651  18.1332
    18.1346  18.2319  18.2782  18.2816  18.3418  18.3547  18.4407  18.5079
    18.5691  18.5742  18.7185  18.7252  18.7899  18.8529  18.8547  19.2938
    19.6468  19.6476  19.6823  19.8071  19.8799  19.8850  20.0229  20.0650
    20.2178  20.2234  20.2247  20.2264  20.2418  20.3167  20.3543  20.3620
    20.3964  20.6029  20.6053  20.6066  20.6353  20.6668  20.6752  20.6766
    20.6929  20.8776  20.8825  20.9940  21.0226  21.1392  21.1401  21.1582
    21.1616  21.2521  21.4274  21.5276  21.5314  22.3969  22.3982  23.3495
    24.1113  24.1310

          k = 0.1667 0.2778 0.3884 ( 11353 PWs)   bands (ev):

   -66.7831 -66.7585 -66.7389 -66.7259 -66.7226 -66.7139 -66.7067 -66.7012
   -66.6888 -66.6884 -66.6866 -66.6836 -66.6784 -66.6710 -66.6565 -66.6374
   -33.0583 -33.0456 -33.0391 -33.0213 -33.0087 -33.0036 -33.0006 -32.9956
   -32.9861 -32.9771 -32.9749 -32.9712 -32.9366 -32.9131 -32.8832 -32.8607
   -32.8573 -32.8220 -32.8136 -32.8079 -32.8050 -32.7952 -32.7939 -32.7928
   -32.7522 -32.7300 -32.7210 -32.7055 -32.7038 -32.6953 -32.6891 -32.6787
   -32.6593 -32.6431 -32.6416 -32.6305 -32.6233 -32.6147 -32.6015 -32.5919
   -32.5827 -32.5822 -32.5753 -32.5664 -32.5651 -32.5646 -32.5455 -32.5432
    12.7514  13.7850  14.6272  15.1200  15.3391  15.6217  15.9807  16.2079
    16.2179  16.2688  16.2986  16.3324  16.4645  16.4728  16.5083  16.7110
    16.7366  16.7836  17.2389  17.2568  17.3379  17.3384  17.3828  17.4244
    17.5127  17.6059  17.6265  17.6732  17.7499  17.8926  17.9358  17.9421
    18.0553  18.1138  18.1745  18.2100  18.2334  18.2650  18.2933  18.3077
    18.3400  18.3510  18.3802  18.3918  18.4760  18.5546  19.0739  19.5067
    19.7023  19.8015  19.8699  19.8721  19.8758  19.9177  19.9372  19.9841
    20.1204  20.1354  20.1393  20.2313  20.2351  20.3297  20.4103  20.4634
    20.5174  20.5350  20.5428  20.6252  20.6664  20.6694  20.7031  20.7227
    20.7293  20.7405  20.7476  20.8499  20.9472  21.0516  21.1677  21.2300
    21.2837  21.3024  21.4334  21.4610  21.5230  22.0715  23.0081  23.6659
    24.1598  24.2818

          k = 0.1667 0.2778-0.4994 ( 11356 PWs)   bands (ev):

   -66.7719 -66.7716 -66.7330 -66.7327 -66.7187 -66.7183 -66.7042 -66.7039
   -66.6886 -66.6883 -66.6850 -66.6846 -66.6744 -66.6741 -66.6462 -66.6458
   -33.0360 -33.0359 -33.0236 -33.0235 -33.0092 -33.0089 -33.0088 -33.0085
   -32.9845 -32.9844 -32.9704 -32.9703 -32.9283 -32.9282 -32.8895 -32.8892
   -32.8321 -32.8319 -32.8105 -32.8102 -32.8032 -32.8030 -32.7832 -32.7831
   -32.7483 -32.7483 -32.7271 -32.7269 -32.6998 -32.6996 -32.6682 -32.6678
   -32.6586 -32.6586 -32.6199 -32.6198 -32.6107 -32.6103 -32.6014 -32.6011
   -32.5972 -32.5968 -32.5722 -32.5722 -32.5534 -32.5533 -32.5513 -32.5512
    13.2289  13.2293  14.8836  14.8840  15.5085  15.5089  16.3391  16.3396
    16.3610  16.3612  16.3706  16.3708  16.4132  16.4136  16.5423  16.5426
    16.5500  16.5503  17.2873  17.2879  17.3590  17.3594  17.5339  17.5343
    17.5492  17.5497  17.6409  17.6411  17.7575  17.7576  17.9795  17.9799
    18.1277  18.1280  18.1541  18.1541  18.1559  18.1562  18.2044  18.2046
    18.2709  18.2711  18.2743  18.2743  18.3408  18.3412  19.3625  19.3626
    19.7372  19.7374  19.8877  19.8878  19.9771  19.9776  20.0205  20.0206
    20.0671  20.0672  20.0737  20.0738  20.4370  20.4372  20.4385  20.4387
    20.4744  20.4746  20.5711  20.5714  20.6597  20.6600  20.6670  20.6674
    20.7548  20.7551  20.8087  20.8089  20.9546  20.9548  21.1211  21.1212
    21.3859  21.3861  21.4398  21.4399  21.7530  21.7533  23.6407  23.6411
    23.9614  23.9616

          k = 0.1667 0.3889 0.0555 ( 11333 PWs)   bands (ev):

   -66.7916 -66.7649 -66.7260 -66.7165 -66.7107 -66.7056 -66.6982 -66.6967
   -66.6958 -66.6947 -66.6944 -66.6921 -66.6865 -66.6830 -66.6528 -66.6315
   -33.0659 -33.0522 -33.0509 -33.0486 -33.0330 -33.0069 -32.9999 -32.9900
   -32.9839 -32.9824 -32.9624 -32.9565 -32.9545 -32.9160 -32.9031 -32.8680
   -32.8515 -32.8111 -32.8071 -32.7762 -32.7750 -32.7667 -32.7595 -32.7560
   -32.7484 -32.7468 -32.7316 -32.7229 -32.7224 -32.6973 -32.6872 -32.6729
   -32.6473 -32.6440 -32.6373 -32.6318 -32.6200 -32.6094 -32.6066 -32.5874
   -32.5865 -32.5850 -32.5844 -32.5841 -32.5728 -32.5668 -32.5483 -32.5480
    12.3770  13.4681  15.0625  15.2972  15.6313  15.6469  15.8543  15.9462
    16.0205  16.0349  16.0881  16.1083  16.1581  16.2176  16.3651  16.6758
    16.6786  16.6942  17.2023  17.2458  17.2609  17.2848  17.5551  17.5972
    17.6021  17.6673  17.6690  17.8174  17.8835  18.0217  18.0675  18.1289
    18.2414  18.2520  18.3140  18.3233  18.4374  18.4379  18.4806  18.5216
    18.5405  18.5729  18.6436  18.7890  18.8456  18.8464  19.1239  19.5086
    19.5478  19.7000  19.7074  19.7621  19.7644  19.7876  19.9578  20.0316
    20.0498  20.1061  20.1779  20.2274  20.3871  20.4394  20.4631  20.5421
    20.5797  20.5854  20.5888  20.6962  20.7025  20.7122  20.7139  20.7770
    20.7872  20.8218  20.8627  20.9824  20.9859  21.0869  21.1282  21.2276
    21.2304  21.2394  21.4344  21.6321  21.7056  22.0657  22.3992  22.7363
    23.0937  23.2417

          k = 0.1667 0.3889 0.1665 ( 11359 PWs)   bands (ev):

   -66.7887 -66.7627 -66.7251 -66.7248 -66.7158 -66.7155 -66.7024 -66.6978
   -66.6912 -66.6900 -66.6868 -66.6865 -66.6834 -66.6831 -66.6540 -66.6335
   -33.0593 -33.0589 -33.0487 -33.0382 -33.0058 -33.0056 -32.9998 -32.9996
   -32.9938 -32.9770 -32.9660 -32.9658 -32.9231 -32.9230 -32.9148 -32.8611
   -32.8431 -32.8372 -32.7905 -32.7896 -32.7862 -32.7843 -32.7726 -32.7715
   -32.7560 -32.7473 -32.7328 -32.7007 -32.6999 -32.6907 -32.6900 -32.6676
   -32.6596 -32.6594 -32.6511 -32.6255 -32.6193 -32.6060 -32.6058 -32.5872
   -32.5847 -32.5844 -32.5838 -32.5785 -32.5694 -32.5539 -32.5536 -32.5473
    12.5039  13.5777  15.1557  15.1601  15.4066  15.4084  16.0073  16.0402
    16.0403  16.1768  16.1811  16.2019  16.3049  16.3081  16.4348  16.6953
    16.6959  16.7253  17.2055  17.2818  17.3198  17.3479  17.4667  17.4685
    17.5669  17.5761  17.7788  17.7870  17.8839  17.8983  17.9026  18.0602
    18.2140  18.2146  18.2927  18.2972  18.3691  18.3853  18.3877  18.4161
    18.4217  18.4706  18.6186  18.6243  18.6457  18.6597  19.2839  19.4054
    19.6450  19.7042  19.7912  19.7917  19.7962  19.7995  20.0134  20.0187
    20.0647  20.0742  20.1546  20.2124  20.2184  20.3915  20.4576  20.5110
    20.5660  20.5791  20.6613  20.6745  20.6781  20.6806  20.7193  20.7522
    20.7632  20.7695  20.8284  20.8811  21.1506  21.1529  21.1758  21.1974
    21.2015  21.4093  21.4159  21.4194  21.5922  21.5924  23.2971  23.3121
    23.4319  23.5989

          k = 0.1667 0.3889 0.2774 ( 11356 PWs)   bands (ev):

   -66.7831 -66.7584 -66.7390 -66.7259 -66.7226 -66.7138 -66.7068 -66.7012
   -66.6887 -66.6886 -66.6865 -66.6836 -66.6784 -66.6710 -66.6564 -66.6374
   -33.0581 -33.0452 -33.0395 -33.0215 -33.0087 -33.0031 -33.0004 -32.9957
   -32.9861 -32.9769 -32.9749 -32.9712 -32.9364 -32.9134 -32.8830 -32.8610
   -32.8570 -32.8219 -32.8137 -32.8084 -32.8044 -32.7952 -32.7941 -32.7936
   -32.7526 -32.7299 -32.7205 -32.7061 -32.7037 -32.6957 -32.6889 -32.6789
   -32.6593 -32.6429 -32.6416 -32.6304 -32.6233 -32.6146 -32.6016 -32.5918
   -32.5826 -32.5822 -32.5753 -32.5661 -32.5651 -32.5649 -32.5455 -32.5433
    12.7524  13.7882  14.6242  15.1194  15.3396  15.6221  15.9817  16.2075
    16.2169  16.2703  16.3006  16.3322  16.4643  16.4700  16.5128  16.7129
    16.7383  16.7832  17.2384  17.2605  17.3386  17.3453  17.3856  17.4300
    17.5052  17.6060  17.6218  17.6682  17.7474  17.8945  17.9320  17.9416
    18.0533  18.1142  18.1752  18.2114  18.2357  18.2646  18.2905  18.3053
    18.3336  18.3560  18.3751  18.3918  18.4757  18.5551  19.0720  19.5056
    19.7013  19.8041  19.8705  19.8748  19.8790  19.9195  19.9375  19.9819
    20.1249  20.1346  20.1387  20.2330  20.2418  20.3256  20.4040  20.4617
    20.5166  20.5342  20.5410  20.6214  20.6656  20.6683  20.7054  20.7233
    20.7276  20.7404  20.7454  20.8471  20.9440  21.0522  21.1701  21.2308
    21.2846  21.3013  21.4343  21.4614  21.5226  22.0725  23.0070  23.6672
    24.1642  24.2813

          k = 0.1667 0.3889 0.3884 ( 11361 PWs)   bands (ev):

   -66.7748 -66.7524 -66.7521 -66.7356 -66.7195 -66.7114 -66.7112 -66.7048
   -66.6876 -66.6868 -66.6865 -66.6841 -66.6711 -66.6603 -66.6600 -66.6432
   -33.0484 -33.0267 -33.0264 -33.0096 -33.0096 -33.0045 -33.0007 -33.0006
   -32.9970 -32.9913 -32.9849 -32.9554 -32.9300 -32.8998 -32.8581 -32.8523
   -32.8520 -32.8386 -32.8382 -32.8211 -32.8189 -32.8184 -32.8175 -32.7824
   -32.7465 -32.7226 -32.7199 -32.7195 -32.7124 -32.7120 -32.7009 -32.6600
   -32.6580 -32.6319 -32.6316 -32.6242 -32.6241 -32.6059 -32.5993 -32.5992
   -32.5890 -32.5815 -32.5814 -32.5805 -32.5527 -32.5524 -32.5424 -32.5411
    13.1112  14.0787  14.0808  14.7850  15.5646  15.9174  15.9177  16.3494
    16.3682  16.4465  16.4481  16.5130  16.5153  16.5283  16.5569  16.6023
    16.7608  16.9982  16.9985  17.2632  17.3237  17.3707  17.4318  17.4377
    17.4633  17.4660  17.6116  17.6219  17.6280  17.6856  17.8961  17.9776
    17.9780  17.9873  18.0523  18.0571  18.1234  18.1257  18.1385  18.1742
    18.1986  18.2316  18.2331  18.3216  18.3285  18.7471  18.7480  19.3407
    19.7527  19.9116  19.9795  19.9804  20.0058  20.0400  20.0427  20.0486
    20.1663  20.2280  20.2482  20.2511  20.2847  20.2857  20.2979  20.3025
    20.4441  20.4699  20.4711  20.5247  20.5539  20.6417  20.6435  20.6723
    20.6996  20.7000  20.7494  20.7587  20.9121  20.9669  20.9689  20.9897
    21.4133  21.4139  21.4750  21.5527  21.8153  22.6024  22.6031  23.7125
    24.0776  24.7972

          k = 0.1667 0.3889-0.4994 ( 11360 PWs)   bands (ev):

   -66.7646 -66.7643 -66.7447 -66.7444 -66.7158 -66.7155 -66.7083 -66.7080
   -66.6871 -66.6867 -66.6854 -66.6850 -66.6652 -66.6649 -66.6509 -66.6506
   -33.0316 -33.0315 -33.0140 -33.0139 -33.0047 -33.0044 -33.0031 -33.0031
   -32.9984 -32.9981 -32.9778 -32.9777 -32.8849 -32.8848 -32.8785 -32.8782
   -32.8425 -32.8424 -32.8372 -32.8369 -32.8249 -32.8247 -32.7923 -32.7923
   -32.7506 -32.7506 -32.7178 -32.7177 -32.7060 -32.7058 -32.6881 -32.6880
   -32.6446 -32.6443 -32.6100 -32.6098 -32.6084 -32.6080 -32.6021 -32.6017
   -32.6006 -32.6004 -32.5805 -32.5803 -32.5449 -32.5449 -32.5442 -32.5442
    13.5620  13.5624  14.4257  14.4262  15.7763  15.7766  16.2549  16.2554
    16.4552  16.4554  16.4627  16.4630  16.5820  16.5822  16.6640  16.6643
    16.7569  16.7573  17.2966  17.2971  17.3576  17.3580  17.3604  17.3606
    17.3668  17.3671  17.5312  17.5315  17.7855  17.7856  17.8112  17.8113
    17.9301  17.9304  17.9931  17.9933  18.0402  18.0403  18.0726  18.0726
    18.2349  18.2351  18.2734  18.2737  18.4517  18.4518  19.0141  19.0142
    19.9499  19.9501  20.0099  20.0100  20.1028  20.1032  20.1371  20.1373
    20.1571  20.1572  20.1580  20.1580  20.2704  20.2705  20.3729  20.3731
    20.3845  20.3848  20.5141  20.5144  20.5493  20.5496  20.6253  20.6254
    20.6843  20.6847  20.7311  20.7314  20.8340  20.8341  20.9705  20.9706
    21.4729  21.4730  21.5124  21.5125  22.2041  22.2044  23.1538  23.1542
    24.4781  24.4783

          k = 0.1667-0.5000 0.0555 ( 11332 PWs)   bands (ev):

   -66.7793 -66.7793 -66.7216 -66.7215 -66.7082 -66.7082 -66.6965 -66.6965
   -66.6961 -66.6960 -66.6933 -66.6933 -66.6845 -66.6845 -66.6411 -66.6411
   -33.0359 -33.0357 -33.0212 -33.0210 -33.0208 -33.0207 -33.0183 -33.0183
   -32.9962 -32.9961 -32.9636 -32.9634 -32.9613 -32.9611 -32.8795 -32.8795
   -32.8413 -32.8411 -32.7872 -32.7870 -32.7684 -32.7684 -32.7628 -32.7626
   -32.7520 -32.7517 -32.7225 -32.7222 -32.6916 -32.6916 -32.6864 -32.6862
   -32.6395 -32.6393 -32.6130 -32.6130 -32.6090 -32.6089 -32.6061 -32.6060
   -32.5943 -32.5942 -32.5846 -32.5845 -32.5652 -32.5650 -32.5644 -32.5641
    12.8783  12.8786  15.2005  15.2007  15.6667  15.6669  15.9627  15.9629
    16.1011  16.1013  16.2594  16.2595  16.3598  16.3601  16.3883  16.3885
    16.3932  16.3937  17.2208  17.2209  17.2452  17.2454  17.7571  17.7572
    17.7759  17.7761  17.7944  17.7946  17.8668  17.8669  18.1789  18.1790
    18.2260  18.2261  18.2922  18.2923  18.4152  18.4153  18.4232  18.4234
    18.4295  18.4296  18.4708  18.4709  18.5574  18.5575  19.3053  19.3056
    19.8003  19.8005  19.8279  19.8281  19.9455  19.9457  19.9916  19.9918
    20.0356  20.0357  20.0361  20.0362  20.3766  20.3767  20.5095  20.5096
    20.5226  20.5228  20.6490  20.6491  20.6960  20.6961  20.7346  20.7347
    20.8488  20.8490  20.9455  20.9456  21.0614  21.0615  21.1349  21.1350
    21.3024  21.3025  21.4645  21.4647  21.8751  21.8752  22.5870  22.5872
    23.2293  23.2295

          k = 0.1667-0.5000 0.1665 ( 11346 PWs)   bands (ev):

   -66.7768 -66.7767 -66.7209 -66.7207 -66.7204 -66.7202 -66.7002 -66.7001
   -66.6906 -66.6906 -66.6850 -66.6847 -66.6845 -66.6843 -66.6427 -66.6427
   -33.0318 -33.0317 -33.0315 -33.0313 -33.0170 -33.0169 -33.0160 -33.0158
   -32.9688 -32.9687 -32.9659 -32.9659 -32.9656 -32.9654 -32.8903 -32.8901
   -32.8147 -32.8146 -32.8115 -32.8114 -32.7825 -32.7825 -32.7817 -32.7814
   -32.7418 -32.7416 -32.7108 -32.7106 -32.6951 -32.6950 -32.6942 -32.6940
   -32.6313 -32.6311 -32.6308 -32.6307 -32.6142 -32.6142 -32.6044 -32.6043
   -32.5922 -32.5922 -32.5668 -32.5666 -32.5666 -32.5666 -32.5602 -32.5601
    12.9981  12.9984  15.3043  15.3045  15.3075  15.3077  16.1943  16.1945
    16.1956  16.1958  16.3325  16.3326  16.3552  16.3554  16.4268  16.4273
    16.4530  16.4533  17.2373  17.2374  17.3018  17.3019  17.7261  17.7261
    17.7263  17.7265  17.7345  17.7347  17.7424  17.7426  18.1879  18.1881
    18.1918  18.1919  18.2363  18.2364  18.3062  18.3064  18.3099  18.3100
    18.3556  18.3558  18.3582  18.3584  18.4341  18.4342  19.4843  19.4846
    19.7173  19.7174  19.8678  19.8680  19.8982  19.8985  19.9016  19.9017
    20.0271  20.0273  20.0320  20.0320  20.4811  20.4812  20.4881  20.4882
    20.5163  20.5164  20.6213  20.6214  20.6686  20.6687  20.7748  20.7749
    20.7812  20.7812  20.7872  20.7873  21.3088  21.3089  21.3118  21.3120
    21.3174  21.3174  21.3533  21.3534  21.3542  21.3544  23.5023  23.5024
    23.5156  23.5158

          k = 0.1667-0.5000 0.2774 ( 11356 PWs)   bands (ev):

   -66.7718 -66.7717 -66.7329 -66.7329 -66.7185 -66.7184 -66.7041 -66.7041
   -66.6885 -66.6885 -66.6848 -66.6847 -66.6743 -66.6742 -66.6459 -66.6459
   -33.0357 -33.0357 -33.0233 -33.0231 -33.0094 -33.0092 -33.0088 -33.0086
   -32.9844 -32.9843 -32.9704 -32.9702 -32.9281 -32.9281 -32.8898 -32.8896
   -32.8317 -32.8315 -32.8104 -32.8102 -32.8038 -32.8037 -32.7833 -32.7832
[...]
   -32.8172 -32.8172 -32.8007 -32.8005 -32.7850 -32.7848 -32.7780 -32.7778
   -32.7733 -32.7731 -32.7586 -32.7584 -32.7451 -32.7448 -32.7040 -32.7038
   -32.6470 -32.6470 -32.6137 -32.6136 -32.5988 -32.5987 -32.5981 -32.5980
   -32.5967 -32.5966 -32.5867 -32.5867 -32.5383 -32.5383 -32.5382 -32.5379
    13.4445  13.4448  14.3100  14.3103  16.0848  16.0850  16.3468  16.3470
    16.3590  16.3592  16.3754  16.3756  16.3948  16.3950  16.5202  16.5204
    16.7362  16.7365  17.3014  17.3016  17.3459  17.3461  17.3469  17.3471
    17.4113  17.4115  17.4682  17.4683  17.8358  17.8361  17.9650  17.9651
    18.0501  18.0502  18.0596  18.0597  18.0657  18.0659  18.1203  18.1204
    18.3895  18.3896  18.4113  18.4114  18.6655  18.6656  19.3266  19.3267
    19.7635  19.7637  19.8305  19.8308  20.0134  20.0135  20.0704  20.0705
    20.1205  20.1207  20.1231  20.1233  20.1240  20.1240  20.3542  20.3544
    20.3607  20.3609  20.3862  20.3865  20.5272  20.5273  20.5787  20.5788
    20.7400  20.7401  20.7911  20.7912  20.8033  20.8033  20.8847  20.8848
    21.6064  21.6064  21.6619  21.6620  22.7947  22.7948  23.5443  23.5445
    23.7770  23.7772

          k = 0.3889-0.5000 0.1665 ( 11354 PWs)   bands (ev):

   -66.7644 -66.7644 -66.7445 -66.7445 -66.7157 -66.7157 -66.7082 -66.7082
   -66.6870 -66.6869 -66.6853 -66.6852 -66.6650 -66.6650 -66.6507 -66.6506
   -33.0312 -33.0309 -33.0139 -33.0138 -33.0047 -33.0046 -33.0025 -33.0023
   -32.9983 -32.9982 -32.9777 -32.9776 -32.8847 -32.8845 -32.8794 -32.8794
   -32.8420 -32.8419 -32.8381 -32.8381 -32.8247 -32.8245 -32.7923 -32.7921
   -32.7506 -32.7504 -32.7177 -32.7175 -32.7060 -32.7058 -32.6881 -32.6880
   -32.6451 -32.6451 -32.6098 -32.6097 -32.6088 -32.6088 -32.6016 -32.6016
   -32.6002 -32.6001 -32.5800 -32.5800 -32.5451 -32.5449 -32.5444 -32.5441
    13.5646  13.5649  14.4278  14.4281  15.7755  15.7757  16.2567  16.2570
    16.4546  16.4549  16.4630  16.4632  16.5818  16.5820  16.6667  16.6669
    16.7602  16.7604  17.3003  17.3004  17.3597  17.3599  17.3640  17.3642
    17.3699  17.3701  17.5305  17.5307  17.7819  17.7820  17.8033  17.8035
    17.9317  17.9318  17.9882  17.9883  18.0334  18.0336  18.0699  18.0700
    18.2393  18.2394  18.2777  18.2777  18.4462  18.4464  19.0105  19.0106
    19.9513  19.9514  20.0074  20.0076  20.1098  20.1099  20.1437  20.1438
    20.1584  20.1586  20.1612  20.1615  20.2678  20.2679  20.3746  20.3748
    20.3840  20.3841  20.5131  20.5131  20.5482  20.5484  20.6252  20.6254
    20.6776  20.6777  20.7234  20.7234  20.8264  20.8265  20.9637  20.9638
    21.4750  21.4751  21.5143  21.5144  22.2048  22.2049  23.1534  23.1537
    24.4699  24.4701

          k = 0.3889-0.5000 0.2774 ( 11364 PWs)   bands (ev):

   -66.7600 -66.7600 -66.7411 -66.7411 -66.7263 -66.7262 -66.7159 -66.7159
   -66.6812 -66.6811 -66.6765 -66.6765 -66.6665 -66.6665 -66.6533 -66.6533
   -33.0167 -33.0165 -33.0092 -33.0091 -32.9928 -32.9926 -32.9903 -32.9901
   -32.9827 -32.9826 -32.9507 -32.9506 -32.9074 -32.9073 -32.8992 -32.8990
   -32.8809 -32.8808 -32.8675 -32.8674 -32.8625 -32.8623 -32.8173 -32.8171
   -32.7226 -32.7224 -32.6800 -32.6798 -32.6694 -32.6692 -32.6669 -32.6667
   -32.6411 -32.6411 -32.6262 -32.6261 -32.6059 -32.6058 -32.6057 -32.6057
   -32.6022 -32.6021 -32.5769 -32.5768 -32.5581 -32.5579 -32.5558 -32.5556
    13.7978  13.7980  14.6553  14.6555  15.4006  15.4009  16.0481  16.0484
    16.6282  16.6284  16.6382  16.6384  16.7820  16.7822  16.8048  16.8051
    16.8438  16.8439  17.2934  17.2936  17.3188  17.3189  17.3985  17.3987
    17.4150  17.4152  17.5992  17.5994  17.6139  17.6140  17.7446  17.7448
    17.7951  17.7953  17.8204  17.8205  17.9367  17.9369  17.9746  17.9748
    18.0156  18.0157  18.0902  18.0903  18.1459  18.1460  18.6360  18.6361
    20.1705  20.1706  20.1904  20.1906  20.1987  20.1988  20.2144  20.2145
    20.2560  20.2562  20.2958  20.2960  20.4133  20.4134  20.4305  20.4307
    20.4866  20.4866  20.5154  20.5155  20.5538  20.5539  20.6029  20.6029
    20.6354  20.6355  20.8334  20.8335  20.9425  20.9427  21.0201  21.0202
    21.2615  21.2616  21.2824  21.2826  21.7325  21.7327  22.6337  22.6339
    25.5512  25.5513

          k = 0.3889-0.5000 0.3884 ( 11392 PWs)   bands (ev):

   -66.7537 -66.7536 -66.7367 -66.7365 -66.7363 -66.7360 -66.7235 -66.7234
   -66.6762 -66.6762 -66.6692 -66.6689 -66.6687 -66.6685 -66.6572 -66.6572
   -32.9973 -32.9972 -32.9969 -32.9967 -32.9784 -32.9782 -32.9779 -32.9778
   -32.9629 -32.9628 -32.9283 -32.9281 -32.9189 -32.9189 -32.9186 -32.9183
   -32.9123 -32.9121 -32.8973 -32.8973 -32.8967 -32.8964 -32.8490 -32.8488
   -32.6948 -32.6947 -32.6492 -32.6490 -32.6463 -32.6463 -32.6460 -32.6457
   -32.6369 -32.6369 -32.6368 -32.6366 -32.6154 -32.6153 -32.6078 -32.6078
   -32.5990 -32.5990 -32.5767 -32.5765 -32.5764 -32.5764 -32.5700 -32.5698
    14.1289  14.1292  14.9725  14.9727  14.9739  14.9742  15.7330  15.7332
    16.8302  16.8306  16.8810  16.8811  16.8930  16.8931  16.8944  16.8947
    17.0367  17.0368  17.2659  17.2660  17.2680  17.2682  17.4419  17.4421
    17.4850  17.4852  17.5361  17.5363  17.5576  17.5577  17.6700  17.6702
    17.6744  17.6746  17.7867  17.7869  17.7892  17.7893  17.8469  17.8471
    17.8476  17.8477  17.8938  17.8940  17.9172  17.9173  18.2751  18.2752
    20.2588  20.2588  20.2756  20.2758  20.2789  20.2789  20.4029  20.4030
    20.4066  20.4068  20.4253  20.4254  20.4500  20.4501  20.5147  20.5148
    20.5329  20.5330  20.5368  20.5368  20.5388  20.5389  20.6222  20.6224
    20.6604  20.6605  20.8135  20.8136  21.0341  21.0341  21.0393  21.0395
    21.0579  21.0580  21.3303  21.3306  21.3314  21.3316  22.1743  22.1745
    26.7200  26.7219

          k = 0.3889-0.5000-0.4994 ( 11388 PWs)   bands (ev):

   -66.7459 -66.7457 -66.7455 -66.7454 -66.7306 -66.7304 -66.7302 -66.7300
   -66.6723 -66.6722 -66.6719 -66.6717 -66.6628 -66.6625 -66.6623 -66.6621
   -32.9823 -32.9822 -32.9822 -32.9822 -32.9780 -32.9777 -32.9777 -32.9775
   -32.9407 -32.9407 -32.9406 -32.9404 -32.9236 -32.9233 -32.9233 -32.9231
   -32.9191 -32.9190 -32.9190 -32.9189 -32.8839 -32.8839 -32.8838 -32.8835
   -32.6692 -32.6692 -32.6691 -32.6689 -32.6353 -32.6353 -32.6352 -32.6352
   -32.6288 -32.6288 -32.6287 -32.6285 -32.6108 -32.6105 -32.6104 -32.6103
   -32.5973 -32.5972 -32.5970 -32.5969 -32.5768 -32.5767 -32.5767 -32.5767
    14.5326  14.5330  14.5332  14.5334  15.3509  15.3512  15.3515  15.3517
    16.8972  16.8977  16.8977  16.8978  17.0990  17.0993  17.0996  17.0996
    17.1834  17.1836  17.1837  17.1840  17.2020  17.2022  17.2025  17.2025
    17.5924  17.5926  17.5926  17.5927  17.6080  17.6080  17.6081  17.6083
    17.6094  17.6095  17.6095  17.6098  17.7686  17.7688  17.7688  17.7689
    17.8296  17.8296  17.8297  17.8300  17.9787  17.9788  17.9788  17.9790
    20.3113  20.3115  20.3117  20.3119  20.3682  20.3683  20.3684  20.3686
    20.4526  20.4527  20.4529  20.4531  20.5211  20.5214  20.5216  20.5217
    20.5351  20.5352  20.5352  20.5353  20.5859  20.5860  20.5860  20.5863
    20.8548  20.8549  20.8550  20.8552  20.9666  20.9671  20.9672  20.9672
    21.0105  21.0106  21.0106  21.0107  21.7439  21.7443  21.7444  21.7445
    27.2846  27.2847

          k =-0.5000-0.5000 0.0555 ( 11368 PWs)   bands (ev):

   -66.7573 -66.7573 -66.7571 -66.7570 -66.7031 -66.7031 -66.7029 -66.7029
   -66.6943 -66.6943 -66.6940 -66.6940 -66.6562 -66.6562 -66.6559 -66.6559
   -33.0273 -33.0272 -33.0272 -33.0268 -33.0083 -33.0082 -33.0082 -33.0081
   -33.0019 -33.0018 -33.0018 -33.0017 -32.8388 -32.8388 -32.8384 -32.8384
   -32.8283 -32.8279 -32.8276 -32.8276 -32.7968 -32.7968 -32.7968 -32.7964
   -32.7538 -32.7538 -32.7538 -32.7534 -32.7390 -32.7386 -32.7383 -32.7383
   -32.6290 -32.6290 -32.6286 -32.6285 -32.5957 -32.5956 -32.5955 -32.5955
   -32.5916 -32.5915 -32.5915 -32.5915 -32.5348 -32.5348 -32.5348 -32.5344
    13.8545  13.8546  13.8546  13.8550  16.2930  16.2934  16.2934  16.2935
    16.3908  16.3909  16.3909  16.3912  16.5010  16.5014  16.5014  16.5014
    17.0058  17.0059  17.0059  17.0063  17.3388  17.3390  17.3390  17.3392
    17.3856  17.3859  17.3859  17.3861  17.9298  17.9301  17.9301  17.9302
    17.9440  17.9440  17.9440  17.9442  18.0309  18.0310  18.0310  18.0312
    18.3795  18.3795  18.3798  18.3799  18.9800  18.9802  18.9806  18.9806
    19.8517  19.8517  19.8519  19.8521  20.1034  20.1039  20.1041  20.1041
    20.1519  20.1519  20.1519  20.1520  20.2404  20.2406  20.2406  20.2409
    20.2416  20.2416  20.2416  20.2419  20.5043  20.5043  20.5044  20.5046
    20.7682  20.7682  20.7685  20.7686  20.8261  20.8261  20.8264  20.8265
    21.6683  21.6684  21.6684  21.6684  23.2883  23.2887  23.2888  23.2888
    24.0552  24.0554

          k =-0.5000-0.5000 0.1665 ( 11344 PWs)   bands (ev):

   -66.7553 -66.7553 -66.7551 -66.7550 -66.7122 -66.7122 -66.7120 -66.7120
   -66.6860 -66.6860 -66.6858 -66.6858 -66.6572 -66.6572 -66.6570 -66.6569
   -33.0195 -33.0194 -33.0194 -33.0190 -33.0064 -33.0063 -33.0063 -33.0062
   -32.9872 -32.9870 -32.9870 -32.9869 -32.8615 -32.8614 -32.8612 -32.8612
   -32.8395 -32.8395 -32.8394 -32.8390 -32.8390 -32.8387 -32.8383 -32.8383
   -32.7191 -32.7187 -32.7185 -32.7185 -32.7114 -32.7114 -32.7114 -32.7110
   -32.6251 -32.6251 -32.6248 -32.6247 -32.6033 -32.6031 -32.6030 -32.6030
   -32.5906 -32.5905 -32.5905 -32.5905 -32.5420 -32.5420 -32.5420 -32.5416
    13.9741  13.9742  13.9742  13.9746  16.0533  16.0536  16.0536  16.0537
    16.4826  16.4827  16.4827  16.4830  16.7143  16.7147  16.7147  16.7147
    17.0238  17.0240  17.0240  17.0243  17.2961  17.2963  17.2963  17.2965
    17.4423  17.4426  17.4426  17.4428  17.7829  17.7829  17.7829  17.7831
    17.8984  17.8987  17.8987  17.8989  17.9857  17.9859  17.9859  17.9860
    18.2384  18.2384  18.2386  18.2387  18.6988  18.6990  18.6992  18.6992
    20.0866  20.0866  20.0867  20.0869  20.1683  20.1683  20.1683  20.1685
    20.2718  20.2719  20.2719  20.2722  20.2830  20.2832  20.2832  20.2834
    20.3081  20.3086  20.3088  20.3088  20.4961  20.4961  20.4962  20.4963
    20.7003  20.7003  20.7007  20.7007  20.8706  20.8706  20.8708  20.8710
    21.5243  21.5245  21.5245  21.5245  22.6757  22.6761  22.6762  22.6762
    24.9913  24.9915

          k =-0.5000-0.5000 0.2774 ( 11364 PWs)   bands (ev):

   -66.7513 -66.7513 -66.7511 -66.7511 -66.7216 -66.7216 -66.7213 -66.7213
   -66.6786 -66.6786 -66.6784 -66.6784 -66.6594 -66.6594 -66.6591 -66.6591
   -33.0041 -33.0041 -33.0041 -33.0037 -32.9961 -32.9961 -32.9961 -32.9959
   -32.9665 -32.9663 -32.9663 -32.9663 -32.8924 -32.8923 -32.8922 -32.8921
   -32.8805 -32.8805 -32.8805 -32.8801 -32.8583 -32.8580 -32.8578 -32.8578
   -32.6940 -32.6937 -32.6935 -32.6935 -32.6718 -32.6718 -32.6718 -32.6714
   -32.6183 -32.6183 -32.6181 -32.6180 -32.6142 -32.6140 -32.6139 -32.6139
   -32.5927 -32.5927 -32.5927 -32.5926 -32.5560 -32.5560 -32.5560 -32.5556
    14.2059  14.2061  14.2061  14.2064  15.7402  15.7405  15.7405  15.7407
    16.6573  16.6574  16.6575  16.6578  16.9501  16.9504  16.9504  16.9505
    17.0573  17.0575  17.0575  17.0578  17.2524  17.2525  17.2525  17.2528
    17.5105  17.5107  17.5107  17.5109  17.6485  17.6486  17.6486  17.6487
    17.8185  17.8187  17.8187  17.8188  17.8404  17.8407  17.8407  17.8409
    18.0338  18.0338  18.0339  18.0340  18.3392  18.3395  18.3396  18.3396
    20.2309  20.2309  20.2310  20.2312  20.3174  20.3174  20.3174  20.3177
    20.3539  20.3539  20.3540  20.3542  20.3808  20.3809  20.3809  20.3812
    20.4790  20.4790  20.4791  20.4792  20.6102  20.6107  20.6109  20.6109
    20.6171  20.6171  20.6173  20.6174  20.8850  20.8850  20.8852  20.8854
    21.2861  21.2863  21.2863  21.2864  22.1761  22.1766  22.1766  22.1766
    26.0804  26.0807

          k =-0.5000-0.5000 0.3884 ( 11392 PWs)   bands (ev):

   -66.7458 -66.7458 -66.7455 -66.7455 -66.7305 -66.7305 -66.7302 -66.7302
   -66.6722 -66.6722 -66.6719 -66.6719 -66.6625 -66.6625 -66.6623 -66.6623
   -32.9818 -32.9817 -32.9817 -32.9813 -32.9781 -32.9781 -32.9781 -32.9779
   -32.9408 -32.9406 -32.9405 -32.9405 -32.9240 -32.9240 -32.9240 -32.9238
   -32.9187 -32.9187 -32.9187 -32.9183 -32.8841 -32.8838 -32.8836 -32.8836
   -32.6694 -32.6691 -32.6690 -32.6690 -32.6354 -32.6353 -32.6353 -32.6350
   -32.6289 -32.6286 -32.6285 -32.6285 -32.6110 -32.6110 -32.6108 -32.6108
   -32.5970 -32.5970 -32.5969 -32.5969 -32.5768 -32.5768 -32.5768 -32.5765
    14.5337  14.5338  14.5338  14.5342  15.3506  15.3508  15.3508  15.3510
    16.8955  16.8956  16.8956  16.8959  17.1023  17.1024  17.1024  17.1028
    17.1830  17.1832  17.1832  17.1834  17.2046  17.2047  17.2047  17.2050
    17.5902  17.5905  17.5905  17.5907  17.6058  17.6061  17.6061  17.6061
    17.6124  17.6124  17.6124  17.6125  17.7634  17.7636  17.7636  17.7638
    17.8336  17.8336  17.8336  17.8338  17.9775  17.9778  17.9779  17.9779
    20.3152  20.3152  20.3153  20.3155  20.3673  20.3674  20.3674  20.3676
    20.4513  20.4513  20.4514  20.4515  20.5195  20.5195  20.5197  20.5198
    20.5394  20.5396  20.5396  20.5398  20.5826  20.5826  20.5826  20.5828
    20.8494  20.8494  20.8495  20.8497  20.9661  20.9665  20.9666  20.9666
    21.0144  21.0146  21.0146  21.0147  21.7444  21.7448  21.7449  21.7449
    27.2716  27.2718

          k =-0.5000-0.5000-0.4994 ( 11296 PWs)   bands (ev):

   -66.7391 -66.7391 -66.7388 -66.7386 -66.7383 -66.7383 -66.7382 -66.7381
   -66.6670 -66.6670 -66.6667 -66.6666 -66.6663 -66.6662 -66.6661 -66.6660
   -32.9532 -32.9532 -32.9531 -32.9529 -32.9528 -32.9527 -32.9527 -32.9527
   -32.9526 -32.9525 -32.9525 -32.9522 -32.9522 -32.9522 -32.9519 -32.9516
   -32.9127 -32.9126 -32.9124 -32.9123 -32.9123 -32.9120 -32.9120 -32.9118
   -32.6470 -32.6469 -32.6466 -32.6466 -32.6466 -32.6462 -32.6462 -32.6460
   -32.6041 -32.6037 -32.6037 -32.6036 -32.6036 -32.6036 -32.6035 -32.6035
   -32.6034 -32.6034 -32.6032 -32.6032 -32.6032 -32.6031 -32.6030 -32.6028
    14.9293  14.9295  14.9295  14.9298  14.9299  14.9301  14.9301  14.9302
    17.1494  17.1494  17.1495  17.1499  17.1500  17.1501  17.1501  17.1502
    17.1532  17.1533  17.1533  17.1536  17.1537  17.1539  17.1539  17.1540
    17.6613  17.6619  17.6620  17.6620  17.6621  17.6622  17.6623  17.6623
    17.6764  17.6768  17.6770  17.6770  17.6772  17.6772  17.6772  17.6778
    17.6819  17.6819  17.6819  17.6823  17.6824  17.6824  17.6825  17.6825
    20.4131  20.4131  20.4133  20.4135  20.4137  20.4139  20.4139  20.4140
    20.4149  20.4149  20.4149  20.4153  20.4155  20.4155  20.4156  20.4156
    20.7503  20.7503  20.7504  20.7506  20.7507  20.7507  20.7508  20.7510
    20.7562  20.7563  20.7564  20.7564  20.7564  20.7567  20.7567  20.7570
    21.3454  21.3463  21.3465  21.3465  21.3465  21.3465  21.3465  21.3465
    28.4427  28.4492

     the Fermi energy is    20.4810 ev

!    total energy              =   -5267.70766450 Ry
     Harris-Foulkes estimate   =   -5267.70769889 Ry
     estimated scf accuracy    <       0.00004581 Ry

     total all-electron energy =    -40728.452193 Ry

     The total energy is the sum of the following terms:

     one-electron contribution =   -1622.10198678 Ry
     hartree contribution      =     990.03873168 Ry
     xc contribution           =    -442.99569727 Ry
     ewald contribution        =   -2867.75577417 Ry
     one-center paw contrib.   =   -1324.76172827 Ry
     smearing contrib. (-TS)   =      -0.13120970 Ry

     convergence has been achieved in  11 iterations

     Forces acting on atoms (cartesian axes, Ry/au):

     atom    1 type  1   force =     0.00000000    0.00000000    0.00000000
     atom    2 type  1   force =    -0.00015688   -0.00015688    0.00062042
     atom    3 type  1   force =     0.00000000    0.00000000    0.00000000
     atom    4 type  1   force =    -0.00015688   -0.00015688   -0.00062042
     atom    5 type  1   force =     0.00000000    0.00000000    0.00000000
     atom    6 type  1   force =    -0.00015688    0.00015688    0.00062042
     atom    7 type  1   force =     0.00000000    0.00000000    0.00000000
     atom    8 type  1   force =    -0.00015688    0.00015688   -0.00062042
     atom    9 type  1   force =     0.00000000    0.00000000    0.00000000
     atom   10 type  1   force =     0.00015688   -0.00015688    0.00062042
     atom   11 type  1   force =     0.00000000    0.00000000    0.00000000
     atom   12 type  1   force =     0.00015688   -0.00015688   -0.00062042
     atom   13 type  1   force =     0.00000000    0.00000000    0.00000000
     atom   14 type  1   force =     0.00015688    0.00015688    0.00062042
     atom   15 type  1   force =     0.00000000    0.00000000    0.00000000
     atom   16 type  1   force =     0.00015688    0.00015688   -0.00062042

     Total force =     0.001864     Total SCF correction =     0.006854
     SCF correction compared to forces is large: reduce conv_thr to get better values


     Computing stress (Cartesian axis) and pressure

          total   stress  (Ry/bohr**3)                   (kbar)     P=   38.95
   0.00025937   0.00000000   0.00000000         38.15      0.00      0.00
   0.00000000   0.00025937   0.00000000          0.00     38.15      0.00
   0.00000000   0.00000000   0.00027556          0.00      0.00     40.54


     Writing output data file toWYtKcXxyeReYrJ.save/
 
     init_run     :      6.34s CPU      6.69s WALL (       1 calls)
     electrons    :    245.92s CPU    254.12s WALL (       1 calls)
     forces       :      2.34s CPU      2.60s WALL (       1 calls)
     stress       :      5.92s CPU      6.01s WALL (       1 calls)

     Called by init_run:
     wfcinit      :      6.04s CPU      6.34s WALL (       1 calls)
     potinit      :      0.09s CPU      0.12s WALL (       1 calls)
     hinit0       :      0.13s CPU      0.15s WALL (       1 calls)

     Called by electrons:
     c_bands      :    220.32s CPU    226.98s WALL (      12 calls)
     sum_band     :     24.51s CPU     25.77s WALL (      12 calls)
     v_of_rho     :      0.12s CPU      0.22s WALL (      12 calls)
     newd         :      0.16s CPU      0.21s WALL (      12 calls)
     PAW_pot      :      0.82s CPU      0.89s WALL (      12 calls)
     mix_rho      :      0.03s CPU      0.06s WALL (      12 calls)

     Called by c_bands:
     init_us_2    :      1.24s CPU      1.26s WALL (    2025 calls)
     cegterg      :    214.05s CPU    220.63s WALL (     900 calls)

     Called by sum_band:
     sum_band:bec :      0.38s CPU      0.38s WALL (     900 calls)
     addusdens    :      0.18s CPU      0.22s WALL (      12 calls)

     Called by *egterg:
     h_psi        :     96.98s CPU    101.10s WALL (    2772 calls)
     s_psi        :      5.22s CPU      5.26s WALL (    2772 calls)
     g_psi        :      0.21s CPU      0.21s WALL (    1797 calls)
     cdiaghg      :     92.40s CPU     92.71s WALL (    2622 calls)

     Called by h_psi:
     h_psi:pot    :     96.48s CPU    100.60s WALL (    2772 calls)
     h_psi:calbec :      7.85s CPU      9.15s WALL (    2772 calls)
     vloc_psi     :     83.33s CPU     86.11s WALL (    2772 calls)
     add_vuspsi   :      5.28s CPU      5.32s WALL (    2772 calls)

     General routines
     calbec       :     12.86s CPU     14.99s WALL (    4047 calls)
     fft          :      0.13s CPU      0.34s WALL (     181 calls)
     ffts         :      0.01s CPU      0.06s WALL (      24 calls)
     fftw         :     97.12s CPU    100.31s WALL (  755154 calls)
     interpolate  :      0.02s CPU      0.04s WALL (      12 calls)
 
     Parallel routines
     fft_scatt_xy :      6.52s CPU      6.71s WALL (  755359 calls)
     fft_scatt_yz :     65.12s CPU     67.57s WALL (  755359 calls)
 
     PWSCF        :  4m25.57s CPU     4m42.75s WALL

 
   This run was terminated on:   8: 1:31   5Sep2020            

=------------------------------------------------------------------------------=
   JOB DONE.
=------------------------------------------------------------------------------=
