--------------------------------------------------------------------------
WARNING: There was an error initializing an OpenFabrics device.

  Local host:   bear-pg0211u07b
  Local device: mlx5_0
--------------------------------------------------------------------------

     Program PWSCF v.6.3 starts on  5Sep2020 at  8: 6:21 

     This program is part of the open-source Quantum ESPRESSO suite
     for quantum simulation of materials; please cite
         "P. Giannozzi et al., J. Phys.:Condens. Matter 21 395502 (2009);
         "P. Giannozzi et al., J. Phys.:Condens. Matter 29 465901 (2017);
          URL http://www.quantum-espresso.org", 
     in publications or presentations arising from this work. More details at
     http://www.quantum-espresso.org/quote

     Parallel version (MPI & OpenMP), running on      40 processor cores
     Number of MPI processes:                40
     Threads/MPI process:                     1

     MPI processes distributed on     1 nodes
     R & G space division:  proc/nbgrp/npool/nimage =      40
     Reading input from wd/ec/ec_3_005.in
Warning: card &IONS ignored
Warning: card ION_DYNAMICS = 'BFGS', ignored
Warning: card / ignored
Warning: card &CELL ignored
Warning: card CELL_DYNAMICS = 'BFGS', ignored
Warning: card CELL_FACTOR = 2.0, ignored
Warning: card PRESS = 0.0, ignored
Warning: card / ignored

     Current dimensions of program PWSCF are:
     Max number of different atomic species (ntypx) = 10
     Max number of k-points (npk) =  40000
     Max angular momentum in pseudopotentials (lmaxx) =  3
               file Fe.pbe-spn-kjpaw_psl.1.0.0.UPF: wavefunction(s)  3P 3D renormalized

     Subspace diagonalization in iterative solution of the eigenvalue problem:
     a serial algorithm will be used

 
     Parallelization info
     --------------------
     sticks:   dense  smooth     PW     G-vecs:    dense   smooth      PW
     Min          92      61     17                 4232     2273     339
     Max          93      62     18                 4237     2277     343
     Sum        3705    2441    681               169405    90999   13613
 


     bravais-lattice index     =            0
     lattice parameter (alat)  =      10.3915  a.u.
     unit-cell volume          =    1124.9026 (a.u.)^3
     number of atoms/cell      =           16
     number of atomic types    =            1
     number of electrons       =       256.00
     number of Kohn-Sham states=          154
     kinetic-energy cutoff     =      71.0000  Ry
     charge density cutoff     =     430.0000  Ry
     convergence threshold     =      5.0E-05
     mixing beta               =       0.1000
     number of iterations used =           10  plain     mixing
     Exchange-correlation      = SLA PW PBX PBC ( 1  4  3  4 0 0)

     celldm(1)=  10.391466  celldm(2)=   0.000000  celldm(3)=   0.000000
     celldm(4)=   0.000000  celldm(5)=   0.000000  celldm(6)=   0.000000

     crystal axes: (cart. coord. in units of alat)
               a(1) = (   1.000000   0.000000   0.000000 )  
               a(2) = (   0.000000   1.000000   0.000000 )  
               a(3) = (   0.000000   0.000000   1.002500 )  

     reciprocal axes: (cart. coord. in units 2 pi/alat)
               b(1) = (  1.000000  0.000000  0.000000 )  
               b(2) = (  0.000000  1.000000  0.000000 )  
               b(3) = (  0.000000  0.000000  0.997506 )  


     PseudoPot. # 1 for Fe read from file:
     /rds/homes/b/bxp912/pp/Fe.pbe-spn-kjpaw_psl.1.0.0.UPF
     MD5 check sum: 42f43b795421b414b0dc916aa790dbcb
     Pseudo is Projector augmented-wave + core cor, Zval = 16.0
     Generated using "atomic" code by A. Dal Corso v.6.3
     Shape of augmentation charge: PSQ
     Using radial grid of 1191 points,  6 beta functions with: 
                l(1) =   0
                l(2) =   0
                l(3) =   1
                l(4) =   1
                l(5) =   2
                l(6) =   2
     Q(r) pseudized with 0 coefficients 


     atomic species   valence    mass     pseudopotential
        Fe            16.00    55.84500     Fe( 1.00)

     16 Sym. Ops., with inversion, found



   Cartesian axes

     site n.     atom                  positions (alat units)
         1           Fe  tau(   1) = (   0.0000000   0.0000000   0.0000000  )
         2           Fe  tau(   2) = (   0.2500089   0.2500089   0.2506339  )
         3           Fe  tau(   3) = (   0.0000000   0.0000000   0.5012495  )
         4           Fe  tau(   4) = (   0.2500089   0.2500089   0.7518661  )
         5           Fe  tau(   5) = (   0.0000000   0.5000001   0.0000000  )
         6           Fe  tau(   6) = (   0.2500089   0.7499912   0.2506339  )
         7           Fe  tau(   7) = (   0.0000000   0.5000001   0.5012495  )
         8           Fe  tau(   8) = (   0.2500089   0.7499912   0.7518661  )
         9           Fe  tau(   9) = (   0.5000001   0.0000000   0.0000000  )
        10           Fe  tau(  10) = (   0.7499912   0.2500089   0.2506339  )
        11           Fe  tau(  11) = (   0.5000001   0.0000000   0.5012495  )
        12           Fe  tau(  12) = (   0.7499912   0.2500089   0.7518661  )
        13           Fe  tau(  13) = (   0.5000001   0.5000001   0.0000000  )
        14           Fe  tau(  14) = (   0.7499912   0.7499912   0.2506339  )
        15           Fe  tau(  15) = (   0.5000001   0.5000001   0.5012495  )
        16           Fe  tau(  16) = (   0.7499912   0.7499912   0.7518661  )

     number of k points=    75  Marzari-Vanderbilt smearing, width (Ry)=  0.0400
                       cart. coord. in units 2pi/alat
        k(    1) = (   0.0555556   0.0555556   0.0554170), wk =   0.0219479
        k(    2) = (   0.0555556   0.0555556   0.1662510), wk =   0.0219479
        k(    3) = (   0.0555556   0.0555556   0.2770851), wk =   0.0219479
        k(    4) = (   0.0555556   0.0555556   0.3879191), wk =   0.0219479
        k(    5) = (   0.0555556   0.0555556  -0.4987531), wk =   0.0109739
        k(    6) = (   0.0555556   0.1666667   0.0554170), wk =   0.0438957
        k(    7) = (   0.0555556   0.1666667   0.1662510), wk =   0.0438957
        k(    8) = (   0.0555556   0.1666667   0.2770851), wk =   0.0438957
        k(    9) = (   0.0555556   0.1666667   0.3879191), wk =   0.0438957
        k(   10) = (   0.0555556   0.1666667  -0.4987531), wk =   0.0219479
        k(   11) = (   0.0555556   0.2777778   0.0554170), wk =   0.0438957
        k(   12) = (   0.0555556   0.2777778   0.1662510), wk =   0.0438957
        k(   13) = (   0.0555556   0.2777778   0.2770851), wk =   0.0438957
        k(   14) = (   0.0555556   0.2777778   0.3879191), wk =   0.0438957
        k(   15) = (   0.0555556   0.2777778  -0.4987531), wk =   0.0219479
        k(   16) = (   0.0555556   0.3888889   0.0554170), wk =   0.0438957
        k(   17) = (   0.0555556   0.3888889   0.1662510), wk =   0.0438957
        k(   18) = (   0.0555556   0.3888889   0.2770851), wk =   0.0438957
        k(   19) = (   0.0555556   0.3888889   0.3879191), wk =   0.0438957
        k(   20) = (   0.0555556   0.3888889  -0.4987531), wk =   0.0219479
        k(   21) = (   0.0555556  -0.5000000   0.0554170), wk =   0.0219479
        k(   22) = (   0.0555556  -0.5000000   0.1662510), wk =   0.0219479
        k(   23) = (   0.0555556  -0.5000000   0.2770851), wk =   0.0219479
        k(   24) = (   0.0555556  -0.5000000   0.3879191), wk =   0.0219479
        k(   25) = (   0.0555556  -0.5000000  -0.4987531), wk =   0.0109739
        k(   26) = (   0.1666667   0.1666667   0.0554170), wk =   0.0219479
        k(   27) = (   0.1666667   0.1666667   0.1662510), wk =   0.0219479
        k(   28) = (   0.1666667   0.1666667   0.2770851), wk =   0.0219479
        k(   29) = (   0.1666667   0.1666667   0.3879191), wk =   0.0219479
        k(   30) = (   0.1666667   0.1666667  -0.4987531), wk =   0.0109739
        k(   31) = (   0.1666667   0.2777778   0.0554170), wk =   0.0438957
        k(   32) = (   0.1666667   0.2777778   0.1662510), wk =   0.0438957
        k(   33) = (   0.1666667   0.2777778   0.2770851), wk =   0.0438957
        k(   34) = (   0.1666667   0.2777778   0.3879191), wk =   0.0438957
        k(   35) = (   0.1666667   0.2777778  -0.4987531), wk =   0.0219479
        k(   36) = (   0.1666667   0.3888889   0.0554170), wk =   0.0438957
        k(   37) = (   0.1666667   0.3888889   0.1662510), wk =   0.0438957
        k(   38) = (   0.1666667   0.3888889   0.2770851), wk =   0.0438957
        k(   39) = (   0.1666667   0.3888889   0.3879191), wk =   0.0438957
        k(   40) = (   0.1666667   0.3888889  -0.4987531), wk =   0.0219479
        k(   41) = (   0.1666667  -0.5000000   0.0554170), wk =   0.0219479
        k(   42) = (   0.1666667  -0.5000000   0.1662510), wk =   0.0219479
        k(   43) = (   0.1666667  -0.5000000   0.2770851), wk =   0.0219479
        k(   44) = (   0.1666667  -0.5000000   0.3879191), wk =   0.0219479
        k(   45) = (   0.1666667  -0.5000000  -0.4987531), wk =   0.0109739
        k(   46) = (   0.2777778   0.2777778   0.0554170), wk =   0.0219479
        k(   47) = (   0.2777778   0.2777778   0.1662510), wk =   0.0219479
        k(   48) = (   0.2777778   0.2777778   0.2770851), wk =   0.0219479
        k(   49) = (   0.2777778   0.2777778   0.3879191), wk =   0.0219479
        k(   50) = (   0.2777778   0.2777778  -0.4987531), wk =   0.0109739
        k(   51) = (   0.2777778   0.3888889   0.0554170), wk =   0.0438957
        k(   52) = (   0.2777778   0.3888889   0.1662510), wk =   0.0438957
        k(   53) = (   0.2777778   0.3888889   0.2770851), wk =   0.0438957
        k(   54) = (   0.2777778   0.3888889   0.3879191), wk =   0.0438957
        k(   55) = (   0.2777778   0.3888889  -0.4987531), wk =   0.0219479
        k(   56) = (   0.2777778  -0.5000000   0.0554170), wk =   0.0219479
        k(   57) = (   0.2777778  -0.5000000   0.1662510), wk =   0.0219479
        k(   58) = (   0.2777778  -0.5000000   0.2770851), wk =   0.0219479
        k(   59) = (   0.2777778  -0.5000000   0.3879191), wk =   0.0219479
        k(   60) = (   0.2777778  -0.5000000  -0.4987531), wk =   0.0109739
        k(   61) = (   0.3888889   0.3888889   0.0554170), wk =   0.0219479
        k(   62) = (   0.3888889   0.3888889   0.1662510), wk =   0.0219479
        k(   63) = (   0.3888889   0.3888889   0.2770851), wk =   0.0219479
        k(   64) = (   0.3888889   0.3888889   0.3879191), wk =   0.0219479
        k(   65) = (   0.3888889   0.3888889  -0.4987531), wk =   0.0109739
        k(   66) = (   0.3888889  -0.5000000   0.0554170), wk =   0.0219479
        k(   67) = (   0.3888889  -0.5000000   0.1662510), wk =   0.0219479
        k(   68) = (   0.3888889  -0.5000000   0.2770851), wk =   0.0219479
        k(   69) = (   0.3888889  -0.5000000   0.3879191), wk =   0.0219479
        k(   70) = (   0.3888889  -0.5000000  -0.4987531), wk =   0.0109739
        k(   71) = (  -0.5000000  -0.5000000   0.0554170), wk =   0.0054870
        k(   72) = (  -0.5000000  -0.5000000   0.1662510), wk =   0.0054870
        k(   73) = (  -0.5000000  -0.5000000   0.2770851), wk =   0.0054870
        k(   74) = (  -0.5000000  -0.5000000   0.3879191), wk =   0.0054870
        k(   75) = (  -0.5000000  -0.5000000  -0.4987531), wk =   0.0027435

     Dense  grid:   169405 G-vectors     FFT dimensions: (  72,  72,  72)

     Smooth grid:    90999 G-vectors     FFT dimensions: (  60,  60,  60)

     Estimated max dynamical RAM per process >      83.49 MB

     Estimated total dynamical RAM >       3.26 GB

     Check: negative/imaginary core charge=   -0.000006    0.000000

     Initial potential from superposition of free atoms

     starting charge  255.99300, renormalised to  256.00000
     Starting wfcs are  160 randomized atomic wfcs
     Checking if some PAW data can be deallocated... 

     total cpu time spent up to now is        7.4 secs

     Self-consistent Calculation

     iteration #  1     ecut=    71.00 Ry     beta= 0.10
     Davidson diagonalization with overlap
     ethr =  1.00E-02,  avg # of iterations =  3.4

     Threshold (ethr) on eigenvalues was too large:
     Diagonalizing with lowered threshold

     Davidson diagonalization with overlap
     ethr =  2.54E-04,  avg # of iterations =  3.1

     total cpu time spent up to now is       61.6 secs

     total energy              =   -5267.75239845 Ry
     Harris-Foulkes estimate   =   -5267.86773124 Ry
     estimated scf accuracy    <       0.73110025 Ry

     iteration #  2     ecut=    71.00 Ry     beta= 0.10
     Davidson diagonalization with overlap
     ethr =  2.86E-04,  avg # of iterations =  1.0

     total cpu time spent up to now is       78.5 secs

     total energy              =   -5267.61902301 Ry
     Harris-Foulkes estimate   =   -5267.76765432 Ry
     estimated scf accuracy    <       0.36238179 Ry

     iteration #  3     ecut=    71.00 Ry     beta= 0.10
     Davidson diagonalization with overlap
     ethr =  1.42E-04,  avg # of iterations =  3.2

     total cpu time spent up to now is      109.2 secs

     total energy              =   -5267.69946859 Ry
     Harris-Foulkes estimate   =   -5267.72255486 Ry
     estimated scf accuracy    <       0.54772498 Ry

     iteration #  4     ecut=    71.00 Ry     beta= 0.10
     Davidson diagonalization with overlap
     ethr =  1.42E-04,  avg # of iterations =  1.0

     total cpu time spent up to now is      125.6 secs

     total energy              =   -5267.70633436 Ry
     Harris-Foulkes estimate   =   -5267.71185633 Ry
     estimated scf accuracy    <       0.03095882 Ry

     iteration #  5     ecut=    71.00 Ry     beta= 0.10
     Davidson diagonalization with overlap
     ethr =  1.21E-05,  avg # of iterations =  1.9

     total cpu time spent up to now is      145.4 secs

     total energy              =   -5267.70541111 Ry
     Harris-Foulkes estimate   =   -5267.70823199 Ry
     estimated scf accuracy    <       0.02180507 Ry

     iteration #  6     ecut=    71.00 Ry     beta= 0.10
     Davidson diagonalization with overlap
     ethr =  8.52E-06,  avg # of iterations =  2.9

     total cpu time spent up to now is      171.6 secs

     total energy              =   -5267.70871136 Ry
     Harris-Foulkes estimate   =   -5267.70794911 Ry
     estimated scf accuracy    <       0.01110611 Ry

     iteration #  7     ecut=    71.00 Ry     beta= 0.10
     Davidson diagonalization with overlap
     ethr =  4.34E-06,  avg # of iterations =  1.1

     total cpu time spent up to now is      188.4 secs

     total energy              =   -5267.70746354 Ry
     Harris-Foulkes estimate   =   -5267.70909684 Ry
     estimated scf accuracy    <       0.01311955 Ry

     iteration #  8     ecut=    71.00 Ry     beta= 0.10
     Davidson diagonalization with overlap
     ethr =  4.34E-06,  avg # of iterations =  1.0

     total cpu time spent up to now is      204.9 secs

     total energy              =   -5267.70780308 Ry
     Harris-Foulkes estimate   =   -5267.70827076 Ry
     estimated scf accuracy    <       0.00778393 Ry

     iteration #  9     ecut=    71.00 Ry     beta= 0.10
     Davidson diagonalization with overlap
     ethr =  3.04E-06,  avg # of iterations =  2.1

     total cpu time spent up to now is      225.5 secs

     total energy              =   -5267.70817220 Ry
     Harris-Foulkes estimate   =   -5267.70818277 Ry
     estimated scf accuracy    <       0.00044114 Ry

     iteration # 10     ecut=    71.00 Ry     beta= 0.10
     Davidson diagonalization with overlap
     ethr =  1.72E-07,  avg # of iterations =  2.4

     total cpu time spent up to now is      247.4 secs

     total energy              =   -5267.70818024 Ry
     Harris-Foulkes estimate   =   -5267.70819181 Ry
     estimated scf accuracy    <       0.00020011 Ry

     iteration # 11     ecut=    71.00 Ry     beta= 0.10
     Davidson diagonalization with overlap
     ethr =  7.82E-08,  avg # of iterations =  1.0

     total cpu time spent up to now is      266.4 secs

     End of self-consistent calculation

          k = 0.0556 0.0556 0.0554 ( 11309 PWs)   bands (ev):

   -66.8436 -66.7451 -66.7449 -66.7446 -66.7288 -66.7286 -66.7282 -66.7276
   -66.7276 -66.7271 -66.7269 -66.7268 -66.7265 -66.7196 -66.7194 -66.6438
   -33.1387 -33.1387 -33.1379 -33.1356 -33.1356 -33.1348 -32.9731 -32.9701
   -32.9649 -32.8958 -32.8930 -32.8927 -32.8927 -32.8713 -32.8710 -32.8581
   -32.8576 -32.8573 -32.8206 -32.8203 -32.7961 -32.7805 -32.7804 -32.7794
   -32.7689 -32.7687 -32.7681 -32.7566 -32.7547 -32.7543 -32.7533 -32.7515
   -32.7512 -32.7447 -32.7446 -32.7437 -32.7337 -32.7337 -32.7329 -32.5703
   -32.5691 -32.5684 -32.5684 -32.5660 -32.5653 -32.5653 -32.5639 -32.5635
    11.4183  15.2912  15.3063  15.3064  15.4263  15.4272  15.4272  15.4522
    15.4532  15.4532  15.6935  15.7006  15.8036  15.8192  15.8192  17.1865
    17.2711  17.2740  17.2781  17.2850  17.2926  17.2926  17.3065  17.3065
    17.4132  17.4213  17.4640  17.7155  17.7210  17.7211  18.1082  18.1149
    18.1151  18.5898  18.6000  18.6446  18.9184  18.9184  18.9281  19.0236
    19.0237  19.0316  19.1094  19.1096  19.1203  19.2055  19.2055  19.2155
    19.9520  19.9523  19.9594  20.1722  20.1723  20.1863  20.2025  20.2026
    20.2080  20.3377  20.3377  20.3401  20.3402  20.3569  20.3583  20.3696
    20.3874  20.6240  20.6240  20.6379  20.6381  20.6452  20.6463  20.6811
    20.6813  20.6913  20.6916  21.1697  21.1699  21.1854  21.3988  21.4312
    21.4573  21.4573  21.4761  21.4788  21.9038  21.9039  21.9070  21.9078
    21.9409  21.9409

          k = 0.0556 0.0556 0.1663 ( 11333 PWs)   bands (ev):

   -66.8401 -66.7627 -66.7442 -66.7439 -66.7307 -66.7304 -66.7278 -66.7273
   -66.7270 -66.7263 -66.7260 -66.7258 -66.7202 -66.7198 -66.7108 -66.6464
   -33.1307 -33.1307 -33.1288 -33.1262 -33.1218 -33.1218 -32.9764 -32.9639
   -32.9551 -32.9325 -32.9244 -32.9242 -32.9217 -32.9210 -32.8906 -32.8903
   -32.8548 -32.8270 -32.8169 -32.8149 -32.8029 -32.7794 -32.7792 -32.7716
   -32.7625 -32.7588 -32.7585 -32.7583 -32.7581 -32.7489 -32.7485 -32.7443
   -32.7440 -32.7414 -32.7413 -32.7091 -32.7075 -32.7073 -32.6992 -32.5856
   -32.5779 -32.5779 -32.5770 -32.5744 -32.5691 -32.5686 -32.5686 -32.5663
    11.5556  14.6609  15.3623  15.3624  15.4375  15.4376  15.5178  15.5178
    15.5265  15.5511  15.7558  15.7652  15.8621  15.8621  16.1390  17.0756
    17.1877  17.1916  17.2538  17.2662  17.3067  17.3256  17.3427  17.3427
    17.3841  17.3841  17.6113  17.6235  17.6753  17.6755  18.0151  18.0153
    18.4612  18.5711  18.5858  18.7110  18.7110  18.7111  18.7779  18.8903
    18.8903  18.9337  19.1942  19.1943  19.3099  19.3100  19.3557  19.4566
    19.6380  19.6381  19.7163  19.9289  19.9291  19.9468  20.1093  20.1821
    20.1823  20.2796  20.2797  20.2964  20.3656  20.3658  20.3773  20.4034
    20.4160  20.4254  20.4255  20.4551  20.6489  20.6613  20.6616  20.6892
    20.6895  20.8669  20.9655  20.9656  21.1235  21.2261  21.3409  21.4651
    21.4651  21.4682  21.5048  21.5049  21.8070  21.8071  21.9852  21.9852
    22.0679  22.0679

          k = 0.0556 0.0556 0.2771 ( 11353 PWs)   bands (ev):

   -66.8333 -66.7800 -66.7427 -66.7425 -66.7330 -66.7328 -66.7269 -66.7269
   -66.7265 -66.7256 -66.7255 -66.7252 -66.7212 -66.7206 -66.6953 -66.6516
   -33.1124 -33.1124 -33.1109 -33.1090 -33.0979 -33.0979 -32.9772 -32.9744
   -32.9687 -32.9661 -32.9660 -32.9512 -32.9441 -32.9401 -32.9348 -32.9347
   -32.8492 -32.8400 -32.8368 -32.8223 -32.7772 -32.7769 -32.7733 -32.7727
   -32.7688 -32.7624 -32.7620 -32.7470 -32.7466 -32.7444 -32.7440 -32.7255
   -32.7179 -32.7062 -32.7061 -32.6764 -32.6743 -32.6741 -32.6671 -32.6112
   -32.5934 -32.5934 -32.5924 -32.5907 -32.5808 -32.5781 -32.5780 -32.5757
    11.8261  13.9857  15.4485  15.4485  15.4747  15.4747  15.6159  15.6159
    15.7191  15.7407  15.8707  15.8930  15.9116  15.9117  16.2843  16.9108
    16.9562  16.9563  17.1429  17.1909  17.2228  17.2333  17.4544  17.4545
    17.5229  17.5230  17.6663  17.6664  17.8658  17.8875  17.9464  17.9466
    18.4223  18.4223  18.5536  18.5800  18.5837  18.5837  18.6202  18.6693
    18.8054  19.0599  19.0768  19.0769  19.2926  19.2928  19.4529  19.4530
    19.4860  19.4910  19.4912  19.5153  19.5625  19.6346  19.7456  20.1523
    20.1803  20.1804  20.2780  20.2782  20.4136  20.4277  20.4712  20.4855
    20.4857  20.6238  20.6251  20.6544  20.6840  20.6860  20.6930  20.7182
    20.7182  20.7370  20.9190  20.9650  21.0923  21.1624  21.1624  21.3963
    21.4789  21.4790  21.5595  21.5596  21.6800  21.6800  22.0652  22.0652
    22.2024  22.2025

          k = 0.0556 0.0556 0.3879 ( 11373 PWs)   bands (ev):

   -66.8236 -66.7963 -66.7407 -66.7404 -66.7355 -66.7353 -66.7264 -66.7261
   -66.7257 -66.7254 -66.7252 -66.7243 -66.7226 -66.7217 -66.6813 -66.6592
   -33.0852 -33.0848 -33.0848 -33.0841 -33.0649 -33.0648 -33.0153 -33.0129
   -33.0094 -33.0093 -32.9811 -32.9811 -32.9756 -32.9601 -32.9328 -32.9205
   -32.8809 -32.8683 -32.8235 -32.8115 -32.7887 -32.7824 -32.7742 -32.7739
   -32.7664 -32.7660 -32.7455 -32.7451 -32.7444 -32.7440 -32.7278 -32.6833
   -32.6790 -32.6717 -32.6717 -32.6466 -32.6448 -32.6428 -32.6427 -32.6379
   -32.6150 -32.6150 -32.6144 -32.6144 -32.5981 -32.5937 -32.5936 -32.5917
    12.2216  13.3267  15.5198  15.5199  15.5210  15.5210  15.7335  15.7336
    15.9133  15.9134  15.9878  16.0044  16.0182  16.0811  16.2746  16.6195
    16.6371  16.6448  17.1346  17.1518  17.1858  17.1946  17.6233  17.6233
    17.7171  17.7172  17.7854  17.7855  17.9836  17.9838  18.1616  18.1616
    18.1935  18.2143  18.2765  18.2765  18.5483  18.5489  18.5491  18.5781
    18.5991  18.6087  18.7245  18.7247  18.9312  19.0430  19.0472  19.2750
    19.3673  19.6910  19.6911  19.7177  19.7178  19.9425  19.9526  20.0460
    20.0461  20.0727  20.1431  20.1432  20.4621  20.4713  20.5500  20.5740
    20.5768  20.6439  20.6614  20.6773  20.6834  20.6962  20.7694  20.7732
    20.7868  20.7870  20.9140  21.0054  21.0054  21.1959  21.1960  21.2736
    21.4507  21.4507  21.4956  21.4956  21.5641  21.5641  22.1619  22.1620
    22.2701  22.2701

          k = 0.0556 0.0556-0.4988 ( 11356 PWs)   bands (ev):

   -66.8111 -66.8108 -66.7386 -66.7381 -66.7378 -66.7378 -66.7262 -66.7257
   -66.7255 -66.7254 -66.7243 -66.7240 -66.7232 -66.7228 -66.6694 -66.6690
   -33.0526 -33.0523 -33.0523 -33.0520 -33.0497 -33.0497 -33.0496 -33.0495
   -33.0254 -33.0253 -33.0252 -33.0251 -32.9702 -32.9700 -32.9093 -32.9089
   -32.8967 -32.8965 -32.8061 -32.8058 -32.7975 -32.7971 -32.7707 -32.7704
   -32.7704 -32.7700 -32.7450 -32.7446 -32.7446 -32.7443 -32.6839 -32.6837
   -32.6462 -32.6457 -32.6444 -32.6440 -32.6409 -32.6408 -32.6406 -32.6406
   -32.6203 -32.6199 -32.6155 -32.6154 -32.6153 -32.6152 -32.6126 -32.6123
    12.7284  12.7288  15.5442  15.5443  15.5446  15.5446  15.8451  15.8452
    15.8454  15.8454  16.1672  16.1678  16.3075  16.3079  16.3156  16.3161
    16.3251  16.3254  17.1525  17.1531  17.1619  17.1625  17.8378  17.8379
    17.8381  17.8381  17.9334  17.9335  17.9336  17.9338  18.1378  18.1382
    18.1383  18.1384  18.2969  18.2971  18.2973  18.2973  18.5611  18.5615
    18.5869  18.5874  18.5883  18.5887  18.6018  18.6022  19.0886  19.0888
    19.6755  19.6761  19.8806  19.8806  19.8808  19.8810  19.9539  19.9539
    19.9540  19.9543  20.2964  20.2965  20.4227  20.4229  20.5176  20.5179
    20.5231  20.5233  20.6496  20.6500  20.6692  20.6696  20.6843  20.6847
    21.0448  21.0451  21.0451  21.0451  21.1099  21.1104  21.2562  21.2564
    21.2564  21.2565  21.5149  21.5150  21.5151  21.5152  22.2441  22.2442
    22.2443  22.2443

          k = 0.0556 0.1667 0.0554 ( 11346 PWs)   bands (ev):

   -66.8400 -66.7625 -66.7443 -66.7440 -66.7306 -66.7303 -66.7280 -66.7274
   -66.7271 -66.7265 -66.7261 -66.7256 -66.7202 -66.7198 -66.7106 -66.6464
   -33.1308 -33.1299 -33.1296 -33.1267 -33.1217 -33.1211 -32.9745 -32.9659
   -32.9553 -32.9326 -32.9238 -32.9237 -32.9216 -32.9210 -32.8900 -32.8898
   -32.8551 -32.8275 -32.8174 -32.8162 -32.8038 -32.7810 -32.7793 -32.7713
   -32.7608 -32.7602 -32.7584 -32.7582 -32.7568 -32.7507 -32.7487 -32.7458
   -32.7443 -32.7403 -32.7401 -32.7099 -32.7065 -32.7062 -32.6998 -32.5852
   -32.5785 -32.5780 -32.5764 -32.5736 -32.5695 -32.5692 -32.5686 -32.5662
    11.5563  14.6746  15.3487  15.3630  15.4371  15.4373  15.5170  15.5176
    15.5281  15.5527  15.7580  15.7638  15.8481  15.8627  16.1543  17.0788
    17.1881  17.2000  17.2741  17.2865  17.3129  17.3216  17.3293  17.3428
    17.3630  17.3842  17.6030  17.6147  17.6708  17.6755  18.0104  18.0157
    18.4668  18.5675  18.5953  18.6986  18.7038  18.7142  18.7702  18.8786
    18.8945  18.9306  19.2059  19.2067  19.3216  19.3236  19.3444  19.4452
    19.6396  19.6520  19.7076  19.9315  19.9334  19.9469  20.0912  20.1815
    20.1880  20.2763  20.2956  20.3091  20.3580  20.3598  20.3794  20.3858
    20.4049  20.4252  20.4301  20.4513  20.6406  20.6650  20.6652  20.6828
    20.6830  20.8560  20.9660  20.9786  21.1422  21.2242  21.3372  21.4402
    21.4656  21.4707  21.5039  21.5152  21.8075  21.8107  21.9534  21.9860
    22.0673  22.0781

          k = 0.0556 0.1667 0.1663 ( 11354 PWs)   bands (ev):

   -66.8367 -66.7615 -66.7611 -66.7433 -66.7355 -66.7301 -66.7297 -66.7269
   -66.7256 -66.7253 -66.7220 -66.7211 -66.7199 -66.7111 -66.7108 -66.6490
   -33.1287 -33.1221 -33.1212 -33.1139 -33.1133 -33.1023 -32.9827 -32.9605
   -32.9560 -32.9511 -32.9508 -32.9433 -32.9399 -32.9357 -32.9115 -32.8655
   -32.8508 -32.8502 -32.8162 -32.8143 -32.8140 -32.7860 -32.7756 -32.7741
   -32.7680 -32.7670 -32.7652 -32.7560 -32.7543 -32.7522 -32.7494 -32.7399
   -32.7305 -32.7184 -32.7105 -32.7102 -32.6873 -32.6747 -32.6738 -32.6067
   -32.5931 -32.5847 -32.5842 -32.5770 -32.5765 -32.5742 -32.5653 -32.5639
    11.6920  14.7371  14.7496  15.3804  15.4252  15.5390  15.5401  15.6150
    15.6164  15.6278  15.8205  15.8266  15.9145  16.1817  16.1955  16.9781
    17.0897  17.2673  17.3013  17.3157  17.3189  17.3212  17.3385  17.3583
    17.3647  17.3834  17.4888  17.5918  17.6151  17.6325  17.9092  18.2872
    18.2899  18.5118  18.5710  18.5750  18.5774  18.6180  18.7621  18.8106
    19.1107  19.1158  19.1709  19.1772  19.2181  19.2823  19.3825  19.4801
    19.4876  19.4941  19.5016  19.6787  19.6951  19.8306  19.9393  19.9460
    20.1717  20.2878  20.3007  20.3166  20.3586  20.3590  20.3747  20.3849
    20.3915  20.5673  20.6139  20.6469  20.6471  20.6638  20.6673  20.6784
    20.6799  20.7772  20.7855  20.9971  21.1031  21.1097  21.1126  21.1282
    21.2368  21.4954  21.4956  21.6273  21.6983  22.0598  22.3754  22.3811
    22.5624  22.6966

          k = 0.0556 0.1667 0.2771 ( 11364 PWs)   bands (ev):

   -66.8302 -66.7782 -66.7587 -66.7419 -66.7406 -66.7324 -66.7287 -66.7264
   -66.7251 -66.7246 -66.7224 -66.7205 -66.7187 -66.7115 -66.6960 -66.6538
   -33.1164 -33.1048 -33.1042 -33.0981 -33.0917 -33.0732 -32.9899 -32.9889
   -32.9860 -32.9750 -32.9724 -32.9709 -32.9479 -32.9460 -32.9200 -32.8965
   -32.8544 -32.8476 -32.8124 -32.8098 -32.8078 -32.8062 -32.7872 -32.7796
   -32.7778 -32.7704 -32.7658 -32.7528 -32.7512 -32.7395 -32.7321 -32.7153
   -32.7123 -32.6988 -32.6901 -32.6783 -32.6620 -32.6444 -32.6437 -32.6369
   -32.6139 -32.5970 -32.5969 -32.5922 -32.5855 -32.5842 -32.5686 -32.5676
    11.9592  14.0800  14.8816  15.3325  15.5233  15.5787  15.7141  15.7347
    15.7661  15.8023  15.9336  15.9530  15.9806  16.2301  16.3335  16.8580
    16.9385  16.9705  17.2032  17.2657  17.2901  17.2960  17.3584  17.4246
    17.4482  17.4837  17.5753  17.6534  17.7602  17.8138  17.8247  18.1591
    18.3162  18.4171  18.4337  18.4549  18.4941  18.5383  18.5545  18.7471
    18.7914  18.9447  18.9705  19.1240  19.1976  19.2777  19.2835  19.2870
    19.3777  19.4639  19.4860  19.5363  19.5657  19.7106  19.7371  20.0495
    20.1740  20.2042  20.2460  20.2779  20.3106  20.3589  20.3966  20.4355
    20.5929  20.6067  20.6085  20.6752  20.6809  20.6996  20.7052  20.7134
    20.7642  20.8793  20.8926  20.8952  20.9134  20.9404  20.9980  21.0990
    21.2122  21.4247  21.4789  21.5632  21.6938  22.1976  22.2137  22.7738
    22.8861  22.9965

          k = 0.0556 0.1667 0.3879 ( 11351 PWs)   bands (ev):

   -66.8205 -66.7940 -66.7552 -66.7458 -66.7398 -66.7349 -66.7273 -66.7259
   -66.7251 -66.7240 -66.7235 -66.7213 -66.7160 -66.7124 -66.6825 -66.6612
   -33.0945 -33.0797 -33.0792 -33.0763 -33.0614 -33.0356 -33.0289 -33.0180
   -33.0119 -33.0112 -32.9921 -32.9854 -32.9838 -32.9451 -32.9298 -32.8968
   -32.8787 -32.8399 -32.8364 -32.8044 -32.8037 -32.7969 -32.7872 -32.7849
   -32.7787 -32.7757 -32.7607 -32.7519 -32.7515 -32.7253 -32.7155 -32.7030
   -32.6774 -32.6738 -32.6674 -32.6620 -32.6491 -32.6393 -32.6368 -32.6170
   -32.6168 -32.6154 -32.6146 -32.6145 -32.6021 -32.5970 -32.5781 -32.5781
    12.3495  13.4358  15.0365  15.2714  15.6102  15.6237  15.8313  15.9228
    15.9994  16.0075  16.0605  16.0802  16.1358  16.1934  16.3312  16.6480
    16.6517  16.6630  17.1705  17.2136  17.2233  17.2474  17.5281  17.5736
    17.5890  17.6425  17.6447  17.7929  17.8694  18.0051  18.0510  18.1121
    18.2132  18.2260  18.2818  18.2979  18.4168  18.4183  18.4632  18.4948
    18.5098  18.5384  18.6159  18.7549  18.8289  18.8302  19.1027  19.4868
    19.5107  19.6697  19.6797  19.7262  19.7287  19.7468  19.9195  19.9911
    20.0266  20.0730  20.1431  20.1846  20.3620  20.4173  20.4412  20.5160
    20.5501  20.5561  20.5580  20.6730  20.6797  20.6881  20.6893  20.7414
    20.7646  20.7946  20.8305  20.9538  20.9603  21.0564  21.0969  21.1946
    21.2014  21.2058  21.4008  21.5972  21.6799  22.0323  22.3763  22.7052
    23.0588  23.1992

          k = 0.0556 0.1667-0.4988 ( 11354 PWs)   bands (ev):

   -66.8085 -66.8082 -66.7509 -66.7506 -66.7376 -66.7372 -66.7259 -66.7256
   -66.7255 -66.7252 -66.7226 -66.7223 -66.7141 -66.7138 -66.6710 -66.6706
   -33.0648 -33.0648 -33.0491 -33.0488 -33.0485 -33.0482 -33.0470 -33.0469
   -33.0249 -33.0248 -32.9924 -32.9923 -32.9907 -32.9905 -32.9066 -32.9063
   -32.8700 -32.8699 -32.8169 -32.8166 -32.7963 -32.7959 -32.7925 -32.7922
   -32.7810 -32.7806 -32.7517 -32.7514 -32.7198 -32.7195 -32.7158 -32.7157
   -32.6694 -32.6694 -32.6435 -32.6431 -32.6393 -32.6390 -32.6363 -32.6363
   -32.6236 -32.6232 -32.6148 -32.6148 -32.5951 -32.5949 -32.5944 -32.5943
    12.8485  12.8489  15.1742  15.1745  15.6441  15.6444  15.9402  15.9405
    16.0772  16.0774  16.2279  16.2284  16.3303  16.3307  16.3588  16.3592
    16.3705  16.3708  17.1858  17.1865  17.2105  17.2110  17.7323  17.7325
    17.7498  17.7501  17.7801  17.7802  17.8375  17.8379  18.1629  18.1630
    18.2019  18.2020  18.2665  18.2666  18.3847  18.3848  18.4030  18.4033
    18.4132  18.4135  18.4541  18.4545  18.5246  18.5251  19.2844  19.2845
    19.7609  19.7614  19.7901  19.7904  19.9111  19.9113  19.9561  19.9563
    19.9933  19.9935  20.0136  20.0137  20.3525  20.3526  20.4839  20.4841
    20.4973  20.4975  20.6182  20.6186  20.6728  20.6732  20.7119  20.7122
    20.8181  20.8181  20.9203  20.9204  21.0292  21.0293  21.1065  21.1066
    21.2697  21.2700  21.4302  21.4303  21.8445  21.8446  22.5597  22.5598
    23.1906  23.1909

          k = 0.0556 0.2778 0.0554 ( 11348 PWs)   bands (ev):

   -66.8333 -66.7798 -66.7428 -66.7425 -66.7330 -66.7326 -66.7271 -66.7269
   -66.7266 -66.7257 -66.7256 -66.7252 -66.7213 -66.7206 -66.6950 -66.6515
   -33.1123 -33.1117 -33.1116 -33.1095 -33.0977 -33.0971 -32.9753 -32.9745
   -32.9688 -32.9654 -32.9650 -32.9532 -32.9433 -32.9407 -32.9340 -32.9339
   -32.8504 -32.8398 -32.8377 -32.8222 -32.7791 -32.7772 -32.7731 -32.7718
   -32.7672 -32.7642 -32.7623 -32.7487 -32.7468 -32.7460 -32.7443 -32.7250
   -32.7173 -32.7053 -32.7050 -32.6770 -32.6735 -32.6731 -32.6677 -32.6110
   -32.5939 -32.5932 -32.5919 -32.5900 -32.5812 -32.5785 -32.5780 -32.5759
    11.8282  13.9971  15.4376  15.4502  15.4739  15.4751  15.6152  15.6155
    15.7219  15.7436  15.8773  15.8894  15.9008  15.9131  16.2985  16.9181
    16.9581  16.9649  17.1473  17.1967  17.2410  17.2514  17.4343  17.4551
    17.5027  17.5236  17.6623  17.6670  17.8547  17.8764  17.9425  17.9472
    18.4083  18.4250  18.5519  18.5697  18.5869  18.5879  18.6181  18.6649
    18.7951  19.0672  19.0767  19.0883  19.2926  19.3055  19.4623  19.4672
    19.4759  19.4996  19.5011  19.5043  19.5460  19.6234  19.7343  20.1652
    20.1776  20.1954  20.2750  20.2939  20.3980  20.4120  20.4620  20.4851
    20.4899  20.6246  20.6255  20.6460  20.6767  20.6787  20.6909  20.7183
    20.7218  20.7276  20.9309  20.9607  21.0864  21.1586  21.1713  21.3984
    21.4568  21.4804  21.5586  21.5645  21.6804  21.6842  22.0374  22.0677
    22.1981  22.2153

          k = 0.0556 0.2778 0.1663 ( 11366 PWs)   bands (ev):

   -66.8301 -66.7780 -66.7589 -66.7419 -66.7407 -66.7321 -66.7290 -66.7264
   -66.7250 -66.7247 -66.7224 -66.7205 -66.7188 -66.7117 -66.6958 -66.6538
   -33.1163 -33.1050 -33.1040 -33.0987 -33.0909 -33.0731 -32.9896 -32.9883
   -32.9860 -32.9745 -32.9725 -32.9708 -32.9483 -32.9455 -32.9204 -32.8959
   -32.8543 -32.8477 -32.8123 -32.8100 -32.8090 -32.8067 -32.7882 -32.7782
   -32.7778 -32.7723 -32.7644 -32.7545 -32.7522 -32.7384 -32.7321 -32.7150
   -32.7124 -32.6985 -32.6899 -32.6783 -32.6618 -32.6447 -32.6436 -32.6370
   -32.6137 -32.5973 -32.5966 -32.5916 -32.5855 -32.5846 -32.5684 -32.5678
    11.9606  14.0905  14.8714  15.3319  15.5243  15.5785  15.7131  15.7370
    15.7656  15.8050  15.9392  15.9495  15.9814  16.2196  16.3465  16.8618
    16.9431  16.9720  17.2088  17.2833  17.2962  17.3134  17.3553  17.4058
    17.4486  17.4652  17.5754  17.6539  17.7512  17.8134  17.8159  18.1566
    18.3181  18.4100  18.4345  18.4564  18.4902  18.5306  18.5537  18.7468
    18.7949  18.9414  18.9818  19.1367  19.1835  19.2622  19.2827  19.2886
    19.3720  19.4701  19.4940  19.5437  19.5756  19.7034  19.7239  20.0482
    20.1833  20.2188  20.2508  20.2939  20.3102  20.3441  20.3808  20.4285
    20.5928  20.6060  20.6075  20.6721  20.6773  20.6977  20.6991  20.7102
    20.7644  20.8714  20.8903  20.9069  20.9190  20.9432  20.9944  21.0821
    21.2185  21.4255  21.4795  21.5641  21.6939  22.1992  22.2191  22.7834
    22.8522  22.9913

          k = 0.0556 0.2778 0.2771 ( 11354 PWs)   bands (ev):

   -66.8239 -66.7747 -66.7744 -66.7486 -66.7404 -66.7312 -66.7309 -66.7260
   -66.7244 -66.7242 -66.7238 -66.7208 -66.7127 -66.6976 -66.6973 -66.6584
   -33.1100 -33.0899 -33.0893 -33.0797 -33.0790 -33.0392 -33.0055 -33.0055
   -33.0022 -33.0016 -32.9923 -32.9892 -32.9668 -32.9367 -32.8956 -32.8554
   -32.8529 -32.8522 -32.8417 -32.8414 -32.8076 -32.7965 -32.7932 -32.7866
   -32.7851 -32.7730 -32.7718 -32.7643 -32.7629 -32.7581 -32.7186 -32.6912
   -32.6825 -32.6821 -32.6758 -32.6725 -32.6693 -32.6452 -32.6387 -32.6179
   -32.6171 -32.6047 -32.6043 -32.5965 -32.5961 -32.5960 -32.5654 -32.5646
    12.2210  14.2561  14.2648  15.1721  15.6472  15.7764  15.7779  15.8985
    15.9007  15.9264  16.0383  16.0818  16.0828  16.3777  16.3877  16.7978
    16.8576  17.0479  17.0495  17.2653  17.3379  17.3562  17.3726  17.4008
    17.4166  17.4786  17.5023  17.6775  17.7023  17.8013  17.8427  18.2121
    18.2123  18.3161  18.3347  18.3363  18.3524  18.3588  18.4130  18.5204
    18.7658  18.7771  18.8283  18.8410  18.9896  19.0424  19.0462  19.1209
    19.5534  19.5546  19.6139  19.6536  19.6977  19.7072  19.9159  20.0028
    20.0079  20.1699  20.2544  20.2677  20.2819  20.3007  20.3156  20.3700
    20.4077  20.5628  20.5644  20.5723  20.6730  20.6828  20.7165  20.7686
    20.7805  20.7841  20.8329  20.8481  20.8592  20.9647  20.9702  21.1432
    21.1454  21.1842  21.5313  21.7225  21.7393  22.4315  22.8441  22.8488
    23.4477  23.4551

          k = 0.0556 0.2778 0.3879 ( 11361 PWs)   bands (ev):

   -66.8147 -66.7896 -66.7696 -66.7562 -66.7384 -66.7336 -66.7294 -66.7258
   -66.7254 -66.7245 -66.7233 -66.7215 -66.7075 -66.6999 -66.6849 -66.6652
   -33.0943 -33.0685 -33.0684 -33.0625 -33.0544 -33.0400 -33.0219 -33.0161
   -33.0149 -33.0139 -33.0110 -32.9986 -32.9946 -32.9193 -32.9026 -32.8710
   -32.8677 -32.8440 -32.8326 -32.8079 -32.8062 -32.8057 -32.8050 -32.8008
   -32.7993 -32.7920 -32.7771 -32.7627 -32.7615 -32.7360 -32.7137 -32.7067
   -32.6885 -32.6680 -32.6634 -32.6551 -32.6534 -32.6487 -32.6288 -32.6168
   -32.6161 -32.6142 -32.6113 -32.6038 -32.5951 -32.5951 -32.5682 -32.5680
    12.5999  13.6451  14.4948  14.9772  15.7670  15.8209  16.0147  16.0499
    16.0903  16.1453  16.1500  16.1688  16.2672  16.3520  16.3903  16.6627
    16.6650  16.7573  17.2412  17.2518  17.2852  17.2985  17.3291  17.4725
    17.4894  17.5275  17.6110  17.6132  17.8661  17.9480  17.9618  17.9792
    18.0907  18.1841  18.1980  18.2561  18.2701  18.2939  18.3762  18.4020
    18.4161  18.4832  18.4929  18.5069  18.6326  18.7008  19.3203  19.3382
    19.6919  19.7078  19.7697  19.8004  19.8030  19.8089  19.8128  19.9125
    20.0170  20.0625  20.1313  20.1706  20.1928  20.3149  20.3377  20.3649
    20.4615  20.4803  20.4974  20.5023  20.6074  20.6795  20.6877  20.7016
    20.7220  20.7906  20.7994  20.8224  20.8282  20.9035  20.9213  20.9887
    21.3165  21.3748  21.5198  21.6746  21.9913  22.5726  22.7182  23.2692
    23.5231  24.1485

          k = 0.0556 0.2778-0.4988 ( 11368 PWs)   bands (ev):

   -66.8033 -66.8030 -66.7635 -66.7632 -66.7363 -66.7359 -66.7278 -66.7275
   -66.7250 -66.7246 -66.7226 -66.7222 -66.7034 -66.7031 -66.6743 -66.6739
   -33.0706 -33.0705 -33.0431 -33.0429 -33.0428 -33.0427 -33.0426 -33.0426
   -33.0250 -33.0249 -33.0154 -33.0153 -32.9522 -32.9521 -32.8974 -32.8971
   -32.8372 -32.8371 -32.8262 -32.8260 -32.8213 -32.8209 -32.7974 -32.7972
   -32.7903 -32.7901 -32.7627 -32.7624 -32.7591 -32.7591 -32.7007 -32.7007
   -32.6969 -32.6965 -32.6371 -32.6367 -32.6334 -32.6331 -32.6313 -32.6309
   -32.6308 -32.6307 -32.6149 -32.6149 -32.5785 -32.5784 -32.5783 -32.5783
    13.0820  13.0824  14.7443  14.7447  15.8285  15.8288  16.1138  16.1140
    16.2409  16.2411  16.3018  16.3022  16.3650  16.3654  16.4279  16.4283
    16.4946  16.4949  17.2512  17.2518  17.2778  17.2782  17.5495  17.5499
    17.5676  17.5681  17.5819  17.5822  17.7747  17.7748  18.1530  18.1533
    18.1720  18.1722  18.1829  18.1830  18.2168  18.2170  18.2192  18.2195
    18.3769  18.3771  18.3875  18.3877  18.4450  18.4454  19.5362  19.5364
    19.6660  19.6661  19.7256  19.7259  19.8946  19.8951  19.9805  19.9806
    19.9976  19.9977  20.0294  20.0294  20.1807  20.1809  20.4183  20.4185
    20.4315  20.4317  20.5617  20.5620  20.6067  20.6068  20.6932  20.6936
    20.7191  20.7194  20.7423  20.7426  20.8345  20.8347  20.9610  20.9611
    21.4450  21.4452  21.5565  21.5566  22.2812  22.2815  23.0119  23.0121
    24.2165  24.2169

          k = 0.0556 0.3889 0.0554 ( 11360 PWs)   bands (ev):

   -66.8235 -66.7961 -66.7408 -66.7404 -66.7356 -66.7352 -66.7264 -66.7262
   -66.7257 -66.7255 -66.7252 -66.7244 -66.7227 -66.7218 -66.6811 -66.6591
   -33.0858 -33.0846 -33.0845 -33.0838 -33.0646 -33.0640 -33.0155 -33.0131
   -33.0086 -33.0082 -32.9803 -32.9800 -32.9738 -32.9586 -32.9346 -32.9213
   -32.8824 -32.8692 -32.8232 -32.8112 -32.7874 -32.7811 -32.7761 -32.7741
   -32.7684 -32.7664 -32.7473 -32.7462 -32.7454 -32.7443 -32.7281 -32.6826
   -32.6784 -32.6711 -32.6707 -32.6471 -32.6446 -32.6424 -32.6419 -32.6383
   -32.6146 -32.6144 -32.6143 -32.6141 -32.5985 -32.5939 -32.5934 -32.5919
    12.2256  13.3356  15.5137  15.5179  15.5211  15.5233  15.7318  15.7340
    15.9065  15.9151  15.9923  16.0089  16.0269  16.0782  16.2875  16.6196
    16.6446  16.6525  17.1428  17.1601  17.2012  17.2099  17.6042  17.6244
    17.6982  17.7184  17.7817  17.7873  17.9808  17.9812  18.1509  18.1621
    18.1804  18.2014  18.2612  18.2787  18.5465  18.5466  18.5571  18.5840
    18.5920  18.6117  18.7217  18.7330  18.9197  19.0278  19.0317  19.2638
    19.3783  19.6970  19.7048  19.7244  19.7331  19.9422  19.9553  20.0451
    20.0605  20.0615  20.1435  20.1596  20.4497  20.4587  20.5447  20.5698
    20.5724  20.6370  20.6533  20.6697  20.6755  20.6875  20.7651  20.7747
    20.7869  20.7893  20.9133  21.0064  21.0079  21.1911  21.1996  21.2752
    21.4505  21.4534  21.4777  21.4986  21.5608  21.5696  22.1395  22.1669
    22.2599  22.2810

          k = 0.0556 0.3889 0.1663 ( 11347 PWs)   bands (ev):

   -66.8205 -66.7939 -66.7553 -66.7459 -66.7397 -66.7347 -66.7275 -66.7258
   -66.7250 -66.7240 -66.7237 -66.7214 -66.7161 -66.7126 -66.6823 -66.6612
   -33.0944 -33.0802 -33.0783 -33.0766 -33.0606 -33.0354 -33.0283 -33.0182
   -33.0122 -33.0103 -32.9915 -32.9846 -32.9834 -32.9445 -32.9302 -32.8976
   -32.8790 -32.8410 -32.8360 -32.8042 -32.8037 -32.7956 -32.7873 -32.7865
   -32.7777 -32.7773 -32.7612 -32.7536 -32.7530 -32.7254 -32.7156 -32.7021
   -32.6770 -32.6738 -32.6671 -32.6618 -32.6490 -32.6389 -32.6366 -32.6179
   -32.6160 -32.6149 -32.6147 -32.6139 -32.6021 -32.5971 -32.5785 -32.5778
    12.3527  13.4438  15.0293  15.2694  15.6119  15.6244  15.8310  15.9214
    16.0006  16.0114  16.0648  16.0884  16.1324  16.1871  16.3431  16.6514
    16.6539  16.6693  17.1787  17.2216  17.2381  17.2618  17.5248  17.5565
    17.5898  17.6287  17.6425  17.7891  17.8707  18.0061  18.0388  18.1004
    18.2108  18.2195  18.2799  18.2877  18.4191  18.4200  18.4658  18.5020
    18.5039  18.5357  18.6243  18.7521  18.8151  18.8155  19.0973  19.4804
    19.5170  19.6739  19.6749  19.7369  19.7405  19.7527  19.9188  20.0015
    20.0148  20.0865  20.1587  20.1877  20.3583  20.4052  20.4280  20.5113
    20.5454  20.5508  20.5607  20.6689  20.6746  20.6812  20.6844  20.7466
    20.7580  20.7948  20.8223  20.9547  20.9631  21.0423  21.0956  21.1961
    21.2053  21.2081  21.4010  21.5978  21.6822  22.0372  22.3800  22.7133
    23.0311  23.1862

          k = 0.0556 0.3889 0.2771 ( 11362 PWs)   bands (ev):

   -66.8147 -66.7895 -66.7697 -66.7563 -66.7384 -66.7335 -66.7296 -66.7258
   -66.7253 -66.7244 -66.7235 -66.7215 -66.7075 -66.7000 -66.6848 -66.6652
   -33.0941 -33.0691 -33.0679 -33.0631 -33.0537 -33.0397 -33.0220 -33.0156
   -33.0151 -33.0138 -33.0109 -32.9985 -32.9943 -32.9194 -32.9022 -32.8710
   -32.8681 -32.8437 -32.8327 -32.8078 -32.8066 -32.8059 -32.8045 -32.8006
   -32.8000 -32.7935 -32.7761 -32.7640 -32.7623 -32.7353 -32.7138 -32.7067
   -32.6886 -32.6676 -32.6631 -32.6549 -32.6531 -32.6487 -32.6288 -32.6165
   -32.6163 -32.6138 -32.6112 -32.6040 -32.5958 -32.5946 -32.5682 -32.5682
    12.6018  13.6516  14.4886  14.9758  15.7677  15.8205  16.0133  16.0528
    16.0894  16.1456  16.1535  16.1722  16.2665  16.3464  16.3989  16.6660
    16.6684  16.7576  17.2477  17.2495  17.2910  17.3118  17.3415  17.4722
    17.4755  17.5154  17.6087  17.6136  17.8575  17.9478  17.9540  17.9799
    18.0909  18.1818  18.1983  18.2517  18.2707  18.2931  18.3827  18.3992
    18.4246  18.4804  18.4817  18.4957  18.6312  18.7031  19.3182  19.3348
    19.6968  19.7112  19.7651  19.8030  19.8062  19.8118  19.8183  19.9041
    20.0155  20.0685  20.1429  20.1837  20.1961  20.3180  20.3269  20.3529
    20.4586  20.4767  20.4941  20.4985  20.6012  20.6783  20.6928  20.6999
    20.7194  20.7808  20.7993  20.8181  20.8300  20.9040  20.9225  20.9919
    21.3151  21.3767  21.5196  21.6754  21.9926  22.5764  22.7202  23.2750
    23.5195  24.1153

          k = 0.0556 0.3889 0.3879 ( 11359 PWs)   bands (ev):

   -66.8063 -66.7834 -66.7831 -66.7662 -66.7366 -66.7320 -66.7317 -66.7278
   -66.7247 -66.7237 -66.7235 -66.7220 -66.7000 -66.6888 -66.6885 -66.6712
   -33.0846 -33.0540 -33.0536 -33.0453 -33.0448 -33.0427 -33.0427 -33.0278
   -33.0271 -33.0249 -33.0240 -33.0086 -32.9543 -32.9037 -32.8595 -32.8591
   -32.8559 -32.8555 -32.8415 -32.8361 -32.8272 -32.8125 -32.8114 -32.8103
   -32.7960 -32.7764 -32.7755 -32.7700 -32.7696 -32.7690 -32.7591 -32.6995
   -32.6900 -32.6642 -32.6638 -32.6459 -32.6396 -32.6364 -32.6249 -32.6219
   -32.6204 -32.6201 -32.6147 -32.6146 -32.5786 -32.5784 -32.5648 -32.5646
    12.9619  13.9361  13.9405  14.6393  15.9414  16.0843  16.0858  16.2306
    16.2527  16.2551  16.2655  16.2838  16.3914  16.3959  16.4663  16.5810
    16.6386  16.9732  16.9746  17.2894  17.3059  17.3697  17.3854  17.3955
    17.3962  17.4043  17.4883  17.6091  17.6923  17.8028  17.9129  17.9927
    17.9930  18.0825  18.1438  18.1585  18.1704  18.1786  18.2053  18.2115
    18.3392  18.3400  18.3450  18.4253  18.4645  18.9837  18.9855  19.5565
    19.6559  19.7327  19.7939  19.7983  19.9130  19.9136  19.9347  19.9441
    20.0614  20.0641  20.0963  20.1803  20.2183  20.2252  20.2264  20.2361
    20.2453  20.4173  20.4210  20.4362  20.5235  20.6158  20.6209  20.6460
    20.6954  20.7260  20.7584  20.7597  20.7963  20.8508  20.8530  20.8763
    21.5006  21.5018  21.5795  21.6856  22.3670  23.1144  23.1509  23.1534
    23.8820  23.8856

          k = 0.0556 0.3889-0.4988 ( 11368 PWs)   bands (ev):

   -66.7959 -66.7955 -66.7755 -66.7751 -66.7345 -66.7341 -66.7301 -66.7297
   -66.7243 -66.7239 -66.7229 -66.7226 -66.6939 -66.6935 -66.6792 -66.6789
   -33.0672 -33.0671 -33.0385 -33.0383 -33.0382 -33.0381 -33.0381 -33.0378
   -33.0360 -33.0357 -33.0263 -33.0262 -32.9060 -32.9060 -32.8835 -32.8831
   -32.8447 -32.8443 -32.8302 -32.8301 -32.8141 -32.8139 -32.8072 -32.8071
   -32.8027 -32.8027 -32.7881 -32.7880 -32.7742 -32.7741 -32.7337 -32.7337
   -32.6759 -32.6755 -32.6428 -32.6424 -32.6292 -32.6289 -32.6285 -32.6283
   -32.6269 -32.6267 -32.6170 -32.6168 -32.5683 -32.5683 -32.5681 -32.5680
    13.4151  13.4156  14.2819  14.2823  16.0601  16.0604  16.3220  16.3222
    16.3357  16.3360  16.3505  16.3508  16.3661  16.3665  16.4913  16.4916
    16.7075  16.7079  17.2714  17.2719  17.3152  17.3153  17.3162  17.3165
    17.3846  17.3850  17.4430  17.4433  17.8209  17.8210  17.9447  17.9448
    18.0302  18.0303  18.0326  18.0328  18.0490  18.0492  18.0955  18.0957
    18.3566  18.3568  18.3780  18.3784  18.6481  18.6483  19.3065  19.3066
    19.7292  19.7294  19.8054  19.8055  19.9837  19.9839  20.0300  20.0304
    20.0830  20.0832  20.0858  20.0859  20.0894  20.0895  20.3233  20.3234
    20.3307  20.3309  20.3572  20.3574  20.4977  20.4980  20.5490  20.5494
    20.7201  20.7204  20.7714  20.7717  20.7836  20.7838  20.8641  20.8643
    21.5724  21.5725  21.6270  21.6271  22.7617  22.7620  23.5146  23.5148
    23.7440  23.7443

          k = 0.0556-0.5000 0.0554 ( 11358 PWs)   bands (ev):

   -66.8109 -66.8108 -66.7384 -66.7382 -66.7379 -66.7377 -66.7260 -66.7259
   -66.7256 -66.7253 -66.7243 -66.7242 -66.7232 -66.7231 -66.6691 -66.6690
   -33.0529 -33.0527 -33.0526 -33.0525 -33.0491 -33.0490 -33.0486 -33.0485
   -33.0248 -33.0247 -33.0242 -33.0240 -32.9687 -32.9685 -32.9108 -32.9107
   -32.8976 -32.8974 -32.8053 -32.8052 -32.7967 -32.7965 -32.7725 -32.7725
   -32.7705 -32.7702 -32.7465 -32.7465 -32.7448 -32.7446 -32.6841 -32.6839
   -32.6453 -32.6453 -32.6437 -32.6437 -32.6407 -32.6405 -32.6401 -32.6400
   -32.6208 -32.6207 -32.6154 -32.6151 -32.6149 -32.6149 -32.6129 -32.6128
    12.7348  12.7351  15.5402  15.5404  15.5465  15.5466  15.8416  15.8418
    15.8464  15.8465  16.1782  16.1783  16.3138  16.3141  16.3220  16.3223
    16.3235  16.3239  17.1646  17.1648  17.1740  17.1741  17.8207  17.8209
    17.8396  17.8397  17.9198  17.9199  17.9350  17.9351  18.1347  18.1348
    18.1392  18.1394  18.2928  18.2930  18.3016  18.3017  18.5577  18.5579
    18.5740  18.5740  18.5877  18.5878  18.5906  18.5907  19.0766  19.0770
    19.6879  19.6881  19.8827  19.8830  19.8947  19.8949  19.9574  19.9577
    19.9702  19.9703  20.2874  20.2875  20.4127  20.4128  20.5088  20.5089
    20.5142  20.5143  20.6492  20.6492  20.6614  20.6616  20.6761  20.6763
    21.0442  21.0443  21.0459  21.0461  21.1107  21.1108  21.2575  21.2576
    21.2580  21.2582  21.5035  21.5036  21.5200  21.5201  22.2277  22.2279
    22.2520  22.2522

          k = 0.0556-0.5000 0.1663 ( 11362 PWs)   bands (ev):

   -66.8082 -66.8082 -66.7509 -66.7509 -66.7373 -66.7373 -66.7260 -66.7259
   -66.7252 -66.7251 -66.7226 -66.7226 -66.7141 -66.7141 -66.6707 -66.6707
   -33.0644 -33.0643 -33.0495 -33.0494 -33.0489 -33.0488 -33.0461 -33.0459
   -33.0241 -33.0239 -32.9919 -32.9919 -32.9902 -32.9901 -32.9069 -32.9067
   -32.8711 -32.8710 -32.8161 -32.8160 -32.7962 -32.7960 -32.7919 -32.7917
   -32.7826 -32.7826 -32.7533 -32.7533 -32.7200 -32.7198 -32.7161 -32.7160
   -32.6688 -32.6687 -32.6429 -32.6429 -32.6388 -32.6387 -32.6363 -32.6361
   -32.6234 -32.6233 -32.6148 -32.6146 -32.5955 -32.5955 -32.5939 -32.5938
    12.8541  12.8544  15.1700  15.1702  15.6456  15.6458  15.9409  15.9410
    16.0740  16.0742  16.2382  16.2383  16.3358  16.3360  16.3645  16.3647
    16.3684  16.3687  17.1975  17.1976  17.2217  17.2218  17.7193  17.7195
    17.7424  17.7425  17.7813  17.7814  17.8355  17.8356  18.1640  18.1641
    18.1993  18.1995  18.2691  18.2693  18.3811  18.3813  18.3995  18.3996
    18.4052  18.4053  18.4411  18.4412  18.5202  18.5203  19.2777  19.2779
    19.7707  19.7708  19.7916  19.7919  19.9235  19.9236  19.9702  19.9703
    19.9982  19.9985  20.0085  20.0086  20.3427  20.3429  20.4751  20.4752
    20.4876  20.4877  20.6182  20.6183  20.6682  20.6683  20.7062  20.7063
    20.8146  20.8146  20.9212  20.9214  21.0231  21.0231  21.1086  21.1087
    21.2694  21.2695  21.4316  21.4317  21.8483  21.8485  22.5657  22.5659
    23.1700  23.1702

          k = 0.0556-0.5000 0.2771 ( 11362 PWs)   bands (ev):

   -66.8031 -66.8030 -66.7635 -66.7634 -66.7360 -66.7360 -66.7278 -66.7277
   -66.7248 -66.7247 -66.7225 -66.7225 -66.7034 -66.7033 -66.6740 -66.6740
   -33.0703 -33.0703 -33.0433 -33.0431 -33.0431 -33.0429 -33.0420 -33.0419
   -33.0244 -33.0242 -33.0154 -33.0153 -32.9518 -32.9518 -32.8975 -32.8972
   -32.8380 -32.8379 -32.8255 -32.8254 -32.8213 -32.8211 -32.7985 -32.7985
   -32.7896 -32.7895 -32.7636 -32.7636 -32.7594 -32.7593 -32.7003 -32.7002
   -32.6969 -32.6966 -32.6365 -32.6364 -32.6329 -32.6329 -32.6311 -32.6309
   -32.6309 -32.6307 -32.6150 -32.6148 -32.5788 -32.5788 -32.5780 -32.5779
    13.0862  13.0865  14.7408  14.7410  15.8291  15.8292  16.1135  16.1137
    16.2383  16.2385  16.3082  16.3084  16.3690  16.3692  16.4324  16.4326
    16.4940  16.4943  17.2614  17.2616  17.2868  17.2869  17.5453  17.5454
    17.5660  17.5661  17.5736  17.5737  17.7755  17.7756  18.1417  18.1418
    18.1743  18.1745  18.1813  18.1815  18.2089  18.2091  18.2175  18.2177
    18.3782  18.3783  18.3858  18.3861  18.4424  18.4426  19.5327  19.5329
    19.6633  19.6633  19.7272  19.7275  19.9005  19.9006  19.9896  19.9897
    20.0078  20.0079  20.0333  20.0335  20.1743  20.1745  20.4112  20.4112
    20.4234  20.4235  20.5620  20.5621  20.6053  20.6054  20.6915  20.6916
    20.7140  20.7141  20.7394  20.7396  20.8351  20.8353  20.9626  20.9628
    21.4443  21.4443  21.5578  21.5578  22.2839  22.2841  23.0159  23.0161
    24.2143  24.2146

          k = 0.0556-0.5000 0.3879 ( 11366 PWs)   bands (ev):

   -66.7957 -66.7956 -66.7754 -66.7753 -66.7343 -66.7343 -66.7300 -66.7299
   -66.7241 -66.7241 -66.7228 -66.7227 -66.6938 -66.6938 -66.6790 -66.6790
   -33.0672 -33.0671 -33.0384 -33.0383 -33.0382 -33.0381 -33.0381 -33.0379
   -33.0361 -33.0360 -33.0261 -33.0259 -32.9058 -32.9058 -32.8834 -32.8832
   -32.8446 -32.8444 -32.8296 -32.8295 -32.8146 -32.8146 -32.8074 -32.8073
   -32.8031 -32.8030 -32.7878 -32.7877 -32.7748 -32.7747 -32.7335 -32.7334
   -32.6757 -32.6755 -32.6426 -32.6425 -32.6289 -32.6288 -32.6282 -32.6281
   -32.6270 -32.6268 -32.6171 -32.6169 -32.5683 -32.5682 -32.5680 -32.5680
    13.4174  13.4177  14.2799  14.2801  16.0598  16.0600  16.3210  16.3212
    16.3340  16.3343  16.3530  16.3533  16.3680  16.3682  16.4938  16.4940
    16.7081  16.7082  17.2706  17.2707  17.3196  17.3197  17.3222  17.3223
    17.3827  17.3828  17.4387  17.4388  17.8212  17.8214  17.9384  17.9386
    18.0253  18.0255  18.0348  18.0350  18.0491  18.0492  18.0959  18.0961
    18.3563  18.3565  18.3772  18.3774  18.6490  18.6491  19.3054  19.3054
    19.7305  19.7308  19.8039  19.8041  19.9809  19.9811  20.0322  20.0323
    20.0846  20.0847  20.0903  20.0904  20.0945  20.0945  20.3193  20.3193
    20.3263  20.3263  20.3583  20.3585  20.4986  20.4987  20.5454  20.5455
    20.7196  20.7197  20.7703  20.7704  20.7839  20.7841  20.8650  20.8651
    21.5719  21.5719  21.6277  21.6277  22.7631  22.7633  23.5165  23.5167
    23.7428  23.7431

          k = 0.0556-0.5000-0.4988 ( 11372 PWs)   bands (ev):

   -66.7866 -66.7864 -66.7862 -66.7860 -66.7324 -66.7322 -66.7320 -66.7319
   -66.7237 -66.7235 -66.7233 -66.7231 -66.6860 -66.6858 -66.6856 -66.6854
   -33.0561 -33.0561 -33.0560 -33.0560 -33.0366 -33.0364 -33.0364 -33.0362
   -33.0300 -33.0299 -33.0298 -33.0297 -32.8661 -32.8656 -32.8654 -32.8654
   -32.8572 -32.8572 -32.8569 -32.8567 -32.8260 -32.8259 -32.8259 -32.8259
   -32.7830 -32.7829 -32.7829 -32.7829 -32.7684 -32.7683 -32.7680 -32.7679
   -32.6580 -32.6576 -32.6574 -32.6573 -32.6260 -32.6260 -32.6259 -32.6257
   -32.6219 -32.6218 -32.6217 -32.6215 -32.5647 -32.5647 -32.5646 -32.5646
    13.8255  13.8259  13.8260  13.8262  16.2664  16.2665  16.2666  16.2669
    16.3669  16.3673  16.3673  16.3675  16.4740  16.4741  16.4741  16.4744
    16.9760  16.9763  16.9766  16.9767  17.3115  17.3116  17.3117  17.3118
    17.3594  17.3594  17.3595  17.3596  17.9141  17.9144  17.9144  17.9145
    17.9189  17.9189  17.9190  17.9192  18.0074  18.0074  18.0075  18.0077
    18.3463  18.3464  18.3465  18.3470  18.9615  18.9616  18.9619  18.9621
    19.8195  19.8195  19.8196  19.8201  20.0754  20.0757  20.0758  20.0759
    20.1117  20.1118  20.1119  20.1119  20.2073  20.2074  20.2074  20.2075
    20.2097  20.2097  20.2099  20.2100  20.4755  20.4756  20.4758  20.4761
    20.7489  20.7492  20.7494  20.7495  20.8066  20.8069  20.8071  20.8072
    21.6336  21.6337  21.6338  21.6339  23.2554  23.2558  23.2558  23.2560
    24.0251  24.0253

          k = 0.1667 0.1667 0.0554 ( 11353 PWs)   bands (ev):

   -66.8367 -66.7613 -66.7610 -66.7435 -66.7353 -66.7301 -66.7299 -66.7271
   -66.7258 -66.7255 -66.7218 -66.7211 -66.7200 -66.7109 -66.7107 -66.6489
   -33.1279 -33.1220 -33.1219 -33.1139 -33.1139 -33.1016 -32.9808 -32.9631
   -32.9560 -32.9505 -32.9503 -32.9430 -32.9394 -32.9361 -32.9111 -32.8658
   -32.8505 -32.8500 -32.8166 -32.8162 -32.8160 -32.7851 -32.7745 -32.7740
   -32.7700 -32.7654 -32.7651 -32.7545 -32.7541 -32.7519 -32.7487 -32.7419
   -32.7305 -32.7173 -32.7119 -32.7116 -32.6864 -32.6740 -32.6738 -32.6064
   -32.5938 -32.5841 -32.5841 -32.5763 -32.5763 -32.5748 -32.5660 -32.5636
    11.6927  14.7502  14.7503  15.3810  15.4122  15.5399  15.5400  15.6163
    15.6163  15.6270  15.8188  15.8294  15.9013  16.1960  16.1960  16.9809
    17.0945  17.2703  17.3190  17.3191  17.3215  17.3215  17.3438  17.3585
    17.3586  17.3891  17.4679  17.5848  17.6118  17.6244  17.9059  18.2916
    18.2919  18.5023  18.5634  18.5635  18.5851  18.6261  18.7701  18.8044
    19.1002  19.1006  19.1818  19.1818  19.2301  19.2873  19.3910  19.4808
    19.4808  19.4972  19.4974  19.6801  19.6801  19.8490  19.9381  19.9385
    20.1883  20.2992  20.2993  20.3018  20.3566  20.3567  20.3626  20.3789
    20.4029  20.5692  20.6210  20.6541  20.6542  20.6640  20.6640  20.6687
    20.6695  20.7748  20.7751  20.9953  21.1013  21.1016  21.1283  21.1283
    21.2337  21.4726  21.4978  21.6291  21.7034  22.0304  22.3753  22.3754
    22.5811  22.7366

          k = 0.1667 0.1667 0.1663 ( 11347 PWs)   bands (ev):

   -66.8334 -66.7602 -66.7601 -66.7597 -66.7349 -66.7348 -66.7344 -66.7228
   -66.7219 -66.7218 -66.7214 -66.7193 -66.7114 -66.7112 -66.7108 -66.6513
   -33.1198 -33.1198 -33.1191 -33.0959 -33.0959 -33.0954 -32.9766 -32.9763
   -32.9740 -32.9678 -32.9677 -32.9676 -32.9203 -32.9147 -32.9144 -32.8736
   -32.8731 -32.8728 -32.8223 -32.8223 -32.8213 -32.7787 -32.7770 -32.7767
   -32.7681 -32.7676 -32.7504 -32.7502 -32.7494 -32.7463 -32.7445 -32.7442
   -32.7137 -32.7136 -32.7130 -32.7050 -32.6581 -32.6581 -32.6574 -32.6277
   -32.5975 -32.5969 -32.5969 -32.5739 -32.5734 -32.5734 -32.5700 -32.5695
    11.8270  14.8173  14.8292  14.8293  15.4874  15.4875  15.4875  15.7221
    15.7236  15.7237  15.8829  15.8895  16.2358  16.2488  16.2488  16.8975
    17.1990  17.1994  17.2912  17.2936  17.2937  17.3241  17.3438  17.3438
    17.4339  17.4532  17.4533  17.4743  17.5479  17.5590  18.1370  18.1392
    18.1394  18.4903  18.4908  18.4908  18.4987  18.5021  18.9220  18.9222
    18.9236  18.9297  19.1111  19.1111  19.1233  19.2916  19.2917  19.2918
    19.5088  19.5089  19.5254  19.5686  19.5687  19.5790  20.1385  20.1388
    20.1438  20.2082  20.2082  20.2236  20.3190  20.3349  20.3590  20.3591
    20.3759  20.6168  20.6170  20.6240  20.6455  20.6476  20.6542  20.6573
    20.7210  20.7710  20.7710  20.7715  21.1079  21.1250  21.1250  21.3299
    21.3301  21.3387  21.3562  21.3611  22.0775  22.0776  22.0807  22.8135
    22.8501  22.8501

          k = 0.1667 0.1667 0.2771 ( 11377 PWs)   bands (ev):

   -66.8270 -66.7765 -66.7576 -66.7573 -66.7401 -66.7398 -66.7333 -66.7248
   -66.7210 -66.7191 -66.7187 -66.7184 -66.7118 -66.7115 -66.6968 -66.6561
   -33.1079 -33.1079 -33.1016 -33.0831 -33.0689 -33.0689 -32.9987 -32.9963
   -32.9962 -32.9879 -32.9851 -32.9617 -32.9609 -32.9099 -32.9096 -32.8974
   -32.8915 -32.8565 -32.8301 -32.8231 -32.8230 -32.7947 -32.7887 -32.7884
   -32.7817 -32.7760 -32.7537 -32.7364 -32.7360 -32.7227 -32.7200 -32.7198
   -32.7162 -32.7160 -32.6797 -32.6795 -32.6592 -32.6361 -32.6361 -32.6310
   -32.6142 -32.6142 -32.6051 -32.5902 -32.5815 -32.5762 -32.5762 -32.5705
    12.0913  14.1766  14.9691  14.9692  15.4433  15.4433  15.6925  15.8605
    15.8606  15.9031  16.0009  16.0080  16.3045  16.3045  16.3961  16.8146
    16.9716  17.0321  17.1695  17.2882  17.3042  17.3043  17.3758  17.4023
    17.4228  17.4228  17.5872  17.5986  17.5986  17.7786  17.9964  17.9966
    18.2817  18.3123  18.3124  18.4027  18.4215  18.4679  18.6677  18.6679
    18.6775  18.6776  18.9180  19.0472  19.0474  19.0782  19.0797  19.1268
    19.4113  19.5131  19.5131  19.6570  19.6570  19.8317  19.9122  20.0984
    20.0984  20.2023  20.2875  20.3000  20.3001  20.3908  20.3939  20.3976
    20.4108  20.4111  20.6020  20.6043  20.6293  20.6524  20.6666  20.6667
    20.6679  20.8765  20.9391  20.9392  20.9669  21.0446  21.1160  21.1275
    21.1275  21.4022  21.4128  21.4130  21.8139  21.8141  22.7081  23.0470
    23.0470  23.4691

          k = 0.1667 0.1667 0.3879 ( 11368 PWs)   bands (ev):

   -66.8176 -66.7918 -66.7542 -66.7539 -66.7451 -66.7448 -66.7315 -66.7270
   -66.7205 -66.7193 -66.7162 -66.7159 -66.7127 -66.7125 -66.6836 -66.6632
   -33.0876 -33.0876 -33.0762 -33.0657 -33.0343 -33.0343 -33.0285 -33.0284
   -33.0218 -33.0049 -32.9955 -32.9946 -32.9520 -32.9519 -32.9420 -32.8888
   -32.8717 -32.8663 -32.8186 -32.8184 -32.8164 -32.8130 -32.8004 -32.8001
   -32.7849 -32.7766 -32.7629 -32.7293 -32.7289 -32.7193 -32.7190 -32.6973
   -32.6895 -32.6894 -32.6811 -32.6554 -32.6487 -32.6358 -32.6357 -32.6175
   -32.6148 -32.6147 -32.6141 -32.6080 -32.5990 -32.5838 -32.5838 -32.5772
    12.4768  13.5459  15.1344  15.1344  15.3829  15.3829  15.9804  16.0172
    16.0173  16.1491  16.1513  16.1816  16.2840  16.2841  16.4012  16.6665
    16.6721  16.6944  17.1740  17.2445  17.2876  17.3113  17.4417  17.4418
    17.5529  17.5530  17.7617  17.7618  17.8674  17.8786  17.8788  18.0429
    18.1866  18.1866  18.2668  18.2669  18.3485  18.3589  18.3635  18.3960
    18.3961  18.4388  18.5899  18.5901  18.6296  18.6423  19.2596  19.3822
    19.6092  19.6803  19.7558  19.7559  19.7620  19.7620  19.9811  19.9812
    20.0350  20.0382  20.1336  20.1764  20.1765  20.3688  20.4368  20.4846
    20.5362  20.5507  20.6360  20.6488  20.6505  20.6508  20.6949  20.7168
    20.7391  20.7391  20.8038  20.8572  21.1204  21.1204  21.1427  21.1697
    21.1698  21.3743  21.3843  21.3844  21.5577  21.5578  23.2776  23.2777
    23.3995  23.5688

          k = 0.1667 0.1667-0.4988 ( 11364 PWs)   bands (ev):

   -66.8059 -66.8056 -66.7502 -66.7497 -66.7495 -66.7495 -66.7295 -66.7292
   -66.7200 -66.7196 -66.7145 -66.7140 -66.7138 -66.7138 -66.6726 -66.6722
   -33.0603 -33.0602 -33.0602 -33.0601 -33.0449 -33.0446 -33.0437 -33.0433
   -32.9979 -32.9978 -32.9948 -32.9946 -32.9944 -32.9944 -32.9177 -32.9174
   -32.8435 -32.8434 -32.8411 -32.8409 -32.8106 -32.8104 -32.8104 -32.8100
   -32.7715 -32.7712 -32.7400 -32.7400 -32.7237 -32.7234 -32.7234 -32.7231
   -32.6612 -32.6611 -32.6608 -32.6608 -32.6446 -32.6442 -32.6345 -32.6342
   -32.6220 -32.6215 -32.5969 -32.5969 -32.5969 -32.5968 -32.5900 -32.5899
    12.9686  12.9691  15.2813  15.2814  15.2817  15.2818  16.1719  16.1720
    16.1722  16.1722  16.3004  16.3009  16.3261  16.3265  16.4053  16.4056
    16.4238  16.4242  17.2025  17.2031  17.2677  17.2682  17.6987  17.6990
    17.6992  17.6994  17.7185  17.7187  17.7189  17.7189  18.1683  18.1684
    18.1686  18.1686  18.2200  18.2204  18.2787  18.2789  18.2789  18.2790
    18.3368  18.3370  18.3384  18.3388  18.4040  18.4044  19.4605  19.4607
    19.6927  19.6928  19.8297  19.8302  19.8648  19.8649  19.8649  19.8651
    19.9917  19.9917  19.9918  19.9919  20.4552  20.4554  20.4656  20.4658
    20.4920  20.4923  20.5905  20.5909  20.6429  20.6433  20.7507  20.7510
    20.7576  20.7577  20.7578  20.7580  21.2780  21.2780  21.2781  21.2782
    21.2833  21.2836  21.3203  21.3205  21.3205  21.3206  23.4777  23.4777
    23.4779  23.4779

          k = 0.1667 0.2778 0.0554 ( 11363 PWs)   bands (ev):

   -66.8301 -66.7779 -66.7587 -66.7421 -66.7404 -66.7324 -66.7290 -66.7266
   -66.7252 -66.7248 -66.7224 -66.7205 -66.7185 -66.7114 -66.6958 -66.6538
   -33.1155 -33.1049 -33.1046 -33.0986 -33.0915 -33.0725 -32.9891 -32.9870
   -32.9859 -32.9745 -32.9726 -32.9702 -32.9508 -32.9454 -32.9196 -32.8958
   -32.8542 -32.8498 -32.8125 -32.8121 -32.8080 -32.8062 -32.7869 -32.7800
   -32.7781 -32.7705 -32.7644 -32.7527 -32.7510 -32.7386 -32.7339 -32.7146
   -32.7140 -32.6983 -32.6893 -32.6795 -32.6612 -32.6440 -32.6438 -32.6366
   -32.6142 -32.5968 -32.5964 -32.5915 -32.5862 -32.5839 -32.5691 -32.5674
    11.9613  14.0911  14.8833  15.3341  15.5131  15.5781  15.7136  15.7370
    15.7654  15.8050  15.9346  15.9550  15.9704  16.2312  16.3468  16.8644
    16.9472  16.9725  17.2081  17.2836  17.2971  17.3138  17.3594  17.4254
    17.4282  17.4846  17.5729  17.6334  17.7487  17.8115  17.8133  18.1583
    18.3055  18.4207  18.4296  18.4456  18.4899  18.5413  18.5680  18.7577
    18.7782  18.9364  18.9698  19.1234  19.1837  19.2625  19.2956  19.2975
    19.3637  19.4772  19.4931  19.5458  19.5766  19.7018  19.7308  20.0639
    20.1887  20.2033  20.2448  20.2782  20.3280  20.3447  20.3825  20.4248
    20.5919  20.6106  20.6122  20.6647  20.6699  20.6944  20.6951  20.7191
    20.7622  20.8680  20.8907  20.9067  20.9070  20.9410  20.9931  21.0995
    21.2079  21.4260  21.4811  21.5448  21.6973  22.1735  22.2137  22.7709
    22.8896  23.0149

          k = 0.1667 0.2778 0.1663 ( 11371 PWs)   bands (ev):

   -66.8270 -66.7762 -66.7578 -66.7574 -66.7400 -66.7397 -66.7335 -66.7248
   -66.7212 -66.7192 -66.7186 -66.7182 -66.7119 -66.7115 -66.6966 -66.6560
   -33.1077 -33.1070 -33.1023 -33.0837 -33.0687 -33.0682 -32.9986 -32.9958
   -32.9954 -32.9864 -32.9848 -32.9626 -32.9618 -32.9095 -32.9093 -32.8973
   -32.8914 -32.8576 -32.8303 -32.8241 -32.8226 -32.7932 -32.7905 -32.7885
   -32.7824 -32.7760 -32.7524 -32.7379 -32.7361 -32.7222 -32.7196 -32.7191
   -32.7170 -32.7160 -32.6800 -32.6796 -32.6592 -32.6359 -32.6354 -32.6316
   -32.6146 -32.6140 -32.6045 -32.5896 -32.5819 -32.5767 -32.5760 -32.5705
    12.0927  14.1869  14.9594  14.9702  15.4428  15.4442  15.6938  15.8592
    15.8602  15.9059  16.0024  16.0085  16.2945  16.3051  16.4085  16.8180
    16.9727  17.0398  17.1736  17.3028  17.3052  17.3058  17.3926  17.4040
    17.4102  17.4232  17.5766  17.5806  17.5994  17.7684  17.9942  17.9944
    18.2826  18.3083  18.3172  18.3954  18.4141  18.4758  18.6610  18.6708
    18.6768  18.6880  18.9054  19.0467  19.0608  19.0628  19.0765  19.1195
    19.4161  19.5162  19.5202  19.6623  19.6672  19.8205  19.9060  20.0981
    20.1116  20.2136  20.2745  20.3025  20.3173  20.3788  20.3885  20.3888
    20.4105  20.4121  20.6048  20.6061  20.6224  20.6464  20.6604  20.6606
    20.6704  20.8877  20.9373  20.9400  20.9673  21.0352  21.1102  21.1134
    21.1279  21.4059  21.4114  21.4191  21.8151  21.8166  22.7044  23.0160
    23.0492  23.4647

          k = 0.1667 0.2778 0.2771 ( 11369 PWs)   bands (ev):

   -66.8208 -66.7731 -66.7728 -66.7551 -66.7476 -66.7384 -66.7381 -66.7276
   -66.7184 -66.7183 -66.7180 -66.7128 -66.7120 -66.6983 -66.6980 -66.6605
   -33.1013 -33.0913 -33.0906 -33.0607 -33.0602 -33.0376 -33.0112 -33.0092
   -33.0091 -33.0089 -32.9947 -32.9713 -32.9582 -32.9339 -32.9028 -32.8710
   -32.8683 -32.8678 -32.8576 -32.8571 -32.8344 -32.8097 -32.8080 -32.8067
   -32.7611 -32.7510 -32.7501 -32.7437 -32.7424 -32.7211 -32.7208 -32.7057
   -32.6954 -32.6930 -32.6830 -32.6828 -32.6610 -32.6354 -32.6241 -32.6167
   -32.6163 -32.6134 -32.6128 -32.5914 -32.5909 -32.5889 -32.5730 -32.5706
    12.3508  14.3573  14.3658  15.1263  15.2883  15.6567  15.6571  16.0196
    16.0364  16.0389  16.1079  16.1331  16.4092  16.4635  16.4735  16.7871
    16.9703  17.0250  17.0256  17.2310  17.2522  17.3610  17.3777  17.4485
    17.4614  17.4773  17.4916  17.5064  17.7527  17.7634  17.8393  18.1071
    18.1099  18.2040  18.2497  18.2564  18.3129  18.3294  18.4120  18.4801
    18.5399  18.5501  18.6879  18.7012  18.7591  18.8253  18.8289  19.2656
    19.6164  19.6179  19.6533  19.7761  19.8481  19.8582  19.9911  20.0354
    20.1855  20.1939  20.1966  20.1973  20.2094  20.2835  20.3205  20.3359
    20.3677  20.5710  20.5731  20.5750  20.6053  20.6373  20.6451  20.6477
    20.6636  20.8426  20.8525  20.9636  20.9917  21.1064  21.1083  21.1256
    21.1324  21.2211  21.3943  21.4949  21.4977  22.3624  22.3651  23.3186
    24.0618  24.1006

          k = 0.1667 0.2778 0.3879 ( 11372 PWs)   bands (ev):

   -66.8120 -66.7875 -66.7680 -66.7551 -66.7518 -66.7431 -66.7359 -66.7305
   -66.7181 -66.7177 -66.7160 -66.7129 -66.7078 -66.7004 -66.6860 -66.6670
   -33.0863 -33.0738 -33.0669 -33.0492 -33.0371 -33.0319 -33.0288 -33.0238
   -33.0145 -33.0057 -33.0030 -32.9997 -32.9651 -32.9412 -32.9120 -32.8891
   -32.8862 -32.8506 -32.8425 -32.8367 -32.8345 -32.8239 -32.8229 -32.8216
   -32.7813 -32.7594 -32.7507 -32.7348 -32.7332 -32.7247 -32.7187 -32.7081
   -32.6887 -32.6728 -32.6713 -32.6602 -32.6528 -32.6446 -32.6313 -32.6219
   -32.6128 -32.6122 -32.6051 -32.5965 -32.5951 -32.5943 -32.5756 -32.5732
    12.7260  13.7574  14.6022  15.0947  15.3143  15.5969  15.9553  16.1843
    16.1942  16.2451  16.2732  16.3084  16.4404  16.4494  16.4814  16.6837
    16.7105  16.7592  17.2133  17.2293  17.3085  17.3124  17.3548  17.3950
    17.4896  17.5831  17.6017  17.6502  17.7252  17.8656  17.9122  17.9183
    18.0308  18.0862  18.1496  18.1815  18.2063  18.2402  18.2665  18.2818
    18.3166  18.3217  18.3563  18.3633  18.4466  18.5287  19.0475  19.4788
    19.6740  19.7699  19.8386  19.8413  19.8443  19.8861  19.9059  19.9557
    20.0884  20.1021  20.1121  20.1977  20.2018  20.3015  20.3830  20.4346
    20.4869  20.5037  20.5124  20.5953  20.6372  20.6404  20.6703  20.6936
    20.7008  20.7114  20.7184  20.8192  20.9186  21.0212  21.1360  21.1973
    21.2506  21.2700  21.3999  21.4284  21.4897  22.0373  22.9739  23.6333
    24.1242  24.2457

          k = 0.1667 0.2778-0.4988 ( 11368 PWs)   bands (ev):

   -66.8009 -66.8005 -66.7621 -66.7618 -66.7479 -66.7475 -66.7335 -66.7331
   -66.7180 -66.7176 -66.7144 -66.7140 -66.7039 -66.7035 -66.6758 -66.6754
   -33.0643 -33.0642 -33.0518 -33.0517 -33.0372 -33.0369 -33.0368 -33.0366
   -33.0131 -33.0130 -32.9989 -32.9987 -32.9569 -32.9568 -32.9177 -32.9174
   -32.8612 -32.8610 -32.8392 -32.8389 -32.8320 -32.8317 -32.8122 -32.8121
   -32.7775 -32.7774 -32.7565 -32.7563 -32.7291 -32.7289 -32.6975 -32.6971
   -32.6883 -32.6883 -32.6496 -32.6496 -32.6406 -32.6402 -32.6314 -32.6312
   -32.6269 -32.6265 -32.6023 -32.6022 -32.5834 -32.5834 -32.5811 -32.5811
    13.2024  13.2028  14.8583  14.8587  15.4835  15.4839  16.3127  16.3132
    16.3374  16.3376  16.3466  16.3468  16.3878  16.3882  16.5182  16.5186
    16.5237  16.5241  17.2587  17.2593  17.3307  17.3311  17.5076  17.5081
    17.5224  17.5229  17.6172  17.6174  17.7343  17.7344  17.9565  17.9568
    18.0995  18.0997  18.1290  18.1290  18.1323  18.1327  18.1798  18.1800
    18.2425  18.2427  18.2496  18.2497  18.3131  18.3134  19.3354  19.3354
    19.7092  19.7094  19.8564  19.8566  19.9445  19.9449  19.9886  19.9888
    20.0349  20.0350  20.0411  20.0411  20.4088  20.4090  20.4090  20.4092
    20.4457  20.4460  20.5405  20.5408  20.6304  20.6307  20.6381  20.6384
    20.7259  20.7262  20.7803  20.7805  20.9223  20.9225  21.0902  21.0902
    21.3524  21.3526  21.4069  21.4069  21.7195  21.7197  23.6056  23.6060
    23.9273  23.9275

          k = 0.1667 0.3889 0.0554 ( 11344 PWs)   bands (ev):

   -66.8204 -66.7938 -66.7551 -66.7457 -66.7400 -66.7349 -66.7275 -66.7261
   -66.7252 -66.7240 -66.7237 -66.7215 -66.7158 -66.7123 -66.6823 -66.6611
   -33.0935 -33.0802 -33.0788 -33.0766 -33.0610 -33.0348 -33.0278 -33.0181
   -33.0122 -33.0106 -32.9903 -32.9847 -32.9826 -32.9443 -32.9326 -32.8966
   -32.8812 -32.8399 -32.8360 -32.8060 -32.8041 -32.7957 -32.7894 -32.7849
   -32.7774 -32.7757 -32.7608 -32.7519 -32.7515 -32.7272 -32.7173 -32.7024
   -32.6768 -32.6735 -32.6669 -32.6613 -32.6502 -32.6393 -32.6361 -32.6172
   -32.6164 -32.6148 -32.6141 -32.6138 -32.6029 -32.5966 -32.5785 -32.5780
    12.3534  13.4445  15.0392  15.2740  15.6034  15.6221  15.8299  15.9226
    15.9931  16.0116  16.0649  16.0857  16.1360  16.1944  16.3429  16.6524
    16.6554  16.6711  17.1784  17.2219  17.2384  17.2622  17.5310  17.5701
    17.5749  17.6410  17.6466  17.7917  17.8511  17.9901  18.0380  18.0994
    18.2158  18.2264  18.2898  18.2981  18.4059  18.4071  18.4479  18.4918
    18.5165  18.5499  18.6133  18.7641  18.8149  18.8155  19.0934  19.4776
    19.5217  19.6676  19.6811  19.7332  19.7352  19.7623  19.9325  20.0045
    20.0194  20.0741  20.1460  20.2026  20.3546  20.4072  20.4310  20.5101
    20.5491  20.5547  20.5572  20.6623  20.6687  20.6781  20.6818  20.7465
    20.7532  20.7882  20.8336  20.9488  20.9504  21.0577  21.0963  21.1956
    21.1957  21.2074  21.4025  21.6002  21.6683  22.0310  22.3584  22.6982
    23.0654  23.2140

          k = 0.1667 0.3889 0.1663 ( 11372 PWs)   bands (ev):

   -66.8175 -66.7917 -66.7543 -66.7539 -66.7451 -66.7447 -66.7317 -66.7271
   -66.7206 -66.7194 -66.7162 -66.7158 -66.7128 -66.7125 -66.6835 -66.6631
   -33.0874 -33.0866 -33.0767 -33.0662 -33.0340 -33.0335 -33.0280 -33.0276
   -33.0219 -33.0053 -32.9942 -32.9940 -32.9515 -32.9513 -32.9436 -32.8901
   -32.8719 -32.8659 -32.8202 -32.8184 -32.8151 -32.8135 -32.8023 -32.8003
   -32.7852 -32.7765 -32.7619 -32.7306 -32.7291 -32.7205 -32.7192 -32.6972
   -32.6893 -32.6888 -32.6805 -32.6553 -32.6492 -32.6359 -32.6354 -32.6169
   -32.6146 -32.6140 -32.6135 -32.6085 -32.5994 -32.5841 -32.5836 -32.5773
    12.4800  13.5538  15.1276  15.1364  15.3812  15.3848  15.9837  16.0160
    16.0164  16.1536  16.1591  16.1787  16.2781  16.2845  16.4125  16.6716
    16.6723  16.7014  17.1817  17.2592  17.2957  17.3250  17.4405  17.4441
    17.5354  17.5536  17.7478  17.7642  17.8548  17.8692  17.8777  18.0312
    18.1871  18.1883  18.2635  18.2725  18.3395  18.3569  18.3624  18.3854
    18.3966  18.4447  18.5883  18.5996  18.6150  18.6297  19.2545  19.3754
    19.6172  19.6739  19.7627  19.7638  19.7664  19.7731  19.9818  19.9925
    20.0341  20.0461  20.1226  20.1809  20.1928  20.3592  20.4247  20.4794
    20.5346  20.5474  20.6293  20.6425  20.6451  20.6503  20.6867  20.7218
    20.7279  20.7405  20.7957  20.8482  21.1172  21.1219  21.1440  21.1627
    21.1709  21.3774  21.3818  21.3889  21.5596  21.5602  23.2527  23.2825
    23.3962  23.5590

          k = 0.1667 0.3889 0.2771 ( 11370 PWs)   bands (ev):

   -66.8119 -66.7874 -66.7681 -66.7551 -66.7518 -66.7430 -66.7361 -66.7305
   -66.7181 -66.7179 -66.7158 -66.7129 -66.7078 -66.7005 -66.6859 -66.6670
   -33.0861 -33.0729 -33.0675 -33.0497 -33.0369 -33.0311 -33.0284 -33.0239
   -33.0144 -33.0054 -33.0032 -32.9995 -32.9649 -32.9418 -32.9115 -32.8898
   -32.8857 -32.8505 -32.8427 -32.8376 -32.8332 -32.8239 -32.8232 -32.8231
   -32.7820 -32.7591 -32.7498 -32.7359 -32.7333 -32.7254 -32.7182 -32.7081
   -32.6887 -32.6725 -32.6713 -32.6600 -32.6529 -32.6444 -32.6315 -32.6215
   -32.6125 -32.6122 -32.6053 -32.5959 -32.5953 -32.5949 -32.5754 -32.5734
    12.7278  13.7637  14.5963  15.0935  15.3153  15.5978  15.9573  16.1835
    16.1922  16.2481  16.2771  16.3080  16.4400  16.4439  16.4902  16.6875
    16.7139  16.7586  17.2124  17.2368  17.3138  17.3224  17.3606  17.4062
    17.4746  17.5834  17.5924  17.6402  17.7202  17.8691  17.9046  17.9174
    18.0268  18.0870  18.1511  18.1844  18.2109  18.2394  18.2611  18.2770
    18.3036  18.3317  18.3462  18.3630  18.4461  18.5298  19.0438  19.4767
    19.6721  19.7750  19.8398  19.8467  19.8507  19.8898  19.9065  19.9514
    20.0974  20.1027  20.1087  20.2012  20.2151  20.2934  20.3706  20.4310
    20.4853  20.5023  20.5088  20.5879  20.6358  20.6382  20.6750  20.6945
    20.6973  20.7112  20.7139  20.8137  20.9122  21.0224  21.1407  21.1992
    21.2525  21.2680  21.4016  21.4291  21.4889  22.0394  22.9717  23.6359
    24.1329  24.2449

          k = 0.1667 0.3889 0.3879 ( 11368 PWs)   bands (ev):

   -66.8037 -66.7814 -66.7812 -66.7647 -66.7486 -66.7406 -66.7404 -66.7340
   -66.7169 -66.7161 -66.7158 -66.7135 -66.7006 -66.6898 -66.6895 -66.6728
   -33.0765 -33.0549 -33.0542 -33.0379 -33.0379 -33.0328 -33.0290 -33.0286
   -33.0252 -33.0198 -33.0131 -32.9838 -32.9584 -32.9281 -32.8868 -32.8808
   -32.8805 -32.8675 -32.8670 -32.8502 -32.8482 -32.8471 -32.8461 -32.8116
   -32.7757 -32.7518 -32.7492 -32.7487 -32.7419 -32.7412 -32.7303 -32.6894
   -32.6877 -32.6615 -32.6612 -32.6540 -32.6538 -32.6357 -32.6292 -32.6290
   -32.6187 -32.6115 -32.6113 -32.6105 -32.5827 -32.5823 -32.5723 -32.5712
    13.0858  14.0514  14.0556  14.7589  15.5396  15.8922  15.8927  16.3257
    16.3451  16.4210  16.4241  16.4878  16.4922  16.5035  16.5304  16.5774
    16.7353  16.9724  16.9732  17.2378  17.2984  17.3442  17.4026  17.4144
    17.4354  17.4408  17.5860  17.5963  17.6007  17.6627  17.8709  17.9536
    17.9542  17.9600  18.0234  18.0332  18.0966  18.1011  18.1139  18.1478
    18.1742  18.2029  18.2057  18.2927  18.3000  18.7205  18.7221  19.3128
    19.7239  19.8811  19.9478  19.9497  19.9761  20.0089  20.0144  20.0175
    20.1340  20.1952  20.2161  20.2221  20.2542  20.2559  20.2652  20.2745
    20.4147  20.4388  20.4393  20.4946  20.5230  20.6096  20.6132  20.6432
    20.6706  20.6713  20.7208  20.7299  20.8808  20.9363  20.9402  20.9602
    21.3799  21.3812  21.4418  21.5192  21.7820  22.5677  22.5691  23.6769
    24.0448  24.7608

          k = 0.1667 0.3889-0.4988 ( 11374 PWs)   bands (ev):

   -66.7936 -66.7933 -66.7738 -66.7735 -66.7450 -66.7447 -66.7376 -66.7372
   -66.7164 -66.7161 -66.7147 -66.7144 -66.6947 -66.6943 -66.6805 -66.6801
   -33.0599 -33.0598 -33.0422 -33.0420 -33.0327 -33.0324 -33.0315 -33.0314
   -33.0265 -33.0263 -33.0062 -33.0060 -32.9137 -32.9136 -32.9068 -32.9065
   -32.8715 -32.8714 -32.8657 -32.8654 -32.8537 -32.8535 -32.8213 -32.8212
   -32.7799 -32.7798 -32.7473 -32.7471 -32.7353 -32.7351 -32.7176 -32.7176
   -32.6741 -32.6737 -32.6398 -32.6397 -32.6381 -32.6377 -32.6321 -32.6317
   -32.6305 -32.6303 -32.6104 -32.6103 -32.5750 -32.5750 -32.5742 -32.5741
    13.5356  13.5360  14.4000  14.4004  15.7510  15.7513  16.2287  16.2291
    16.4317  16.4320  16.4385  16.4388  16.5575  16.5577  16.6379  16.6382
    16.7316  16.7320  17.2702  17.2707  17.3315  17.3320  17.3335  17.3336
    17.3391  17.3394  17.5070  17.5073  17.7614  17.7615  17.7878  17.7879
    17.9022  17.9026  17.9686  17.9688  18.0160  18.0162  18.0470  18.0470
    18.2063  18.2066  18.2455  18.2458  18.4263  18.4264  18.9873  18.9874
    19.9194  19.9195  19.9808  19.9810  20.0703  20.0706  20.1047  20.1048
    20.1257  20.1258  20.1263  20.1263  20.2413  20.2415  20.3423  20.3425
    20.3549  20.3551  20.4837  20.4841  20.5199  20.5202  20.5936  20.5937
    20.6555  20.6558  20.7024  20.7027  20.8055  20.8057  20.9408  20.9409
    21.4395  21.4396  21.4792  21.4792  22.1701  22.1704  23.1190  23.1193
    24.4438  24.4440

          k = 0.1667-0.5000 0.0554 ( 11338 PWs)   bands (ev):

   -66.8082 -66.8081 -66.7507 -66.7506 -66.7375 -66.7375 -66.7259 -66.7258
   -66.7254 -66.7254 -66.7226 -66.7226 -66.7138 -66.7138 -66.6707 -66.6706
   -33.0637 -33.0635 -33.0493 -33.0491 -33.0489 -33.0487 -33.0464 -33.0463
   -33.0243 -33.0242 -32.9916 -32.9915 -32.9892 -32.9890 -32.9091 -32.9090
   -32.8699 -32.8697 -32.8161 -32.8160 -32.7984 -32.7983 -32.7919 -32.7917
   -32.7809 -32.7807 -32.7515 -32.7513 -32.7216 -32.7215 -32.7157 -32.7155
   -32.6692 -32.6690 -32.6426 -32.6425 -32.6386 -32.6385 -32.6357 -32.6356
   -32.6244 -32.6243 -32.6142 -32.6141 -32.5951 -32.5949 -32.5944 -32.5942
    12.8547  12.8550  15.1773  15.1774  15.6405  15.6407  15.9371  15.9373
    16.0777  16.0778  16.2372  16.2373  16.3366  16.3368  16.3651  16.3653
    16.3703  16.3708  17.1977  17.1979  17.2220  17.2222  17.7338  17.7340
    17.7518  17.7519  17.7625  17.7627  17.8423  17.8425  18.1466  18.1468
    18.1983  18.1984  18.2635  18.2637  18.3902  18.3903  18.3921  18.3923
    18.3993  18.3994  18.4407  18.4408  18.5339  18.5340  19.2746  19.2749
    19.7736  19.7738  19.8021  19.8023  19.9150  19.9152  19.9611  19.9613
    20.0037  20.0038  20.0106  20.0106  20.3453  20.3454  20.4780  20.4782
    20.4912  20.4913  20.6178  20.6179  20.6621  20.6622  20.7007  20.7008
    20.8179  20.8181  20.9104  20.9104  21.0312  21.0314  21.1005  21.1005
    21.2705  21.2706  21.4324  21.4326  21.8395  21.8396  22.5477  22.5478
    23.2012  23.2014

          k = 0.1667-0.5000 0.1663 ( 11368 PWs)   bands (ev):

   -66.8057 -66.8056 -66.7501 -66.7499 -66.7496 -66.7494 -66.7295 -66.7295
   -66.7200 -66.7199 -66.7144 -66.7142 -66.7139 -66.7137 -66.6723 -66.6723
   -33.0599 -33.0598 -33.0592 -33.0590 -33.0452 -33.0450 -33.0441 -33.0439
   -32.9971 -32.9970 -32.9942 -32.9942 -32.9937 -32.9935 -32.9193 -32.9191
   -32.8438 -32.8437 -32.8403 -32.8402 -32.8123 -32.8123 -32.8105 -32.8102
   -32.7710 -32.7708 -32.7401 -32.7400 -32.7250 -32.7249 -32.7235 -32.7233
   -32.6610 -32.6608 -32.6604 -32.6603 -32.6440 -32.6439 -32.6342 -32.6341
   -32.6222 -32.6221 -32.5969 -32.5967 -32.5964 -32.5964 -32.5903 -32.5902
    12.9742  12.9745  15.2775  15.2777  15.2839  15.2841  16.1690  16.1693
    16.1718  16.1719  16.3104  16.3105  16.3314  16.3316  16.4033  16.4037
    16.4297  16.4299  17.2141  17.2143  17.2783  17.2784  17.7001  17.7002
    17.7005  17.7007  17.7035  17.7037  17.7194  17.7195  18.1583  18.1584
    18.1660  18.1661  18.2064  18.2065  18.2774  18.2776  18.2847  18.2848
    18.3261  18.3262  18.3298  18.3300  18.4080  18.4081  19.4543  19.4546
    19.6869  19.6870  19.8400  19.8402  19.8680  19.8683  19.8746  19.8747
    19.9965  19.9968  20.0060  20.0060  20.4493  20.4494  20.4557  20.4558
    20.4840  20.4841  20.5903  20.5903  20.6364  20.6365  20.7421  20.7422
    20.7459  20.7459  20.7578  20.7580  21.2750  21.2750  21.2810  21.2812
    21.2854  21.2854  21.3207  21.3208  21.3225  21.3226  23.4594  23.4595
    23.4860  23.4862

          k = 0.1667-0.5000 0.2771 ( 11368 PWs)   bands (ev):

   -66.8007 -66.8006 -66.7621 -66.7620 -66.7476 -66.7476 -66.7334 -66.7334
   -66.7179 -66.7179 -66.7141 -66.7141 -66.7038 -66.7037 -66.6755 -66.6754
   -33.0639 -33.0638 -33.0511 -33.0509 -33.0376 -33.0374 -33.0369 -33.0368
   -33.0127 -33.0126 -32.9986 -32.9984 -32.9565 -32.9565 -32.9183 -32.9181
   -32.8605 -32.8603 -32.8391 -32.8388 -32.8332 -32.8332 -32.8125 -32.8124
[...]
   -32.8472 -32.8472 -32.8296 -32.8294 -32.8139 -32.8136 -32.8069 -32.8067
   -32.8023 -32.8021 -32.7877 -32.7875 -32.7742 -32.7740 -32.7334 -32.7332
   -32.6771 -32.6770 -32.6438 -32.6437 -32.6284 -32.6283 -32.6278 -32.6278
   -32.6263 -32.6262 -32.6165 -32.6164 -32.5684 -32.5684 -32.5683 -32.5680
    13.4210  13.4212  14.2867  14.2869  16.0594  16.0596  16.3220  16.3221
    16.3354  16.3356  16.3519  16.3521  16.3711  16.3714  16.4968  16.4970
    16.7141  16.7144  17.2786  17.2788  17.3221  17.3223  17.3228  17.3230
    17.3871  17.3873  17.4436  17.4438  17.8043  17.8046  17.9362  17.9363
    18.0208  18.0209  18.0322  18.0323  18.0345  18.0347  18.0922  18.0923
    18.3650  18.3651  18.3875  18.3875  18.6326  18.6327  19.2939  19.2940
    19.7361  19.7362  19.7992  19.7995  19.9839  19.9840  20.0452  20.0453
    20.0917  20.0919  20.0936  20.0938  20.0989  20.0990  20.3249  20.3251
    20.3310  20.3312  20.3546  20.3549  20.4956  20.4957  20.5480  20.5481
    20.7032  20.7032  20.7540  20.7541  20.7658  20.7659  20.8475  20.8475
    21.5742  21.5743  21.6297  21.6298  22.7588  22.7590  23.5054  23.5056
    23.7400  23.7402

          k = 0.3889-0.5000 0.1663 ( 11364 PWs)   bands (ev):

   -66.7933 -66.7933 -66.7735 -66.7735 -66.7450 -66.7449 -66.7375 -66.7375
   -66.7164 -66.7163 -66.7147 -66.7146 -66.6944 -66.6944 -66.6802 -66.6801
   -33.0588 -33.0586 -33.0420 -33.0419 -33.0329 -33.0328 -33.0302 -33.0300
   -33.0264 -33.0263 -33.0059 -33.0058 -32.9132 -32.9130 -32.9088 -32.9087
   -32.8707 -32.8705 -32.8676 -32.8676 -32.8534 -32.8532 -32.8212 -32.8210
   -32.7798 -32.7796 -32.7470 -32.7468 -32.7353 -32.7351 -32.7176 -32.7174
   -32.6752 -32.6751 -32.6394 -32.6393 -32.6388 -32.6388 -32.6312 -32.6311
   -32.6300 -32.6299 -32.6099 -32.6098 -32.5752 -32.5750 -32.5744 -32.5742
    13.5407  13.5410  14.4041  14.4043  15.7494  15.7496  16.2322  16.2324
    16.4307  16.4309  16.4392  16.4394  16.5571  16.5573  16.6432  16.6434
    16.7380  16.7383  17.2774  17.2776  17.3356  17.3358  17.3404  17.3407
    17.3454  17.3456  17.5056  17.5058  17.7542  17.7543  17.7722  17.7724
    17.9054  17.9055  17.9588  17.9589  18.0026  18.0028  18.0417  18.0418
    18.2151  18.2151  18.2539  18.2540  18.4155  18.4156  18.9801  18.9802
    19.9220  19.9222  19.9759  19.9761  20.0842  20.0843  20.1178  20.1179
    20.1282  20.1284  20.1328  20.1331  20.2363  20.2364  20.3456  20.3458
    20.3538  20.3539  20.4815  20.4816  20.5178  20.5180  20.5934  20.5936
    20.6420  20.6421  20.6868  20.6868  20.7902  20.7903  20.9273  20.9273
    21.4438  21.4438  21.4831  21.4832  22.1712  22.1714  23.1181  23.1184
    24.4275  24.4277

          k = 0.3889-0.5000 0.2771 ( 11384 PWs)   bands (ev):

   -66.7890 -66.7889 -66.7702 -66.7702 -66.7555 -66.7554 -66.7452 -66.7451
   -66.7106 -66.7105 -66.7060 -66.7059 -66.6960 -66.6959 -66.6828 -66.6828
   -33.0446 -33.0443 -33.0374 -33.0373 -33.0210 -33.0209 -33.0182 -33.0180
   -33.0110 -33.0109 -32.9790 -32.9789 -32.9364 -32.9363 -32.9277 -32.9275
   -32.9094 -32.9092 -32.8968 -32.8968 -32.8910 -32.8908 -32.8461 -32.8460
   -32.7520 -32.7518 -32.7095 -32.7093 -32.6989 -32.6987 -32.6965 -32.6964
   -32.6712 -32.6712 -32.6558 -32.6557 -32.6356 -32.6355 -32.6355 -32.6354
   -32.6322 -32.6321 -32.6067 -32.6066 -32.5882 -32.5881 -32.5858 -32.5856
    13.7733  13.7735  14.6309  14.6311  15.3739  15.3742  16.0223  16.0226
    16.6036  16.6038  16.6133  16.6135  16.7573  16.7575  16.7824  16.7827
    16.8199  16.8201  17.2703  17.2705  17.2945  17.2946  17.3749  17.3751
    17.3903  17.3905  17.5741  17.5743  17.5872  17.5873  17.7141  17.7144
    17.7662  17.7663  17.7948  17.7949  17.9091  17.9093  17.9444  17.9447
    17.9916  17.9917  18.0666  18.0667  18.1171  18.1173  18.6073  18.6075
    20.1425  20.1426  20.1594  20.1595  20.1717  20.1717  20.1835  20.1837
    20.2278  20.2280  20.2653  20.2656  20.3825  20.3827  20.4015  20.4016
    20.4551  20.4551  20.4827  20.4828  20.5233  20.5234  20.5694  20.5694
    20.6007  20.6007  20.7986  20.7987  20.9103  20.9105  20.9846  20.9846
    21.2312  21.2313  21.2523  21.2525  21.7002  21.7004  22.5993  22.5996
    25.5055  25.5056

          k = 0.3889-0.5000 0.3879 ( 11398 PWs)   bands (ev):

   -66.7827 -66.7826 -66.7658 -66.7656 -66.7654 -66.7651 -66.7526 -66.7526
   -66.7056 -66.7056 -66.6986 -66.6984 -66.6982 -66.6980 -66.6867 -66.6867
   -33.0256 -33.0256 -33.0249 -33.0247 -33.0067 -33.0065 -33.0060 -33.0059
   -32.9912 -32.9911 -32.9569 -32.9568 -32.9473 -32.9473 -32.9470 -32.9468
   -32.9406 -32.9405 -32.9264 -32.9264 -32.9250 -32.9248 -32.8777 -32.8776
   -32.7243 -32.7241 -32.6788 -32.6786 -32.6760 -32.6759 -32.6756 -32.6753
   -32.6667 -32.6666 -32.6664 -32.6662 -32.6451 -32.6450 -32.6376 -32.6376
   -32.6288 -32.6288 -32.6066 -32.6064 -32.6062 -32.6062 -32.5999 -32.5998
    14.1036  14.1039  14.9458  14.9460  14.9487  14.9489  15.7066  15.7069
    16.8052  16.8056  16.8576  16.8577  16.8671  16.8673  16.8700  16.8702
    17.0124  17.0126  17.2403  17.2404  17.2445  17.2447  17.4169  17.4171
    17.4610  17.4612  17.5091  17.5093  17.5307  17.5308  17.6409  17.6411
    17.6496  17.6498  17.7608  17.7609  17.7656  17.7657  17.8199  17.8201
    17.8213  17.8214  17.8655  17.8658  17.8930  17.8931  18.2479  18.2481
    20.2294  20.2294  20.2442  20.2443  20.2505  20.2506  20.3707  20.3708
    20.3781  20.3783  20.3939  20.3939  20.4194  20.4195  20.4847  20.4848
    20.5020  20.5020  20.5045  20.5046  20.5084  20.5085  20.5908  20.5911
    20.6278  20.6279  20.7807  20.7809  20.9995  20.9996  21.0101  21.0103
    21.0276  21.0277  21.2977  21.2980  21.2997  21.2999  22.1406  22.1409
    26.6722  26.6780

          k = 0.3889-0.5000-0.4988 ( 11396 PWs)   bands (ev):

   -66.7750 -66.7748 -66.7746 -66.7744 -66.7597 -66.7595 -66.7593 -66.7591
   -66.7018 -66.7016 -66.7014 -66.7012 -66.6922 -66.6920 -66.6918 -66.6916
   -33.0107 -33.0106 -33.0106 -33.0106 -33.0062 -33.0059 -33.0059 -33.0057
   -32.9691 -32.9691 -32.9690 -32.9688 -32.9519 -32.9516 -32.9515 -32.9514
   -32.9477 -32.9476 -32.9476 -32.9476 -32.9125 -32.9125 -32.9124 -32.9122
   -32.6988 -32.6987 -32.6986 -32.6984 -32.6649 -32.6649 -32.6649 -32.6648
   -32.6586 -32.6586 -32.6585 -32.6583 -32.6407 -32.6404 -32.6402 -32.6402
   -32.6272 -32.6270 -32.6269 -32.6268 -32.6066 -32.6065 -32.6065 -32.6065
    14.5065  14.5069  14.5071  14.5072  15.3249  15.3252  15.3254  15.3256
    16.8734  16.8738  16.8738  16.8740  17.0732  17.0734  17.0737  17.0737
    17.1579  17.1581  17.1583  17.1585  17.1765  17.1767  17.1769  17.1769
    17.5664  17.5667  17.5667  17.5668  17.5829  17.5830  17.5831  17.5832
    17.5838  17.5839  17.5840  17.5841  17.7443  17.7445  17.7445  17.7446
    17.8024  17.8024  17.8026  17.8029  17.9526  17.9527  17.9528  17.9529
    20.2796  20.2798  20.2800  20.2801  20.3380  20.3381  20.3382  20.3384
    20.4225  20.4226  20.4228  20.4230  20.4909  20.4912  20.4914  20.4915
    20.5028  20.5029  20.5029  20.5029  20.5561  20.5562  20.5562  20.5564
    20.8251  20.8253  20.8253  20.8256  20.9351  20.9355  20.9356  20.9356
    20.9775  20.9776  20.9776  20.9777  21.7107  21.7111  21.7113  21.7113
    27.2499  27.2500

          k =-0.5000-0.5000 0.0554 ( 11412 PWs)   bands (ev):

   -66.7863 -66.7863 -66.7860 -66.7860 -66.7325 -66.7325 -66.7322 -66.7322
   -66.7237 -66.7237 -66.7234 -66.7234 -66.6857 -66.6857 -66.6854 -66.6854
   -33.0549 -33.0549 -33.0549 -33.0545 -33.0365 -33.0364 -33.0364 -33.0363
   -33.0301 -33.0300 -33.0300 -33.0299 -32.8686 -32.8686 -32.8682 -32.8682
   -32.8570 -32.8566 -32.8563 -32.8563 -32.8257 -32.8257 -32.8257 -32.8253
   -32.7830 -32.7830 -32.7830 -32.7826 -32.7681 -32.7677 -32.7674 -32.7674
   -32.6591 -32.6591 -32.6587 -32.6586 -32.6258 -32.6256 -32.6256 -32.6256
   -32.6215 -32.6214 -32.6213 -32.6213 -32.5649 -32.5649 -32.5649 -32.5646
    13.8310  13.8311  13.8311  13.8315  16.2686  16.2689  16.2689  16.2690
    16.3672  16.3673  16.3673  16.3676  16.4770  16.4773  16.4773  16.4773
    16.9835  16.9836  16.9836  16.9839  17.3144  17.3146  17.3146  17.3148
    17.3608  17.3610  17.3610  17.3612  17.8984  17.8987  17.8987  17.8989
    17.9164  17.9164  17.9164  17.9166  18.0022  18.0023  18.0023  18.0024
    18.3554  18.3554  18.3557  18.3558  18.9473  18.9475  18.9479  18.9479
    19.8232  19.8232  19.8234  19.8237  20.0722  20.0727  20.0729  20.0729
    20.1270  20.1271  20.1271  20.1272  20.2114  20.2117  20.2117  20.2120
    20.2121  20.2121  20.2122  20.2123  20.4726  20.4726  20.4727  20.4728
    20.7306  20.7306  20.7310  20.7310  20.7884  20.7884  20.7887  20.7888
    21.6362  21.6364  21.6364  21.6364  23.2519  23.2523  23.2523  23.2523
    24.0158  24.0161

          k =-0.5000-0.5000 0.1663 ( 11368 PWs)   bands (ev):

   -66.7843 -66.7843 -66.7840 -66.7840 -66.7416 -66.7416 -66.7413 -66.7413
   -66.7154 -66.7154 -66.7152 -66.7152 -66.6867 -66.6867 -66.6864 -66.6864
   -33.0471 -33.0471 -33.0471 -33.0467 -33.0345 -33.0345 -33.0345 -33.0343
   -33.0156 -33.0154 -33.0154 -33.0154 -32.8909 -32.8909 -32.8907 -32.8906
   -32.8681 -32.8681 -32.8681 -32.8677 -32.8677 -32.8674 -32.8670 -32.8670
   -32.7484 -32.7481 -32.7478 -32.7478 -32.7410 -32.7410 -32.7410 -32.7406
   -32.6551 -32.6551 -32.6548 -32.6547 -32.6329 -32.6327 -32.6326 -32.6326
   -32.6204 -32.6203 -32.6203 -32.6203 -32.5721 -32.5721 -32.5721 -32.5717
    13.9503  13.9504  13.9504  13.9508  16.0277  16.0281  16.0281  16.0282
    16.4586  16.4587  16.4587  16.4590  16.6904  16.6907  16.6907  16.6908
    17.0014  17.0015  17.0015  17.0019  17.2722  17.2724  17.2724  17.2726
    17.4167  17.4169  17.4169  17.4171  17.7567  17.7567  17.7567  17.7569
    17.8675  17.8678  17.8678  17.8680  17.9570  17.9571  17.9571  17.9572
    18.2145  18.2145  18.2146  18.2148  18.6683  18.6685  18.6687  18.6687
    20.0562  20.0562  20.0563  20.0565  20.1423  20.1423  20.1423  20.1425
    20.2416  20.2416  20.2416  20.2419  20.2548  20.2549  20.2549  20.2552
    20.2774  20.2779  20.2781  20.2781  20.4643  20.4643  20.4644  20.4645
    20.6641  20.6641  20.6644  20.6644  20.8337  20.8337  20.8339  20.8341
    21.4930  21.4932  21.4932  21.4933  22.6411  22.6415  22.6415  22.6415
    24.9488  24.9490

          k =-0.5000-0.5000 0.2771 ( 11380 PWs)   bands (ev):

   -66.7804 -66.7804 -66.7801 -66.7801 -66.7508 -66.7508 -66.7505 -66.7505
   -66.7081 -66.7081 -66.7078 -66.7078 -66.6888 -66.6888 -66.6886 -66.6885
   -33.0319 -33.0319 -33.0319 -33.0315 -33.0244 -33.0243 -33.0243 -33.0242
   -32.9948 -32.9946 -32.9946 -32.9946 -32.9215 -32.9215 -32.9214 -32.9213
   -32.9090 -32.9090 -32.9090 -32.9086 -32.8870 -32.8867 -32.8864 -32.8864
   -32.7235 -32.7232 -32.7230 -32.7230 -32.7013 -32.7013 -32.7013 -32.7009
   -32.6485 -32.6485 -32.6482 -32.6482 -32.6438 -32.6436 -32.6435 -32.6435
   -32.6225 -32.6224 -32.6224 -32.6224 -32.5860 -32.5860 -32.5860 -32.5856
    14.1815  14.1816  14.1816  14.1820  15.7138  15.7141  15.7141  15.7143
    16.6326  16.6327  16.6327  16.6330  16.9257  16.9260  16.9260  16.9261
    17.0347  17.0349  17.0349  17.0352  17.2287  17.2289  17.2289  17.2291
    17.4842  17.4844  17.4844  17.4846  17.6240  17.6241  17.6241  17.6242
    17.7901  17.7903  17.7903  17.7904  17.8101  17.8104  17.8104  17.8106
    18.0102  18.0102  18.0102  18.0104  18.3106  18.3108  18.3110  18.3110
    20.2042  20.2042  20.2042  20.2044  20.2867  20.2867  20.2867  20.2870
    20.3219  20.3219  20.3220  20.3222  20.3528  20.3530  20.3530  20.3532
    20.4473  20.4473  20.4474  20.4475  20.5787  20.5792  20.5794  20.5794
    20.5826  20.5826  20.5829  20.5829  20.8490  20.8490  20.8493  20.8494
    21.2560  21.2562  21.2562  21.2563  22.1429  22.1433  22.1433  22.1433
    26.0350  26.0352

          k =-0.5000-0.5000 0.3879 ( 11392 PWs)   bands (ev):

   -66.7748 -66.7748 -66.7746 -66.7745 -66.7596 -66.7596 -66.7593 -66.7593
   -66.7017 -66.7016 -66.7014 -66.7014 -66.6920 -66.6920 -66.6917 -66.6917
   -33.0097 -33.0096 -33.0096 -33.0092 -33.0065 -33.0065 -33.0065 -33.0063
   -32.9692 -32.9689 -32.9689 -32.9689 -32.9529 -32.9529 -32.9528 -32.9527
   -32.9469 -32.9469 -32.9469 -32.9465 -32.9127 -32.9124 -32.9122 -32.9122
   -32.6989 -32.6987 -32.6986 -32.6985 -32.6650 -32.6650 -32.6650 -32.6646
   -32.6585 -32.6583 -32.6582 -32.6582 -32.6408 -32.6408 -32.6406 -32.6406
   -32.6266 -32.6266 -32.6266 -32.6266 -32.6068 -32.6068 -32.6068 -32.6064
    14.5084  14.5085  14.5086  14.5089  15.3240  15.3242  15.3242  15.3245
    16.8697  16.8698  16.8698  16.8701  17.0795  17.0796  17.0796  17.0799
    17.1573  17.1575  17.1575  17.1577  17.1812  17.1813  17.1813  17.1816
    17.5630  17.5633  17.5633  17.5635  17.5787  17.5789  17.5789  17.5790
    17.5889  17.5889  17.5889  17.5891  17.7340  17.7343  17.7343  17.7345
    17.8103  17.8104  17.8104  17.8105  17.9505  17.9507  17.9508  17.9508
    20.2874  20.2874  20.2875  20.2877  20.3362  20.3363  20.3363  20.3365
    20.4197  20.4197  20.4198  20.4199  20.4876  20.4876  20.4878  20.4879
    20.5115  20.5117  20.5117  20.5119  20.5493  20.5493  20.5494  20.5496
    20.8143  20.8143  20.8145  20.8146  20.9341  20.9346  20.9347  20.9347
    20.9853  20.9855  20.9855  20.9857  21.7117  21.7121  21.7122  21.7122
    27.2240  27.2241

          k =-0.5000-0.5000-0.4988 ( 11376 PWs)   bands (ev):

   -66.7682 -66.7682 -66.7678 -66.7677 -66.7674 -66.7674 -66.7673 -66.7672
   -66.6966 -66.6966 -66.6963 -66.6962 -66.6958 -66.6958 -66.6957 -66.6956
   -32.9824 -32.9824 -32.9823 -32.9821 -32.9819 -32.9819 -32.9819 -32.9818
   -32.9810 -32.9807 -32.9807 -32.9804 -32.9804 -32.9804 -32.9801 -32.9798
   -32.9412 -32.9411 -32.9409 -32.9408 -32.9408 -32.9405 -32.9405 -32.9403
   -32.6770 -32.6769 -32.6767 -32.6766 -32.6766 -32.6763 -32.6763 -32.6761
   -32.6339 -32.6335 -32.6335 -32.6334 -32.6334 -32.6333 -32.6333 -32.6332
   -32.6332 -32.6332 -32.6330 -32.6329 -32.6329 -32.6329 -32.6329 -32.6326
    14.9032  14.9034  14.9034  14.9037  14.9038  14.9040  14.9040  14.9041
    17.1223  17.1224  17.1224  17.1228  17.1229  17.1230  17.1230  17.1231
    17.1301  17.1302  17.1302  17.1305  17.1305  17.1307  17.1307  17.1309
    17.6352  17.6358  17.6358  17.6358  17.6359  17.6360  17.6361  17.6361
    17.6482  17.6485  17.6488  17.6488  17.6489  17.6489  17.6489  17.6495
    17.6588  17.6588  17.6588  17.6591  17.6593  17.6593  17.6593  17.6593
    20.3816  20.3816  20.3818  20.3820  20.3823  20.3825  20.3825  20.3825
    20.3852  20.3852  20.3852  20.3856  20.3857  20.3858  20.3859  20.3859
    20.7157  20.7157  20.7158  20.7160  20.7161  20.7161  20.7163  20.7164
    20.7275  20.7276  20.7276  20.7276  20.7277  20.7279  20.7279  20.7283
    21.3131  21.3139  21.3141  21.3141  21.3141  21.3141  21.3142  21.3142
    28.3988  28.4020

     the Fermi energy is    20.4504 ev

!    total energy              =   -5267.70815310 Ry
     Harris-Foulkes estimate   =   -5267.70818701 Ry
     estimated scf accuracy    <       0.00004534 Ry

     total all-electron energy =    -40728.452682 Ry

     The total energy is the sum of the following terms:

     one-electron contribution =   -1623.97173668 Ry
     hartree contribution      =     990.69786481 Ry
     xc contribution           =    -442.97792002 Ry
     ewald contribution        =   -2866.56311959 Ry
     one-center paw contrib.   =   -1324.76168630 Ry
     smearing contrib. (-TS)   =      -0.13155532 Ry

     convergence has been achieved in  11 iterations

     Forces acting on atoms (cartesian axes, Ry/au):

     atom    1 type  1   force =     0.00000000    0.00000000    0.00000000
     atom    2 type  1   force =    -0.00014539   -0.00014539    0.00061871
     atom    3 type  1   force =     0.00000000    0.00000000    0.00000000
     atom    4 type  1   force =    -0.00014539   -0.00014539   -0.00061871
     atom    5 type  1   force =     0.00000000    0.00000000    0.00000000
     atom    6 type  1   force =    -0.00014539    0.00014539    0.00061871
     atom    7 type  1   force =     0.00000000    0.00000000    0.00000000
     atom    8 type  1   force =    -0.00014539    0.00014539   -0.00061871
     atom    9 type  1   force =     0.00000000    0.00000000    0.00000000
     atom   10 type  1   force =     0.00014539   -0.00014539    0.00061871
     atom   11 type  1   force =     0.00000000    0.00000000    0.00000000
     atom   12 type  1   force =     0.00014539   -0.00014539   -0.00061871
     atom   13 type  1   force =     0.00000000    0.00000000    0.00000000
     atom   14 type  1   force =     0.00014539    0.00014539    0.00061871
     atom   15 type  1   force =     0.00000000    0.00000000    0.00000000
     atom   16 type  1   force =     0.00014539    0.00014539   -0.00061871

     Total force =     0.001844     Total SCF correction =     0.006222
     SCF correction compared to forces is large: reduce conv_thr to get better values


     Computing stress (Cartesian axis) and pressure

          total   stress  (Ry/bohr**3)                   (kbar)     P=   35.27
   0.00022849   0.00000000   0.00000000         33.61      0.00      0.00
   0.00000000   0.00022849   0.00000000          0.00     33.61      0.00
   0.00000000   0.00000000   0.00026232          0.00      0.00     38.59


     Writing output data file HcLbMJlEqrhQkkbu.save/
 
     init_run     :      6.38s CPU      6.72s WALL (       1 calls)
     electrons    :    250.32s CPU    259.02s WALL (       1 calls)
     forces       :      2.30s CPU      2.53s WALL (       1 calls)
     stress       :      6.01s CPU      6.08s WALL (       1 calls)

     Called by init_run:
     wfcinit      :      6.10s CPU      6.34s WALL (       1 calls)
     potinit      :      0.10s CPU      0.13s WALL (       1 calls)
     hinit0       :      0.11s CPU      0.16s WALL (       1 calls)

     Called by electrons:
     c_bands      :    224.25s CPU    231.34s WALL (      12 calls)
     sum_band     :     24.89s CPU     26.21s WALL (      12 calls)
     v_of_rho     :      0.12s CPU      0.24s WALL (      12 calls)
     newd         :      0.17s CPU      0.22s WALL (      12 calls)
     PAW_pot      :      0.86s CPU      0.90s WALL (      12 calls)
     mix_rho      :      0.05s CPU      0.08s WALL (      12 calls)

     Called by c_bands:
     init_us_2    :      1.27s CPU      1.29s WALL (    2025 calls)
     cegterg      :    217.90s CPU    224.90s WALL (     900 calls)

     Called by sum_band:
     sum_band:bec :      0.36s CPU      0.36s WALL (     900 calls)
     addusdens    :      0.17s CPU      0.22s WALL (      12 calls)

     Called by *egterg:
     h_psi        :     99.40s CPU    103.81s WALL (    2793 calls)
     s_psi        :      5.31s CPU      5.35s WALL (    2793 calls)
     g_psi        :      0.21s CPU      0.21s WALL (    1818 calls)
     cdiaghg      :     93.66s CPU     94.10s WALL (    2643 calls)

     Called by h_psi:
     h_psi:pot    :     98.86s CPU    103.27s WALL (    2793 calls)
     h_psi:calbec :      7.83s CPU      9.12s WALL (    2793 calls)
     vloc_psi     :     85.69s CPU     88.77s WALL (    2793 calls)
     add_vuspsi   :      5.32s CPU      5.37s WALL (    2793 calls)

     General routines
     calbec       :     13.02s CPU     15.17s WALL (    4068 calls)
     fft          :      0.14s CPU      0.35s WALL (     181 calls)
     ffts         :      0.02s CPU      0.08s WALL (      24 calls)
     fftw         :     99.74s CPU    103.23s WALL (  755118 calls)
     interpolate  :      0.01s CPU      0.05s WALL (      12 calls)
 
     Parallel routines
     fft_scatt_xy :      6.58s CPU      6.79s WALL (  755323 calls)
     fft_scatt_yz :     67.38s CPU     70.05s WALL (  755323 calls)
 
     PWSCF        :  4m30.11s CPU     4m47.41s WALL

 
   This run was terminated on:   8:11: 8   5Sep2020            

=------------------------------------------------------------------------------=
   JOB DONE.
=------------------------------------------------------------------------------=
