--------------------------------------------------------------------------
WARNING: There was an error initializing an OpenFabrics device.

  Local host:   bear-pg0211u07b
  Local device: mlx5_0
--------------------------------------------------------------------------

     Program PWSCF v.6.3 starts on  5Sep2020 at  6:15:51 

     This program is part of the open-source Quantum ESPRESSO suite
     for quantum simulation of materials; please cite
         "P. Giannozzi et al., J. Phys.:Condens. Matter 21 395502 (2009);
         "P. Giannozzi et al., J. Phys.:Condens. Matter 29 465901 (2017);
          URL http://www.quantum-espresso.org", 
     in publications or presentations arising from this work. More details at
     http://www.quantum-espresso.org/quote

     Parallel version (MPI & OpenMP), running on      40 processor cores
     Number of MPI processes:                40
     Threads/MPI process:                     1

     MPI processes distributed on     1 nodes
     R & G space division:  proc/nbgrp/npool/nimage =      40
     Reading input from wd/eos/eos_005.in
Warning: card &IONS ignored
Warning: card ION_DYNAMICS = 'BFGS', ignored
Warning: card / ignored
Warning: card &CELL ignored
Warning: card CELL_DYNAMICS = 'BFGS', ignored
Warning: card CELL_FACTOR = 2.0, ignored
Warning: card PRESS = 0.0, ignored
Warning: card / ignored

     Current dimensions of program PWSCF are:
     Max number of different atomic species (ntypx) = 10
     Max number of k-points (npk) =  40000
     Max angular momentum in pseudopotentials (lmaxx) =  3
               file Fe.pbe-spn-kjpaw_psl.1.0.0.UPF: wavefunction(s)  3P 3D renormalized

     Subspace diagonalization in iterative solution of the eigenvalue problem:
     a serial algorithm will be used

 
     Parallelization info
     --------------------
     sticks:   dense  smooth     PW     G-vecs:    dense   smooth      PW
     Min          92      61     17                 4224     2265     339
     Max          93      62     18                 4229     2269     343
     Sum        3705    2441    681               169101    90687   13613
 


     bravais-lattice index     =            0
     lattice parameter (alat)  =      10.3915  a.u.
     unit-cell volume          =    1122.0973 (a.u.)^3
     number of atoms/cell      =           16
     number of atomic types    =            1
     number of electrons       =       256.00
     number of Kohn-Sham states=          154
     kinetic-energy cutoff     =      71.0000  Ry
     charge density cutoff     =     430.0000  Ry
     convergence threshold     =      5.0E-05
     mixing beta               =       0.1000
     number of iterations used =           10  plain     mixing
     Exchange-correlation      = SLA PW PBX PBC ( 1  4  3  4 0 0)

     celldm(1)=  10.391466  celldm(2)=   0.000000  celldm(3)=   0.000000
     celldm(4)=   0.000000  celldm(5)=   0.000000  celldm(6)=   0.000000

     crystal axes: (cart. coord. in units of alat)
               a(1) = (   1.000000   0.000000   0.000000 )  
               a(2) = (   0.000000   1.000000   0.000000 )  
               a(3) = (   0.000000   0.000000   1.000000 )  

     reciprocal axes: (cart. coord. in units 2 pi/alat)
               b(1) = (  1.000000  0.000000  0.000000 )  
               b(2) = (  0.000000  1.000000  0.000000 )  
               b(3) = (  0.000000  0.000000  1.000000 )  


     PseudoPot. # 1 for Fe read from file:
     /rds/homes/b/bxp912/pp/Fe.pbe-spn-kjpaw_psl.1.0.0.UPF
     MD5 check sum: 42f43b795421b414b0dc916aa790dbcb
     Pseudo is Projector augmented-wave + core cor, Zval = 16.0
     Generated using "atomic" code by A. Dal Corso v.6.3
     Shape of augmentation charge: PSQ
     Using radial grid of 1191 points,  6 beta functions with: 
                l(1) =   0
                l(2) =   0
                l(3) =   1
                l(4) =   1
                l(5) =   2
                l(6) =   2
     Q(r) pseudized with 0 coefficients 


     atomic species   valence    mass     pseudopotential
        Fe            16.00    55.84500     Fe( 1.00)

     48 Sym. Ops., with inversion, found



   Cartesian axes

     site n.     atom                  positions (alat units)
         1           Fe  tau(   1) = (   0.0000000   0.0000000   0.0000000  )
         2           Fe  tau(   2) = (   0.2500089   0.2500089   0.2500089  )
         3           Fe  tau(   3) = (   0.0000000   0.0000000   0.4999995  )
         4           Fe  tau(   4) = (   0.2500089   0.2500089   0.7499911  )
         5           Fe  tau(   5) = (   0.0000000   0.5000001   0.0000000  )
         6           Fe  tau(   6) = (   0.2500089   0.7499912   0.2500089  )
         7           Fe  tau(   7) = (   0.0000000   0.5000001   0.4999995  )
         8           Fe  tau(   8) = (   0.2500089   0.7499912   0.7499911  )
         9           Fe  tau(   9) = (   0.5000001   0.0000000   0.0000000  )
        10           Fe  tau(  10) = (   0.7499912   0.2500089   0.2500089  )
        11           Fe  tau(  11) = (   0.5000001   0.0000000   0.4999995  )
        12           Fe  tau(  12) = (   0.7499912   0.2500089   0.7499911  )
        13           Fe  tau(  13) = (   0.5000001   0.5000001   0.0000000  )
        14           Fe  tau(  14) = (   0.7499912   0.7499912   0.2500089  )
        15           Fe  tau(  15) = (   0.5000001   0.5000001   0.4999995  )
        16           Fe  tau(  16) = (   0.7499912   0.7499912   0.7499911  )

     number of k points=    35  Marzari-Vanderbilt smearing, width (Ry)=  0.0400
                       cart. coord. in units 2pi/alat
        k(    1) = (   0.0555556   0.0555556   0.0555556), wk =   0.0219479
        k(    2) = (   0.0555556   0.0555556   0.1666667), wk =   0.0658436
        k(    3) = (   0.0555556   0.0555556   0.2777778), wk =   0.0658436
        k(    4) = (   0.0555556   0.0555556   0.3888889), wk =   0.0658436
        k(    5) = (   0.0555556   0.0555556  -0.5000000), wk =   0.0329218
        k(    6) = (   0.0555556   0.1666667   0.1666667), wk =   0.0658436
        k(    7) = (   0.0555556   0.1666667   0.2777778), wk =   0.1316872
        k(    8) = (   0.0555556   0.1666667   0.3888889), wk =   0.1316872
        k(    9) = (   0.0555556   0.1666667  -0.5000000), wk =   0.0658436
        k(   10) = (   0.0555556   0.2777778   0.2777778), wk =   0.0658436
        k(   11) = (   0.0555556   0.2777778   0.3888889), wk =   0.1316872
        k(   12) = (   0.0555556   0.2777778  -0.5000000), wk =   0.0658436
        k(   13) = (   0.0555556   0.3888889   0.3888889), wk =   0.0658436
        k(   14) = (   0.0555556   0.3888889  -0.5000000), wk =   0.0658436
        k(   15) = (   0.0555556  -0.5000000  -0.5000000), wk =   0.0164609
        k(   16) = (   0.1666667   0.1666667   0.1666667), wk =   0.0219479
        k(   17) = (   0.1666667   0.1666667   0.2777778), wk =   0.0658436
        k(   18) = (   0.1666667   0.1666667   0.3888889), wk =   0.0658436
        k(   19) = (   0.1666667   0.1666667  -0.5000000), wk =   0.0329218
        k(   20) = (   0.1666667   0.2777778   0.2777778), wk =   0.0658436
        k(   21) = (   0.1666667   0.2777778   0.3888889), wk =   0.1316872
        k(   22) = (   0.1666667   0.2777778  -0.5000000), wk =   0.0658436
        k(   23) = (   0.1666667   0.3888889   0.3888889), wk =   0.0658436
        k(   24) = (   0.1666667   0.3888889  -0.5000000), wk =   0.0658436
        k(   25) = (   0.1666667  -0.5000000  -0.5000000), wk =   0.0164609
        k(   26) = (   0.2777778   0.2777778   0.2777778), wk =   0.0219479
        k(   27) = (   0.2777778   0.2777778   0.3888889), wk =   0.0658436
        k(   28) = (   0.2777778   0.2777778  -0.5000000), wk =   0.0329218
        k(   29) = (   0.2777778   0.3888889   0.3888889), wk =   0.0658436
        k(   30) = (   0.2777778   0.3888889  -0.5000000), wk =   0.0658436
        k(   31) = (   0.2777778  -0.5000000  -0.5000000), wk =   0.0164609
        k(   32) = (   0.3888889   0.3888889   0.3888889), wk =   0.0219479
        k(   33) = (   0.3888889   0.3888889  -0.5000000), wk =   0.0329218
        k(   34) = (   0.3888889  -0.5000000  -0.5000000), wk =   0.0164609
        k(   35) = (  -0.5000000  -0.5000000  -0.5000000), wk =   0.0027435

     Dense  grid:   169101 G-vectors     FFT dimensions: (  72,  72,  72)

     Smooth grid:    90687 G-vectors     FFT dimensions: (  60,  60,  60)

     Estimated max dynamical RAM per process >      56.67 MB

     Estimated total dynamical RAM >       2.21 GB

     Check: negative/imaginary core charge=   -0.000006    0.000000

     Initial potential from superposition of free atoms

     starting charge  255.99300, renormalised to  256.00000
     Starting wfcs are  160 randomized atomic wfcs
     Checking if some PAW data can be deallocated... 

     total cpu time spent up to now is        4.1 secs

     Self-consistent Calculation

     iteration #  1     ecut=    71.00 Ry     beta= 0.10
     Davidson diagonalization with overlap
     ethr =  1.00E-02,  avg # of iterations =  3.3

     Threshold (ethr) on eigenvalues was too large:
     Diagonalizing with lowered threshold

     Davidson diagonalization with overlap
     ethr =  2.55E-04,  avg # of iterations =  3.0

     total cpu time spent up to now is       29.4 secs

     total energy              =   -5267.75184445 Ry
     Harris-Foulkes estimate   =   -5267.86765540 Ry
     estimated scf accuracy    <       0.73427088 Ry

     iteration #  2     ecut=    71.00 Ry     beta= 0.10
     Davidson diagonalization with overlap
     ethr =  2.87E-04,  avg # of iterations =  1.0

     total cpu time spent up to now is       37.1 secs

     total energy              =   -5267.61620405 Ry
     Harris-Foulkes estimate   =   -5267.76709130 Ry
     estimated scf accuracy    <       0.36349047 Ry

     iteration #  3     ecut=    71.00 Ry     beta= 0.10
     Davidson diagonalization with overlap
     ethr =  1.42E-04,  avg # of iterations =  3.2

     total cpu time spent up to now is       51.4 secs

     total energy              =   -5267.70062859 Ry
     Harris-Foulkes estimate   =   -5267.72007800 Ry
     estimated scf accuracy    <       0.44325356 Ry

     iteration #  4     ecut=    71.00 Ry     beta= 0.10
     Davidson diagonalization with overlap
     ethr =  1.42E-04,  avg # of iterations =  1.0

     total cpu time spent up to now is       59.2 secs

     total energy              =   -5267.70456101 Ry
     Harris-Foulkes estimate   =   -5267.71081291 Ry
     estimated scf accuracy    <       0.02917444 Ry

     iteration #  5     ecut=    71.00 Ry     beta= 0.10
     Davidson diagonalization with overlap
     ethr =  1.14E-05,  avg # of iterations =  2.2

     total cpu time spent up to now is       69.2 secs

     total energy              =   -5267.70509201 Ry
     Harris-Foulkes estimate   =   -5267.70691437 Ry
     estimated scf accuracy    <       0.02082297 Ry

     iteration #  6     ecut=    71.00 Ry     beta= 0.10
     Davidson diagonalization with overlap
     ethr =  8.13E-06,  avg # of iterations =  2.7

     total cpu time spent up to now is       80.3 secs

     total energy              =   -5267.70756500 Ry
     Harris-Foulkes estimate   =   -5267.70688414 Ry
     estimated scf accuracy    <       0.01087831 Ry

     iteration #  7     ecut=    71.00 Ry     beta= 0.10
     Davidson diagonalization with overlap
     ethr =  4.25E-06,  avg # of iterations =  2.5

     total cpu time spent up to now is       90.7 secs

     total energy              =   -5267.70643242 Ry
     Harris-Foulkes estimate   =   -5267.70808663 Ry
     estimated scf accuracy    <       0.01305082 Ry

     iteration #  8     ecut=    71.00 Ry     beta= 0.10
     Davidson diagonalization with overlap
     ethr =  4.25E-06,  avg # of iterations =  2.1

     total cpu time spent up to now is      100.8 secs

     total energy              =   -5267.70693126 Ry
     Harris-Foulkes estimate   =   -5267.70727596 Ry
     estimated scf accuracy    <       0.00629278 Ry

     iteration #  9     ecut=    71.00 Ry     beta= 0.10
     Davidson diagonalization with overlap
     ethr =  2.46E-06,  avg # of iterations =  2.2

     total cpu time spent up to now is      110.7 secs

     total energy              =   -5267.70718484 Ry
     Harris-Foulkes estimate   =   -5267.70720411 Ry
     estimated scf accuracy    <       0.00033952 Ry

     iteration # 10     ecut=    71.00 Ry     beta= 0.10
     Davidson diagonalization with overlap
     ethr =  1.33E-07,  avg # of iterations =  3.1

     total cpu time spent up to now is      122.4 secs

     End of self-consistent calculation

          k = 0.0556 0.0556 0.0556 ( 11275 PWs)   bands (ev):

   -66.7860 -66.6863 -66.6863 -66.6859 -66.6698 -66.6698 -66.6695 -66.6688
   -66.6688 -66.6683 -66.6680 -66.6680 -66.6676 -66.6608 -66.6603 -66.5841
   -33.0828 -33.0828 -33.0828 -33.0797 -33.0797 -33.0796 -32.9140 -32.9140
   -32.9081 -32.8382 -32.8352 -32.8350 -32.8350 -32.8133 -32.8133 -32.8000
   -32.7995 -32.7995 -32.7620 -32.7620 -32.7377 -32.7214 -32.7213 -32.7213
   -32.7100 -32.7099 -32.7099 -32.6966 -32.6961 -32.6961 -32.6932 -32.6928
   -32.6928 -32.6853 -32.6852 -32.6852 -32.6745 -32.6745 -32.6743 -32.5100
   -32.5083 -32.5083 -32.5083 -32.5052 -32.5051 -32.5051 -32.5034 -32.5034
    11.4653  15.3532  15.3532  15.3533  15.4732  15.4732  15.4732  15.4991
    15.4992  15.4992  15.7415  15.7415  15.8654  15.8654  15.8654  17.2375
    17.3275  17.3275  17.3358  17.3359  17.3359  17.3497  17.3497  17.3498
    17.4692  17.4692  17.5163  17.7699  17.7701  17.7701  18.1648  18.1652
    18.1652  18.6508  18.6508  18.6983  18.9782  18.9782  18.9784  19.0827
    19.0827  19.0827  19.1703  19.1704  19.1704  19.2656  19.2657  19.2657
    20.0141  20.0145  20.0145  20.2377  20.2379  20.2379  20.2650  20.2651
    20.2651  20.4058  20.4059  20.4059  20.4075  20.4076  20.4076  20.4397
    20.4397  20.6933  20.6933  20.6934  20.7026  20.7029  20.7029  20.7488
    20.7488  20.7493  20.7493  21.2386  21.2388  21.2388  21.4640  21.5146
    21.5147  21.5147  21.5431  21.5431  21.9721  21.9721  21.9721  21.9973
    21.9974  21.9974

          k = 0.0556 0.0556 0.1667 ( 11317 PWs)   bands (ev):

   -66.7824 -66.7041 -66.6856 -66.6853 -66.6718 -66.6716 -66.6691 -66.6685
   -66.6683 -66.6676 -66.6671 -66.6668 -66.6614 -66.6608 -66.6516 -66.5868
   -33.0747 -33.0747 -33.0736 -33.0708 -33.0658 -33.0658 -32.9179 -32.9079
   -32.8981 -32.8752 -32.8666 -32.8665 -32.8642 -32.8636 -32.8324 -32.8322
   -32.7970 -32.7691 -32.7590 -32.7573 -32.7451 -32.7213 -32.7211 -32.7127
   -32.7025 -32.7002 -32.6998 -32.6995 -32.6985 -32.6905 -32.6902 -32.6859
   -32.6857 -32.6817 -32.6816 -32.6504 -32.6476 -32.6474 -32.6404 -32.5251
   -32.5179 -32.5179 -32.5163 -32.5135 -32.5091 -32.5084 -32.5084 -32.5059
    11.6033  14.7218  15.4098  15.4098  15.4840  15.4840  15.5640  15.5641
    15.5742  15.5988  15.8042  15.8065  15.9090  15.9090  16.1998  17.1283
    17.2389  17.2484  17.3177  17.3301  17.3624  17.3776  17.3863  17.3863
    17.4278  17.4278  17.6587  17.6704  17.7247  17.7248  18.0659  18.0661
    18.5187  18.6252  18.6462  18.7613  18.7634  18.7635  18.8286  18.9439
    18.9439  18.9874  19.2593  19.2594  19.3759  19.3760  19.4061  19.5069
    19.7023  19.7024  19.7694  19.9966  19.9968  19.9969  20.1580  20.2445
    20.2447  20.3451  20.3452  20.3661  20.4273  20.4292  20.4294  20.4535
    20.4696  20.4884  20.4884  20.5142  20.7057  20.7272  20.7276  20.7466
    20.7470  20.9228  21.0334  21.0335  21.2007  21.2894  21.4033  21.5230
    21.5230  21.5352  21.5733  21.5734  21.8750  21.8750  22.0427  22.0427
    22.1379  22.1379

          k = 0.0556 0.0556 0.2778 ( 11321 PWs)   bands (ev):

   -66.7756 -66.7215 -66.6841 -66.6838 -66.6742 -66.6740 -66.6682 -66.6681
   -66.6678 -66.6668 -66.6667 -66.6663 -66.6624 -66.6617 -66.6359 -66.5919
   -33.0563 -33.0563 -33.0555 -33.0534 -33.0416 -33.0416 -32.9188 -32.9174
   -32.9118 -32.9084 -32.9084 -32.8951 -32.8862 -32.8833 -32.8770 -32.8769
   -32.7918 -32.7817 -32.7793 -32.7639 -32.7192 -32.7190 -32.7143 -32.7135
   -32.7088 -32.7042 -32.7040 -32.6886 -32.6883 -32.6860 -32.6857 -32.6661
   -32.6584 -32.6463 -32.6462 -32.6172 -32.6141 -32.6139 -32.6080 -32.5510
   -32.5334 -32.5334 -32.5318 -32.5301 -32.5207 -32.5180 -32.5179 -32.5156
    11.8753  14.0445  15.4969  15.4969  15.5218  15.5219  15.6625  15.6626
    15.7681  15.7898  15.9207  15.9352  15.9595  15.9595  16.3432  16.9659
    17.0058  17.0128  17.1963  17.2456  17.2852  17.2957  17.4988  17.4989
    17.5676  17.5676  17.7163  17.7165  17.9123  17.9339  17.9976  17.9978
    18.4729  18.4730  18.6086  18.6350  18.6351  18.6395  18.6746  18.7211
    18.8542  19.1207  19.1379  19.1381  19.3553  19.3555  19.5188  19.5189
    19.5374  19.5570  19.5571  19.5639  19.6109  19.6861  19.7971  20.2213
    20.2451  20.2453  20.3435  20.3436  20.4650  20.4792  20.5266  20.5487
    20.5488  20.6872  20.6883  20.7111  20.7414  20.7433  20.7541  20.7821
    20.7821  20.7935  20.9907  21.0256  21.1524  21.2285  21.2285  21.4629
    21.5381  21.5381  21.6266  21.6267  21.7476  21.7477  22.1248  22.1248
    22.2724  22.2724

          k = 0.0556 0.0556 0.3889 ( 11337 PWs)   bands (ev):

   -66.7657 -66.7381 -66.6820 -66.6817 -66.6768 -66.6765 -66.6676 -66.6673
   -66.6669 -66.6666 -66.6664 -66.6655 -66.6638 -66.6629 -66.6218 -66.5997
   -33.0296 -33.0284 -33.0283 -33.0282 -33.0083 -33.0083 -32.9588 -32.9564
   -32.9520 -32.9520 -32.9235 -32.9235 -32.9174 -32.9019 -32.8765 -32.8636
   -32.8240 -32.8110 -32.7651 -32.7529 -32.7292 -32.7228 -32.7162 -32.7159
   -32.7083 -32.7080 -32.6872 -32.6869 -32.6860 -32.6858 -32.6690 -32.6234
   -32.6192 -32.6117 -32.6116 -32.5872 -32.5848 -32.5826 -32.5824 -32.5784
   -32.5546 -32.5546 -32.5544 -32.5544 -32.5382 -32.5334 -32.5334 -32.5317
    12.2728  13.3830  15.5679  15.5679  15.5700  15.5700  15.7810  15.7810
    15.9617  15.9618  16.0387  16.0553  16.0701  16.1246  16.3315  16.6667
    16.6917  16.6997  17.1905  17.2078  17.2462  17.2550  17.6688  17.6689
    17.7632  17.7632  17.8370  17.8372  18.0349  18.0351  18.2117  18.2118
    18.2398  18.2607  18.3260  18.3261  18.6032  18.6064  18.6066  18.6360
    18.6520  18.6632  18.7828  18.7830  18.9798  19.0906  19.0947  19.3249
    19.4317  19.7564  19.7565  19.7840  19.7841  20.0057  20.0105  20.1107
    20.1109  20.1254  20.2094  20.2096  20.5159  20.5250  20.6085  20.6336
    20.6364  20.7016  20.7182  20.7345  20.7405  20.7529  20.8306  20.8359
    20.8506  20.8507  20.9768  21.0703  21.0703  21.2602  21.2602  21.3393
    21.5170  21.5170  21.5567  21.5567  21.6306  21.6306  22.2242  22.2243
    22.3380  22.3381

          k = 0.0556 0.0556-0.5000 ( 11330 PWs)   bands (ev):

   -66.7530 -66.7528 -66.6798 -66.6794 -66.6792 -66.6790 -66.6673 -66.6670
   -66.6667 -66.6665 -66.6655 -66.6652 -66.6643 -66.6640 -66.6098 -66.6096
   -32.9965 -32.9963 -32.9962 -32.9960 -32.9928 -32.9928 -32.9926 -32.9926
   -32.9682 -32.9682 -32.9680 -32.9679 -32.9121 -32.9118 -32.8525 -32.8523
   -32.8395 -32.8394 -32.7472 -32.7470 -32.7385 -32.7383 -32.7125 -32.7123
   -32.7122 -32.7120 -32.6866 -32.6864 -32.6863 -32.6861 -32.6247 -32.6245
   -32.5860 -32.5858 -32.5841 -32.5839 -32.5810 -32.5808 -32.5806 -32.5805
   -32.5606 -32.5604 -32.5553 -32.5551 -32.5550 -32.5550 -32.5529 -32.5527
    12.7820  12.7825  15.5931  15.5932  15.5934  15.5934  15.8933  15.8933
    15.8934  15.8935  16.2217  16.2219  16.3605  16.3608  16.3687  16.3689
    16.3703  16.3707  17.2108  17.2111  17.2202  17.2205  17.8849  17.8849
    17.8851  17.8853  17.9822  17.9822  17.9824  17.9825  18.1910  18.1911
    18.1913  18.1915  18.3518  18.3519  18.3520  18.3522  18.6151  18.6154
    18.6352  18.6352  18.6430  18.6433  18.6488  18.6489  19.1375  19.1378
    19.7421  19.7425  19.9456  19.9456  19.9457  19.9460  20.0205  20.0205
    20.0206  20.0209  20.3515  20.3516  20.4774  20.4776  20.5741  20.5743
    20.5794  20.5796  20.7117  20.7119  20.7263  20.7265  20.7413  20.7415
    21.1089  21.1091  21.1091  21.1092  21.1746  21.1749  21.3219  21.3221
    21.3221  21.3222  21.5786  21.5786  21.5788  21.5788  22.3092  22.3093
    22.3095  22.3095

          k = 0.0556 0.1667 0.1667 ( 11319 PWs)   bands (ev):

   -66.7790 -66.7029 -66.7026 -66.6847 -66.6767 -66.6712 -66.6710 -66.6681
   -66.6668 -66.6665 -66.6631 -66.6622 -66.6610 -66.6520 -66.6517 -66.5893
   -33.0728 -33.0660 -33.0659 -33.0579 -33.0578 -33.0462 -32.9249 -32.9042
   -32.8990 -32.8935 -32.8934 -32.8860 -32.8825 -32.8785 -32.8538 -32.8077
   -32.7926 -32.7922 -32.7579 -32.7564 -32.7562 -32.7271 -32.7161 -32.7157
   -32.7099 -32.7072 -32.7069 -32.6961 -32.6958 -32.6933 -32.6902 -32.6815
   -32.6715 -32.6587 -32.6518 -32.6514 -32.6275 -32.6146 -32.6145 -32.5464
   -32.5332 -32.5241 -32.5241 -32.5163 -32.5162 -32.5141 -32.5050 -32.5035
    11.7398  14.7974  14.7974  15.4277  15.4726  15.5866  15.5866  15.6627
    15.6628  15.6742  15.8664  15.8707  15.9614  16.2417  16.2417  17.0292
    17.1419  17.3195  17.3652  17.3652  17.3675  17.3676  17.4024  17.4024
    17.4085  17.4372  17.5329  17.6426  17.6647  17.6827  17.9600  18.3429
    18.3431  18.5636  18.6269  18.6270  18.6307  18.6760  18.8206  18.8645
    19.1658  19.1661  19.2334  19.2334  19.2797  19.3413  19.4431  19.5437
    19.5438  19.5536  19.5539  19.7444  19.7444  19.8973  20.0008  20.0012
    20.2380  20.3537  20.3668  20.3669  20.4217  20.4249  20.4250  20.4483
    20.4527  20.6302  20.6784  20.7120  20.7123  20.7275  20.7276  20.7375
    20.7389  20.8420  20.8422  21.0601  21.1697  21.1700  21.1868  21.1868
    21.3003  21.5541  21.5617  21.6939  21.7663  22.1181  22.4451  22.4452
    22.6361  22.7929

          k = 0.0556 0.1667 0.2778 ( 11343 PWs)   bands (ev):

   -66.7724 -66.7197 -66.7003 -66.6833 -66.6819 -66.6735 -66.6701 -66.6677
   -66.6663 -66.6658 -66.6635 -66.6615 -66.6597 -66.6525 -66.6367 -66.5943
   -33.0603 -33.0487 -33.0486 -33.0426 -33.0353 -33.0168 -32.9326 -32.9311
   -32.9291 -32.9178 -32.9154 -32.9136 -32.8917 -32.8885 -32.8625 -32.8385
   -32.7962 -32.7902 -32.7541 -32.7522 -32.7499 -32.7480 -32.7289 -32.7200
   -32.7198 -32.7123 -32.7061 -32.6943 -32.6926 -32.6799 -32.6736 -32.6558
   -32.6537 -32.6392 -32.6304 -32.6192 -32.6021 -32.5844 -32.5842 -32.5770
   -32.5540 -32.5369 -32.5365 -32.5317 -32.5255 -32.5239 -32.5084 -32.5073
    12.0084  14.1385  14.9303  15.3807  15.5717  15.6261  15.7609  15.7837
    15.8127  15.8514  15.9814  15.9975  16.0286  16.2772  16.3918  16.9114
    16.9934  17.0201  17.2576  17.3279  17.3459  17.3583  17.4078  17.4695
    17.4925  17.5289  17.6254  17.6985  17.8071  17.8647  17.8716  18.2113
    18.3672  18.4704  18.4873  18.5070  18.5456  18.5916  18.6137  18.8066
    18.8439  18.9972  19.0312  19.1861  19.2463  19.3260  19.3468  19.3474
    19.4290  19.5283  19.5490  19.6002  19.6311  19.7643  19.7897  20.1141
    20.2425  20.2697  20.3082  20.3446  20.3776  20.4107  20.4483  20.4909
    20.6547  20.6703  20.6720  20.7330  20.7385  20.7600  20.7621  20.7769
    20.8265  20.9362  20.9544  20.9667  20.9766  21.0051  21.0588  21.1581
    21.2774  21.4906  21.5453  21.6236  21.7614  22.2583  22.2832  22.8448
    22.9462  23.0695

          k = 0.0556 0.1667 0.3889 ( 11326 PWs)   bands (ev):

   -66.7626 -66.7358 -66.6967 -66.6871 -66.6811 -66.6761 -66.6686 -66.6671
   -66.6662 -66.6652 -66.6647 -66.6625 -66.6570 -66.6535 -66.6230 -66.6017
   -33.0381 -33.0239 -33.0227 -33.0204 -33.0047 -32.9787 -32.9718 -32.9616
   -32.9554 -32.9540 -32.9344 -32.9280 -32.9263 -32.8874 -32.8734 -32.8393
   -32.8217 -32.7821 -32.7780 -32.7461 -32.7457 -32.7375 -32.7294 -32.7268
   -32.7191 -32.7176 -32.7022 -32.6936 -32.6931 -32.6668 -32.6569 -32.6432
   -32.6177 -32.6143 -32.6076 -32.6021 -32.5897 -32.5794 -32.5767 -32.5574
   -32.5564 -32.5550 -32.5545 -32.5542 -32.5423 -32.5367 -32.5180 -32.5179
    12.4006  13.4919  15.0860  15.3206  15.6593  15.6720  15.8788  15.9699
    16.0480  16.0584  16.1115  16.1310  16.1805  16.2410  16.3875  16.6993
    16.7020  16.7176  17.2263  17.2698  17.2836  17.3076  17.5793  17.6197
    17.6344  17.6916  17.6937  17.8433  17.9161  18.0534  18.0973  18.1586
    18.2671  18.2779  18.3384  18.3487  18.4688  18.4692  18.5135  18.5517
    18.5647  18.5962  18.6741  18.8140  18.8766  18.8776  19.1546  19.5399
    19.5741  19.7326  19.7340  19.7911  19.7938  19.8130  19.9833  20.0587
    20.0804  20.1382  20.2099  20.2525  20.4197  20.4717  20.4953  20.5742
    20.6105  20.6161  20.6207  20.7305  20.7367  20.7462  20.7465  20.8077
    20.8215  20.8556  20.8920  21.0161  21.0217  21.1164  21.1603  21.2600
    21.2654  21.2716  21.4666  21.6644  21.7432  22.1007  22.4402  22.7745
    23.1221  23.2696

          k = 0.0556 0.1667-0.5000 ( 11316 PWs)   bands (ev):

   -66.7504 -66.7501 -66.6923 -66.6920 -66.6787 -66.6785 -66.6671 -66.6669
   -66.6666 -66.6663 -66.6638 -66.6635 -66.6551 -66.6548 -66.6114 -66.6112
   -33.0080 -33.0079 -32.9929 -32.9927 -32.9924 -32.9922 -32.9900 -32.9900
   -32.9678 -32.9678 -32.9350 -32.9350 -32.9331 -32.9329 -32.8499 -32.8496
   -32.8124 -32.8123 -32.7581 -32.7579 -32.7384 -32.7382 -32.7336 -32.7333
   -32.7228 -32.7226 -32.6931 -32.6930 -32.6612 -32.6610 -32.6568 -32.6566
   -32.6096 -32.6095 -32.5832 -32.5829 -32.5792 -32.5790 -32.5763 -32.5762
   -32.5639 -32.5637 -32.5545 -32.5544 -32.5351 -32.5350 -32.5340 -32.5339
    12.9020  12.9024  15.2239  15.2242  15.6931  15.6933  15.9886  15.9887
    16.1248  16.1250  16.2817  16.2819  16.3833  16.3836  16.4117  16.4119
    16.4163  16.4166  17.2440  17.2444  17.2685  17.2688  17.7806  17.7807
    17.8002  17.8004  17.8268  17.8270  17.8913  17.8915  18.2114  18.2114
    18.2539  18.2541  18.3211  18.3212  18.4405  18.4407  18.4545  18.4547
    18.4599  18.4600  18.5012  18.5012  18.5810  18.5813  19.3364  19.3366
    19.8271  19.8274  19.8538  19.8541  19.9762  19.9764  20.0224  20.0226
    20.0608  20.0610  20.0687  20.0687  20.4081  20.4083  20.5410  20.5412
    20.5542  20.5544  20.6803  20.6806  20.7302  20.7304  20.7689  20.7691
    20.8802  20.8803  20.9810  20.9811  21.0918  21.0919  21.1695  21.1696
    21.3345  21.3347  21.4968  21.4969  21.9109  21.9111  22.6265  22.6268
    23.2575  23.2578

          k = 0.0556 0.2778 0.2778 ( 11332 PWs)   bands (ev):

   -66.7661 -66.7163 -66.7161 -66.6899 -66.6818 -66.6725 -66.6722 -66.6672
   -66.6656 -66.6654 -66.6650 -66.6619 -66.6536 -66.6384 -66.6381 -66.5989
   -33.0539 -33.0337 -33.0337 -33.0234 -33.0233 -32.9826 -32.9484 -32.9483
   -32.9455 -32.9442 -32.9353 -32.9324 -32.9096 -32.8803 -32.8376 -32.7974
   -32.7946 -32.7941 -32.7843 -32.7840 -32.7493 -32.7376 -32.7354 -32.7271
   -32.7269 -32.7137 -32.7133 -32.7048 -32.7046 -32.6990 -32.6600 -32.6317
   -32.6235 -32.6232 -32.6163 -32.6128 -32.6094 -32.5852 -32.5791 -32.5575
   -32.5574 -32.5444 -32.5443 -32.5362 -32.5360 -32.5360 -32.5051 -32.5041
    12.2702  14.3137  14.3138  15.2220  15.6958  15.8254  15.8255  15.9476
    15.9477  15.9735  16.0832  16.1294  16.1311  16.4338  16.4338  16.8493
    16.9104  17.0987  17.0987  17.3173  17.3912  17.4182  17.4182  17.4626
    17.4626  17.5291  17.5471  17.7286  17.7529  17.8518  17.8885  18.2611
    18.2613  18.3723  18.3911  18.3914  18.4028  18.4169  18.4690  18.5799
    18.8257  18.8258  18.8895  18.8895  19.0522  19.0961  19.0965  19.1756
    19.6154  19.6155  19.6734  19.7144  19.7625  19.7628  19.9801  20.0638
    20.0642  20.2352  20.3205  20.3206  20.3491  20.3680  20.3681  20.4295
    20.4656  20.6269  20.6284  20.6359  20.7314  20.7411  20.7765  20.8305
    20.8411  20.8415  20.8934  20.9190  20.9190  21.0276  21.0279  21.2085
    21.2086  21.2486  21.5978  21.7900  21.8018  22.4939  22.9146  22.9147
    23.5194  23.5195

          k = 0.0556 0.2778 0.3889 ( 11324 PWs)   bands (ev):

   -66.7568 -66.7313 -66.7112 -66.6977 -66.6798 -66.6748 -66.6707 -66.6670
   -66.6665 -66.6656 -66.6645 -66.6626 -66.6484 -66.6408 -66.6255 -66.6057
   -33.0379 -33.0125 -33.0120 -33.0065 -32.9976 -32.9831 -32.9654 -32.9592
   -32.9584 -32.9567 -32.9535 -32.9415 -32.9375 -32.8627 -32.8447 -32.8139
   -32.8096 -32.7858 -32.7750 -32.7501 -32.7478 -32.7467 -32.7463 -32.7422
   -32.7409 -32.7340 -32.7177 -32.7042 -32.7028 -32.6765 -32.6544 -32.6480
   -32.6296 -32.6082 -32.6035 -32.5957 -32.5935 -32.5887 -32.5687 -32.5563
   -32.5561 -32.5539 -32.5516 -32.5434 -32.5352 -32.5348 -32.5080 -32.5078
    12.6510  13.7007  14.5448  15.0278  15.8165  15.8695  16.0626  16.1008
    16.1374  16.1944  16.2011  16.2165  16.3153  16.3988  16.4440  16.7166
    16.7181  16.8069  17.2965  17.3029  17.3407  17.3582  17.3886  17.5234
    17.5366  17.5756  17.6586  17.6615  17.9134  18.0038  18.0094  18.0269
    18.1382  18.2380  18.2470  18.3086  18.3202  18.3499  18.4325  18.4578
    18.4741  18.5405  18.5413  18.5550  18.6920  18.7522  19.3747  19.3903
    19.7555  19.7710  19.8256  19.8631  19.8660  19.8736  19.8763  19.9685
    20.0738  20.1295  20.1969  20.2374  20.2608  20.3766  20.3933  20.4201
    20.5197  20.5397  20.5590  20.5636  20.6681  20.7370  20.7537  20.7589
    20.7791  20.8505  20.8580  20.8796  20.8875  20.9631  20.9850  21.0500
    21.3810  21.4413  21.5861  21.7422  22.0569  22.6423  22.7837  23.3395
    23.5913  24.2127

          k = 0.0556 0.2778-0.5000 ( 11338 PWs)   bands (ev):

   -66.7451 -66.7449 -66.7050 -66.7048 -66.6775 -66.6773 -66.6690 -66.6688
   -66.6661 -66.6659 -66.6637 -66.6635 -66.6443 -66.6441 -66.6147 -66.6145
   -33.0139 -33.0139 -32.9868 -32.9866 -32.9866 -32.9864 -32.9859 -32.9858
   -32.9680 -32.9679 -32.9582 -32.9581 -32.8946 -32.8946 -32.8404 -32.8402
   -32.7789 -32.7788 -32.7676 -32.7674 -32.7637 -32.7635 -32.7391 -32.7390
   -32.7314 -32.7312 -32.7042 -32.7040 -32.7004 -32.7003 -32.6412 -32.6411
   -32.6380 -32.6378 -32.5769 -32.5767 -32.5732 -32.5731 -32.5717 -32.5714
   -32.5707 -32.5707 -32.5547 -32.5546 -32.5183 -32.5182 -32.5180 -32.5179
    13.1353  13.1357  14.7950  14.7953  15.8780  15.8782  16.1627  16.1629
    16.2880  16.2882  16.3526  16.3528  16.4178  16.4181  16.4806  16.4809
    16.5433  16.5436  17.3087  17.3090  17.3349  17.3352  17.6004  17.6006
    17.6212  17.6214  17.6309  17.6311  17.8213  17.8214  18.2002  18.2002
    18.2268  18.2270  18.2354  18.2355  18.2664  18.2666  18.2667  18.2668
    18.4261  18.4261  18.4444  18.4446  18.5018  18.5020  19.5908  19.5911
    19.7204  19.7204  19.7884  19.7886  19.9604  19.9606  20.0453  20.0455
    20.0628  20.0629  20.0963  20.0964  20.2383  20.2385  20.4768  20.4770
    20.4896  20.4898  20.6235  20.6237  20.6682  20.6683  20.7504  20.7506
    20.7803  20.7804  20.7993  20.7994  20.8930  20.8931  21.0212  21.0213
    21.5107  21.5108  21.6236  21.6237  22.3492  22.3494  23.0801  23.0803
    24.2869  24.2873

          k = 0.0556 0.3889 0.3889 ( 11321 PWs)   bands (ev):

   -66.7483 -66.7251 -66.7248 -66.7077 -66.6779 -66.6732 -66.6730 -66.6690
   -66.6659 -66.6649 -66.6646 -66.6631 -66.6408 -66.6295 -66.6293 -66.6117
   -33.0282 -32.9975 -32.9975 -32.9886 -32.9886 -32.9859 -32.9858 -32.9712
   -32.9699 -32.9683 -32.9674 -32.9519 -32.8969 -32.8469 -32.8023 -32.8020
   -32.7978 -32.7973 -32.7834 -32.7774 -32.7695 -32.7534 -32.7533 -32.7515
   -32.7375 -32.7172 -32.7171 -32.7111 -32.7106 -32.7101 -32.7002 -32.6400
   -32.6312 -32.6050 -32.6046 -32.5860 -32.5796 -32.5763 -32.5654 -32.5618
   -32.5602 -32.5601 -32.5542 -32.5542 -32.5181 -32.5180 -32.5046 -32.5043
    13.0129  13.9909  13.9910  14.6916  15.9914  16.1351  16.1352  16.2782
    16.3037  16.3038  16.3118  16.3337  16.4420  16.4421  16.5160  16.6335
    16.6904  17.0253  17.0254  17.3413  17.3585  17.4209  17.4435  17.4435
    17.4535  17.4535  17.5395  17.6640  17.7381  17.8543  17.9642  18.0406
    18.0407  18.1369  18.1927  18.2124  18.2276  18.2277  18.2609  18.2609
    18.3935  18.3966  18.3969  18.4835  18.5232  19.0361  19.0366  19.6131
    19.7114  19.7947  19.8565  19.8569  19.9767  19.9768  19.9951  20.0055
    20.1216  20.1221  20.1617  20.2468  20.2836  20.2837  20.2861  20.3019
    20.3020  20.4805  20.4838  20.4954  20.5858  20.6813  20.6814  20.7077
    20.7529  20.7834  20.8164  20.8167  20.8536  20.9099  20.9103  20.9343
    21.5673  21.5675  21.6462  21.7529  22.4338  23.1810  23.2214  23.2215
    23.9529  23.9530

          k = 0.0556 0.3889-0.5000 ( 11346 PWs)   bands (ev):

   -66.7376 -66.7374 -66.7171 -66.7168 -66.6757 -66.6755 -66.6713 -66.6710
   -66.6654 -66.6652 -66.6640 -66.6638 -66.6346 -66.6344 -66.6198 -66.6195
   -33.0105 -33.0104 -32.9818 -32.9818 -32.9817 -32.9816 -32.9813 -32.9812
   -32.9795 -32.9794 -32.9696 -32.9695 -32.8482 -32.8482 -32.8265 -32.8263
   -32.7873 -32.7871 -32.7716 -32.7715 -32.7558 -32.7557 -32.7488 -32.7488
   -32.7441 -32.7440 -32.7293 -32.7291 -32.7157 -32.7156 -32.6745 -32.6744
   -32.6167 -32.6165 -32.5834 -32.5831 -32.5690 -32.5689 -32.5683 -32.5682
   -32.5668 -32.5668 -32.5569 -32.5568 -32.5079 -32.5079 -32.5079 -32.5078
    13.4681  13.4685  14.3335  14.3339  16.1104  16.1106  16.3718  16.3720
    16.3828  16.3830  16.3990  16.3992  16.4186  16.4188  16.5437  16.5439
    16.7584  16.7587  17.3243  17.3245  17.3699  17.3700  17.3713  17.3714
    17.4358  17.4359  17.4929  17.4930  17.8677  17.8679  17.9939  17.9941
    18.0797  18.0798  18.0871  18.0874  18.0972  18.0974  18.1485  18.1487
    18.4140  18.4142  18.4352  18.4354  18.6985  18.6986  19.3595  19.3596
    19.7911  19.7913  19.8622  19.8624  20.0430  20.0432  20.0957  20.0959
    20.1492  20.1492  20.1496  20.1497  20.1528  20.1529  20.3837  20.3838
    20.3906  20.3907  20.4182  20.4184  20.5590  20.5592  20.6094  20.6097
    20.7771  20.7772  20.8283  20.8285  20.8409  20.8410  20.9222  20.9223
    21.6387  21.6388  21.6942  21.6943  22.8306  22.8309  23.5835  23.5837
    23.8141  23.8145

          k = 0.0556-0.5000-0.5000 ( 11348 PWs)   bands (ev):

   -66.7282 -66.7282 -66.7280 -66.7277 -66.6736 -66.6735 -66.6733 -66.6731
   -66.6647 -66.6647 -66.6645 -66.6642 -66.6266 -66.6265 -66.6263 -66.6261
   -32.9993 -32.9993 -32.9993 -32.9992 -32.9800 -32.9799 -32.9798 -32.9798
   -32.9732 -32.9732 -32.9731 -32.9731 -32.8088 -32.8088 -32.8084 -32.8083
   -32.7993 -32.7992 -32.7987 -32.7987 -32.7676 -32.7676 -32.7676 -32.7674
   -32.7243 -32.7243 -32.7243 -32.7241 -32.7095 -32.7094 -32.7090 -32.7090
   -32.5986 -32.5986 -32.5983 -32.5981 -32.5658 -32.5658 -32.5656 -32.5656
   -32.5616 -32.5616 -32.5615 -32.5614 -32.5044 -32.5044 -32.5044 -32.5043
    13.8780  13.8782  13.8783  13.8786  16.3179  16.3181  16.3182  16.3182
    16.4145  16.4145  16.4147  16.4149  16.5252  16.5254  16.5255  16.5255
    17.0283  17.0283  17.0286  17.0286  17.3634  17.3635  17.3635  17.3636
    17.4109  17.4110  17.4111  17.4111  17.9614  17.9617  17.9617  17.9618
    17.9718  17.9719  17.9719  17.9722  18.0596  18.0597  18.0597  18.0600
    18.4038  18.4038  18.4039  18.4043  19.0131  19.0131  19.0135  19.0135
    19.8802  19.8803  19.8804  19.8808  20.1348  20.1352  20.1354  20.1354
    20.1770  20.1771  20.1771  20.1772  20.2694  20.2696  20.2696  20.2698
    20.2712  20.2713  20.2714  20.2715  20.5361  20.5362  20.5364  20.5366
    20.8059  20.8060  20.8063  20.8064  20.8638  20.8639  20.8642  20.8642
    21.7006  21.7006  21.7007  21.7007  23.3250  23.3255  23.3255  23.3256
    24.0946  24.0948

          k = 0.1667 0.1667 0.1667 ( 11332 PWs)   bands (ev):

   -66.7757 -66.7017 -66.7017 -66.7013 -66.6761 -66.6761 -66.6757 -66.6639
   -66.6630 -66.6630 -66.6625 -66.6603 -66.6523 -66.6523 -66.6519 -66.5917
   -33.0639 -33.0638 -33.0638 -33.0398 -33.0398 -33.0398 -32.9197 -32.9181
   -32.9181 -32.9107 -32.9106 -32.9106 -32.8628 -32.8570 -32.8570 -32.8157
   -32.8153 -32.8153 -32.7637 -32.7636 -32.7636 -32.7191 -32.7187 -32.7187
   -32.7093 -32.7093 -32.6912 -32.6909 -32.6909 -32.6862 -32.6858 -32.6858
   -32.6543 -32.6543 -32.6543 -32.6459 -32.5983 -32.5983 -32.5982 -32.5678
   -32.5370 -32.5370 -32.5370 -32.5133 -32.5132 -32.5132 -32.5094 -32.5094
    11.8748  14.8770  14.8770  14.8770  15.5348  15.5348  15.5348  15.7700
    15.7701  15.7701  15.9313  15.9313  16.2951  16.2951  16.2951  16.9474
    17.2500  17.2500  17.3424  17.3426  17.3426  17.3878  17.3878  17.3878
    17.4977  17.4977  17.4978  17.5275  17.6060  17.6060  18.1912  18.1916
    18.1916  18.5481  18.5481  18.5483  18.5510  18.5510  18.9797  18.9807
    18.9810  18.9810  19.1725  19.1726  19.1726  19.3488  19.3488  19.3488
    19.5739  19.5739  19.5741  19.6306  19.6307  19.6307  20.2006  20.2011
    20.2011  20.2741  20.2742  20.2742  20.3881  20.3881  20.4263  20.4264
    20.4264  20.6812  20.6816  20.6816  20.7123  20.7123  20.7150  20.7150
    20.7836  20.8340  20.8340  20.8341  21.1839  21.1839  21.1839  21.3976
    21.3979  21.3979  21.4236  21.4236  22.1458  22.1459  22.1459  22.9081
    22.9081  22.9081

          k = 0.1667 0.1667 0.2778 ( 11342 PWs)   bands (ev):

   -66.7692 -66.7180 -66.6992 -66.6989 -66.6813 -66.6810 -66.6746 -66.6659
   -66.6623 -66.6603 -66.6597 -66.6594 -66.6528 -66.6525 -66.6375 -66.5965
   -33.0517 -33.0516 -33.0461 -33.0273 -33.0124 -33.0124 -32.9418 -32.9388
   -32.9388 -32.9298 -32.9280 -32.9050 -32.9045 -32.8521 -32.8519 -32.8395
   -32.8338 -32.7992 -32.7721 -32.7649 -32.7648 -32.7351 -32.7307 -32.7304
   -32.7236 -32.7173 -32.6939 -32.6778 -32.6775 -32.6634 -32.6604 -32.6603
   -32.6572 -32.6571 -32.6204 -32.6202 -32.5996 -32.5761 -32.5759 -32.5714
   -32.5543 -32.5543 -32.5447 -32.5296 -32.5214 -32.5161 -32.5160 -32.5101
    12.1405  14.2348  15.0179  15.0179  15.4916  15.4916  15.7414  15.9073
    15.9073  15.9524  16.0506  16.0507  16.3519  16.3519  16.4540  16.8665
    17.0208  17.0883  17.2228  17.3504  17.3541  17.3542  17.4378  17.4594
    17.4675  17.4675  17.6336  17.6444  17.6444  17.8251  18.0476  18.0477
    18.3361  18.3667  18.3668  18.4523  18.4715  18.5276  18.7219  18.7220
    18.7367  18.7368  18.9665  19.1098  19.1099  19.1262  19.1343  19.1788
    19.4720  19.5745  19.5745  19.7210  19.7211  19.8836  19.9678  20.1632
    20.1632  20.2707  20.3400  20.3679  20.3680  20.4456  20.4510  20.4526
    20.4727  20.4729  20.6665  20.6682  20.6870  20.7106  20.7253  20.7283
    20.7283  20.9475  21.0024  21.0025  21.0307  21.1022  21.1762  21.1875
    21.1875  21.4698  21.4797  21.4798  21.8817  21.8818  22.7746  23.1080
    23.1080  23.5425

          k = 0.1667 0.1667 0.3889 ( 11341 PWs)   bands (ev):

   -66.7597 -66.7336 -66.6956 -66.6954 -66.6864 -66.6861 -66.6728 -66.6683
   -66.6616 -66.6604 -66.6572 -66.6569 -66.6538 -66.6535 -66.6242 -66.6036
   -33.0311 -33.0310 -33.0204 -33.0098 -32.9775 -32.9775 -32.9715 -32.9714
   -32.9654 -32.9485 -32.9376 -32.9373 -32.8944 -32.8943 -32.8856 -32.8319
   -32.8140 -32.8082 -32.7607 -32.7606 -32.7570 -32.7549 -32.7424 -32.7422
   -32.7266 -32.7179 -32.7035 -32.6706 -32.6704 -32.6606 -32.6604 -32.6379
   -32.6298 -32.6297 -32.6213 -32.5956 -32.5893 -32.5759 -32.5759 -32.5572
   -32.5545 -32.5544 -32.5537 -32.5483 -32.5391 -32.5236 -32.5235 -32.5170
    12.5279  13.6018  15.1840  15.1840  15.4322  15.4322  16.0312  16.0644
    16.0645  16.2002  16.2031  16.2255  16.3319  16.3320  16.4573  16.7193
    16.7198  16.7494  17.2295  17.3047  17.3441  17.3711  17.4931  17.4932
    17.5986  17.5987  17.8102  17.8102  17.9132  17.9276  17.9277  18.0894
    18.2412  18.2413  18.3220  18.3222  18.3980  18.4137  18.4140  18.4470
    18.4470  18.4969  18.6490  18.6492  18.6767  18.6901  19.3136  19.4356
    19.6728  19.7349  19.8199  19.8199  19.8262  19.8262  20.0451  20.0452
    20.0957  20.1024  20.1868  20.2441  20.2441  20.4241  20.4906  20.5428
    20.5974  20.6108  20.6938  20.7069  20.7112  20.7114  20.7521  20.7829
    20.7987  20.7987  20.8614  20.9145  21.1841  21.1842  21.2079  21.2323
    21.2324  21.4414  21.4502  21.4504  21.6249  21.6249  23.3418  23.3418
    23.4679  23.6397

          k = 0.1667 0.1667-0.5000 ( 11316 PWs)   bands (ev):

   -66.7478 -66.7476 -66.6915 -66.6911 -66.6909 -66.6908 -66.6707 -66.6705
   -66.6611 -66.6608 -66.6555 -66.6551 -66.6549 -66.6547 -66.6130 -66.6128
   -33.0035 -33.0034 -33.0034 -33.0033 -32.9887 -32.9885 -32.9875 -32.9873
   -32.9404 -32.9402 -32.9373 -32.9373 -32.9371 -32.9370 -32.8611 -32.8609
   -32.7853 -32.7852 -32.7824 -32.7822 -32.7528 -32.7526 -32.7526 -32.7524
   -32.7125 -32.7122 -32.6812 -32.6811 -32.6649 -32.6647 -32.6646 -32.6645
   -32.6014 -32.6013 -32.6010 -32.6009 -32.5845 -32.5842 -32.5743 -32.5741
   -32.5622 -32.5620 -32.5365 -32.5363 -32.5363 -32.5362 -32.5300 -32.5299
    13.0221  13.0225  15.3313  15.3313  15.3315  15.3315  16.2197  16.2197
    16.2198  16.2200  16.3547  16.3549  16.3792  16.3794  16.4506  16.4510
    16.4766  16.4769  17.2606  17.2609  17.3255  17.3258  17.7520  17.7521
    17.7524  17.7525  17.7657  17.7657  17.7660  17.7662  18.2177  18.2178
    18.2180  18.2181  18.2664  18.2665  18.3351  18.3353  18.3354  18.3354
    18.3855  18.3856  18.3866  18.3868  18.4606  18.4608  19.5145  19.5148
    19.7480  19.7481  19.8956  19.8959  19.9286  19.9287  19.9288  19.9290
    20.0582  20.0582  20.0583  20.0583  20.5133  20.5135  20.5207  20.5209
    20.5487  20.5489  20.6525  20.6527  20.7009  20.7011  20.8079  20.8080
    20.8168  20.8169  20.8169  20.8170  21.3428  21.3428  21.3429  21.3430
    21.3496  21.3498  21.3862  21.3864  21.3864  21.3865  23.5453  23.5454
    23.5456  23.5456

          k = 0.1667 0.2778 0.2778 ( 11348 PWs)   bands (ev):

   -66.7630 -66.7147 -66.7144 -66.6967 -66.6888 -66.6797 -66.6794 -66.6687
   -66.6595 -66.6594 -66.6591 -66.6538 -66.6531 -66.6391 -66.6388 -66.6010
   -33.0452 -33.0351 -33.0350 -33.0043 -33.0043 -32.9808 -32.9544 -32.9524
   -32.9520 -32.9520 -32.9372 -32.9143 -32.9016 -32.8766 -32.8452 -32.8130
   -32.8103 -32.8099 -32.7998 -32.7997 -32.7758 -32.7502 -32.7500 -32.7489
   -32.7023 -32.6918 -32.6915 -32.6840 -32.6838 -32.6624 -32.6616 -32.6463
   -32.6359 -32.6336 -32.6239 -32.6237 -32.6014 -32.5757 -32.5640 -32.5564
   -32.5564 -32.5532 -32.5532 -32.5309 -32.5309 -32.5290 -32.5128 -32.5103
    12.4000  14.4147  14.4147  15.1750  15.3382  15.7055  15.7056  16.0667
    16.0858  16.0859  16.1530  16.1807  16.4571  16.5198  16.5198  16.8376
    17.0246  17.0750  17.0750  17.2819  17.3019  17.4229  17.4230  17.5029
    17.5116  17.5222  17.5531  17.5531  17.8028  17.8096  17.8911  18.1593
    18.1595  18.2602  18.3069  18.3071  18.3709  18.3802  18.4698  18.5359
    18.5985  18.5985  18.7493  18.7493  18.8209  18.8805  18.8808  19.3222
    19.6775  19.6775  19.7116  19.8382  19.9119  19.9121  20.0548  20.0948
    20.2503  20.2503  20.2555  20.2559  20.2743  20.3502  20.3882  20.3883
    20.4254  20.6349  20.6376  20.6386  20.6656  20.6966  20.7054  20.7057
    20.7224  20.9126  20.9127  21.0247  21.0536  21.1721  21.1722  21.1909
    21.1911  21.2833  21.4607  21.5606  21.5653  22.4315  22.4317  23.3806
    24.1612  24.1616

          k = 0.1667 0.2778 0.3889 ( 11334 PWs)   bands (ev):

   -66.7540 -66.7292 -66.7096 -66.6964 -66.6932 -66.6844 -66.6773 -66.6717
   -66.6591 -66.6589 -66.6570 -66.6540 -66.6487 -66.6413 -66.6267 -66.6076
   -33.0299 -33.0173 -33.0111 -32.9931 -32.9802 -32.9749 -32.9721 -32.9673
   -32.9575 -32.9482 -32.9463 -32.9425 -32.9077 -32.8847 -32.8542 -32.8321
   -32.8280 -32.7931 -32.7843 -32.7788 -32.7754 -32.7663 -32.7648 -32.7638
   -32.7229 -32.7005 -32.6911 -32.6761 -32.6740 -32.6656 -32.6593 -32.6492
   -32.6297 -32.6131 -32.6116 -32.6006 -32.5933 -32.5846 -32.5714 -32.5617
   -32.5524 -32.5519 -32.5453 -32.5361 -32.5348 -32.5344 -32.5151 -32.5129
    12.7771  13.8128  14.6523  15.1455  15.3641  15.6466  16.0062  16.2316
    16.2418  16.2925  16.3244  16.3567  16.4889  16.4964  16.5355  16.7385
    16.7630  16.8081  17.2646  17.2844  17.3636  17.3684  17.4109  17.4539
    17.5359  17.6289  17.6514  17.6964  17.7749  17.9199  17.9596  17.9661
    18.0800  18.1418  18.1998  18.2386  18.2607  18.2900  18.3203  18.3338
    18.3637  18.3805  18.4041  18.4207  18.5056  18.5807  19.1004  19.5349
    19.7308  19.8334  19.9014  19.9031  19.9075  19.9496  19.9687  20.0129
    20.1526  20.1667  20.1689  20.2652  20.2686  20.3580  20.4377  20.4926
    20.5481  20.5664  20.5734  20.6554  20.6957  20.6985  20.7360  20.7522
    20.7581  20.7699  20.7771  20.8807  20.9760  21.0823  21.1997  21.2627
    21.3170  21.3349  21.4671  21.4939  21.5565  22.1058  23.0424  23.6986
    24.1956  24.3180

          k = 0.1667 0.2778-0.5000 ( 11340 PWs)   bands (ev):

   -66.7427 -66.7425 -66.7036 -66.7034 -66.6892 -66.6889 -66.6747 -66.6744
   -66.6590 -66.6588 -66.6554 -66.6551 -66.6447 -66.6444 -66.6163 -66.6160
   -33.0074 -33.0073 -32.9952 -32.9951 -32.9810 -32.9808 -32.9803 -32.9802
   -32.9558 -32.9556 -32.9418 -32.9417 -32.8995 -32.8994 -32.8610 -32.8608
   -32.8028 -32.8026 -32.7815 -32.7814 -32.7741 -32.7740 -32.7539 -32.7538
   -32.7190 -32.7189 -32.6973 -32.6971 -32.6702 -32.6701 -32.6386 -32.6384
   -32.6287 -32.6286 -32.5898 -32.5898 -32.5804 -32.5802 -32.5712 -32.5711
   -32.5672 -32.5670 -32.5418 -32.5418 -32.5231 -32.5231 -32.5211 -32.5211
    13.2556  13.2560  14.9091  14.9094  15.5337  15.5340  16.3658  16.3661
    16.3847  16.3849  16.3948  16.3950  16.4389  16.4391  16.5666  16.5669
    16.5765  16.5767  17.3163  17.3166  17.3876  17.3879  17.5605  17.5607
    17.5763  17.5765  17.6648  17.6650  17.7809  17.7811  18.0030  18.0031
    18.1562  18.1564  18.1794  18.1795  18.1797  18.1799  18.2292  18.2294
    18.2991  18.2992  18.2996  18.2998  18.3689  18.3692  19.3899  19.3900
    19.7654  19.7657  19.9191  19.9193  20.0101  20.0103  20.0526  20.0527
    20.0997  20.0998  20.1066  20.1067  20.4652  20.4654  20.4683  20.4685
    20.5035  20.5037  20.6020  20.6022  20.6893  20.6894  20.6963  20.6965
    20.7839  20.7841  20.8374  20.8375  20.9870  20.9872  21.1523  21.1524
    21.4195  21.4196  21.4730  21.4731  21.7868  21.7871  23.6761  23.6765
    23.9957  23.9960

          k = 0.1667 0.3889 0.3889 ( 11354 PWs)   bands (ev):

   -66.7457 -66.7231 -66.7229 -66.7062 -66.6901 -66.6820 -66.6817 -66.6753
   -66.6580 -66.6572 -66.6570 -66.6546 -66.6414 -66.6305 -66.6303 -66.6134
   -33.0200 -32.9983 -32.9983 -32.9811 -32.9810 -32.9762 -32.9723 -32.9723
   -32.9685 -32.9626 -32.9565 -32.9268 -32.9012 -32.8713 -32.8291 -32.8236
   -32.8233 -32.8095 -32.8091 -32.7919 -32.7895 -32.7894 -32.7887 -32.7530
   -32.7170 -32.6931 -32.6903 -32.6899 -32.6826 -32.6825 -32.6712 -32.6305
   -32.6281 -32.6022 -32.6019 -32.5942 -32.5940 -32.5758 -32.5692 -32.5691
   -32.5591 -32.5513 -32.5512 -32.5503 -32.5224 -32.5223 -32.5122 -32.5108
    13.1368  14.1061  14.1061  14.8112  15.5898  15.9429  15.9429  16.3734
    16.3915  16.4722  16.4723  16.5384  16.5385  16.5533  16.5837  16.6273
    16.7865  17.0241  17.0242  17.2887  17.3493  17.3974  17.4612  17.4613
    17.4915  17.4915  17.6376  17.6476  17.6556  17.7088  17.9215  18.0019
    18.0020  18.0148  18.0813  18.0813  18.1504  18.1505  18.1632  18.2009
    18.2233  18.2605  18.2608  18.3506  18.3572  18.7739  18.7742  19.3688
    19.7817  19.9424  20.0113  20.0114  20.0358  20.0711  20.0713  20.0799
    20.1989  20.2611  20.2804  20.2804  20.3154  20.3158  20.3307  20.3308
    20.4737  20.5012  20.5030  20.5550  20.5850  20.6741  20.6742  20.7016
    20.7287  20.7290  20.7782  20.7878  20.9436  20.9977  20.9980  21.0193
    21.4468  21.4469  21.5084  21.5865  21.8488  22.6371  22.6373  23.7484
    24.1106  24.8313

          k = 0.1667 0.3889-0.5000 ( 11342 PWs)   bands (ev):

   -66.7354 -66.7351 -66.7154 -66.7151 -66.6863 -66.6861 -66.6788 -66.6786
   -66.6574 -66.6572 -66.6557 -66.6555 -66.6354 -66.6352 -66.6211 -66.6208
   -33.0031 -33.0030 -32.9855 -32.9854 -32.9763 -32.9761 -32.9745 -32.9744
   -32.9699 -32.9698 -32.9493 -32.9492 -32.8560 -32.8559 -32.8499 -32.8497
   -32.8131 -32.8130 -32.8083 -32.8082 -32.7957 -32.7956 -32.7631 -32.7630
   -32.7212 -32.7211 -32.6880 -32.6879 -32.6764 -32.6763 -32.6583 -32.6582
   -32.6149 -32.6147 -32.5799 -32.5798 -32.5785 -32.5783 -32.5718 -32.5716
   -32.5703 -32.5702 -32.5501 -32.5501 -32.5147 -32.5146 -32.5140 -32.5140
    13.5886  13.5889  14.4517  14.4520  15.8018  15.8020  16.2814  16.2817
    16.4788  16.4791  16.4870  16.4873  16.6067  16.6068  16.6903  16.6905
    16.7825  16.7828  17.3233  17.3236  17.3841  17.3842  17.3878  17.3879
    17.3947  17.3949  17.5556  17.5558  17.8098  17.8099  17.8347  17.8349
    17.9582  17.9585  18.0178  18.0179  18.0645  18.0647  18.0983  18.0985
    18.2636  18.2638  18.3016  18.3018  18.4773  18.4774  19.0411  19.0411
    19.9807  19.9809  20.0392  20.0394  20.1356  20.1358  20.1697  20.1698
    20.1887  20.1889  20.1899  20.1900  20.2995  20.2997  20.4038  20.4040
    20.4145  20.4146  20.5448  20.5450  20.5789  20.5790  20.6572  20.6574
    20.7134  20.7136  20.7600  20.7602  20.8629  20.8630  21.0005  21.0006
    21.5065  21.5066  21.5458  21.5459  22.2384  22.2387  23.1889  23.1893
    24.5126  24.5128

          k = 0.1667-0.5000-0.5000 ( 11336 PWs)   bands (ev):

   -66.7262 -66.7261 -66.7259 -66.7257 -66.6828 -66.6828 -66.6826 -66.6823
   -66.6565 -66.6564 -66.6562 -66.6560 -66.6276 -66.6275 -66.6273 -66.6271
   -32.9914 -32.9914 -32.9914 -32.9912 -32.9780 -32.9780 -32.9779 -32.9779
   -32.9587 -32.9587 -32.9586 -32.9586 -32.8316 -32.8316 -32.8313 -32.8313
   -32.8106 -32.8106 -32.8105 -32.8103 -32.8100 -32.8099 -32.8095 -32.8094
   -32.6894 -32.6893 -32.6890 -32.6890 -32.6819 -32.6819 -32.6819 -32.6817
   -32.5948 -32.5948 -32.5945 -32.5943 -32.5733 -32.5733 -32.5731 -32.5731
   -32.5608 -32.5607 -32.5606 -32.5606 -32.5116 -32.5116 -32.5116 -32.5115
    13.9980  13.9981  13.9983  13.9986  16.0789  16.0791  16.0792  16.0793
    16.5067  16.5068  16.5069  16.5071  16.7385  16.7387  16.7388  16.7388
    17.0464  17.0465  17.0467  17.0468  17.3203  17.3204  17.3205  17.3205
    17.4681  17.4682  17.4682  17.4683  17.8091  17.8092  17.8092  17.8095
    17.9297  17.9300  17.9300  17.9301  18.0147  18.0149  18.0149  18.0151
    18.2625  18.2626  18.2626  18.2630  18.7296  18.7297  18.7300  18.7300
    20.1173  20.1174  20.1174  20.1178  20.1943  20.1944  20.1944  20.1946
    20.3021  20.3021  20.3023  20.3023  20.3116  20.3116  20.3117  20.3118
    20.3392  20.3396  20.3398  20.3398  20.5279  20.5280  20.5281  20.5283
    20.7368  20.7368  20.7371  20.7372  20.9077  20.9077  20.9080  20.9081
    21.5560  21.5561  21.5562  21.5562  22.7103  22.7107  22.7107  22.7109
    25.0339  25.0342

          k = 0.2778 0.2778 0.2778 ( 11332 PWs)   bands (ev):

   -66.7571 -66.7114 -66.7114 -66.7110 -66.6870 -66.6870 -66.6866 -66.6726
   -66.6573 -66.6540 -66.6540 -66.6536 -66.6404 -66.6404 -66.6400 -66.6050
   -33.0280 -33.0279 -33.0279 -32.9777 -32.9777 -32.9777 -32.9610 -32.9609
   -32.9609 -32.9604 -32.9230 -32.9230 -32.8909 -32.8909 -32.8377 -32.8373
   -32.8373 -32.8124 -32.8123 -32.8123 -32.7840 -32.7728 -32.7726 -32.7726
   -32.6666 -32.6657 -32.6655 -32.6655 -32.6642 -32.6639 -32.6639 -32.6576
   -32.6576 -32.6262 -32.6261 -32.6261 -32.5882 -32.5716 -32.5714 -32.5714
   -32.5463 -32.5463 -32.5463 -32.5286 -32.5286 -32.5286 -32.5229 -32.5229
    12.6546  14.6042  14.6042  14.6043  15.5634  15.5635  15.5635  16.2422
    16.2424  16.2424  16.2814  16.2814  16.6485  16.6485  16.6485  16.8557
    17.0626  17.0628  17.0628  17.0756  17.2819  17.2819  17.4767  17.4767
    17.4767  17.6473  17.6473  17.6794  17.6794  17.6794  18.0181  18.0183
    18.0183  18.1716  18.1716  18.1718  18.2796  18.2797  18.2797  18.3367
    18.3367  18.4774  18.4774  18.4776  18.6126  18.6129  18.6129  19.5326
    19.7194  19.8126  19.8127  19.8127  20.0369  20.0371  20.0371  20.1805
    20.1805  20.1805  20.3470  20.3470  20.3790  20.3791  20.3791  20.5179
    20.5183  20.5183  20.6422  20.6422  20.6424  20.6426  20.6426  20.6707
    20.6707  20.9206  20.9207  20.9207  21.1549  21.1549  21.1550  21.2188
    21.2188  21.2826  21.2829  21.2829  22.0355  22.0357  22.0357  24.3297
    24.4570  24.4571

          k = 0.2778 0.2778 0.3889 ( 11342 PWs)   bands (ev):

   -66.7485 -66.7251 -66.7067 -66.7064 -66.6942 -66.6939 -66.6840 -66.6767
   -66.6559 -66.6542 -66.6494 -66.6491 -66.6426 -66.6423 -66.6289 -66.6111
   -33.0142 -33.0142 -33.0032 -32.9764 -32.9764 -32.9736 -32.9652 -32.9617
   -32.9449 -32.9449 -32.9417 -32.9337 -32.9030 -32.8719 -32.8716 -32.8635
   -32.8466 -32.8151 -32.8151 -32.8016 -32.7943 -32.7925 -32.7924 -32.7539
   -32.7062 -32.6932 -32.6684 -32.6657 -32.6505 -32.6503 -32.6369 -32.6367
   -32.6308 -32.6308 -32.6173 -32.5935 -32.5901 -32.5900 -32.5781 -32.5697
   -32.5517 -32.5411 -32.5389 -32.5388 -32.5328 -32.5295 -32.5294 -32.5209
    13.0235  14.0282  14.8557  14.8557  15.3730  15.3730  15.8832  16.4092
    16.4093  16.4272  16.4434  16.4747  16.6765  16.6767  16.6874  16.6978
    16.8280  16.8459  17.1917  17.1918  17.3109  17.4193  17.4801  17.4816
    17.5393  17.5752  17.5753  17.7534  17.7534  17.8136  17.8653  17.8654
    18.0084  18.0084  18.0698  18.0699  18.1135  18.1196  18.1337  18.1478
    18.2201  18.2202  18.2248  18.2772  18.3528  18.3529  18.7652  19.3489
    19.7714  19.9503  19.9854  19.9855  20.0901  20.0902  20.1307  20.1307
    20.2350  20.2920  20.2967  20.3008  20.3008  20.3263  20.4322  20.4459
    20.5735  20.5844  20.6463  20.6466  20.6486  20.6486  20.6827  20.6829
    20.7042  20.7389  20.9168  21.0375  21.0511  21.0512  21.1924  21.1925
    21.2591  21.2983  21.2984  21.3048  21.6811  21.6813  22.5786  23.7300
    24.7922  24.7922

          k = 0.2778 0.2778-0.5000 ( 11350 PWs)   bands (ev):

   -66.7379 -66.7376 -66.7011 -66.7008 -66.7005 -66.7004 -66.6807 -66.6805
   -66.6550 -66.6548 -66.6459 -66.6455 -66.6453 -66.6451 -66.6192 -66.6190
   -32.9957 -32.9956 -32.9956 -32.9956 -32.9716 -32.9714 -32.9694 -32.9692
   -32.9550 -32.9548 -32.9090 -32.9089 -32.9086 -32.9085 -32.8773 -32.8771
   -32.8332 -32.8330 -32.8077 -32.8076 -32.8076 -32.8075 -32.7501 -32.7500
   -32.7233 -32.7232 -32.6691 -32.6689 -32.6389 -32.6387 -32.6387 -32.6386
   -32.6122 -32.6121 -32.6118 -32.6116 -32.5818 -32.5816 -32.5718 -32.5717
   -32.5651 -32.5648 -32.5330 -32.5329 -32.5329 -32.5328 -32.5244 -32.5243
    13.4895  13.4899  15.1274  15.1275  15.1277  15.1278  16.2732  16.2735
    16.5675  16.5675  16.5676  16.5677  16.5985  16.5987  16.6122  16.6126
    16.7095  16.7097  17.3600  17.3603  17.4448  17.4450  17.4807  17.4808
    17.4810  17.4812  17.7100  17.7101  17.7103  17.7105  17.7732  17.7732
    17.9865  17.9867  18.0762  18.0765  18.0766  18.0767  18.1238  18.1241
    18.1242  18.1242  18.1528  18.1530  18.2042  18.2044  19.0186  19.0186
    20.0284  20.0286  20.0981  20.0983  20.1063  20.1064  20.1065  20.1065
    20.1584  20.1585  20.1586  20.1586  20.4661  20.4663  20.5004  20.5006
    20.5626  20.5628  20.5982  20.5983  20.6478  20.6480  20.6841  20.6842
    20.6844  20.6844  20.8567  20.8568  21.2565  21.2565  21.2566  21.2567
    21.3146  21.3147  21.3448  21.3452  21.3452  21.3453  23.1479  23.1482
    25.0648  25.0649

          k = 0.2778 0.3889 0.3889 ( 11367 PWs)   bands (ev):

   -66.7407 -66.7194 -66.7191 -66.7034 -66.7022 -66.6908 -66.6905 -66.6817
   -66.6534 -66.6503 -66.6500 -66.6443 -66.6425 -66.6324 -66.6322 -66.6165
   -33.0039 -32.9917 -32.9917 -32.9754 -32.9729 -32.9729 -32.9601 -32.9489
   -32.9488 -32.9482 -32.9382 -32.9095 -32.8996 -32.8954 -32.8727 -32.8488
   -32.8487 -32.8311 -32.8309 -32.8306 -32.8229 -32.8228 -32.8180 -32.7456
   -32.7230 -32.6643 -32.6640 -32.6510 -32.6509 -32.6503 -32.6337 -32.6286
   -32.6151 -32.6120 -32.6031 -32.5993 -32.5991 -32.5812 -32.5811 -32.5750
   -32.5508 -32.5501 -32.5500 -32.5429 -32.5300 -32.5300 -32.5274 -32.5241
    13.3784  14.3275  14.3276  15.0429  15.1289  15.6932  15.6932  16.4527
    16.5396  16.5547  16.6256  16.6437  16.6438  16.7237  16.7238  16.8611
    16.9273  17.0158  17.0159  17.1453  17.3835  17.4505  17.4510  17.5078
    17.5078  17.5618  17.5619  17.6372  17.6547  17.7468  17.7490  17.9140
    17.9149  17.9150  17.9223  17.9224  17.9349  17.9351  17.9680  18.0626
    18.0628  18.0899  18.1069  18.1367  18.1866  18.4473  18.4476  18.9805
    20.0399  20.0918  20.0919  20.1094  20.1539  20.2234  20.2700  20.2959
    20.2960  20.3047  20.3056  20.3056  20.3645  20.3646  20.4310  20.5243
    20.5644  20.5678  20.5681  20.5822  20.6311  20.6432  20.6435  20.6945
    20.7023  20.7025  20.7559  20.8030  21.0557  21.0559  21.0897  21.2677
    21.2678  21.2705  21.3147  21.3335  21.3839  22.1618  22.1620  23.1885
    25.2138  25.7848

          k = 0.2778 0.3889-0.5000 ( 11348 PWs)   bands (ev):

   -66.7309 -66.7307 -66.7120 -66.7117 -66.6969 -66.6967 -66.6866 -66.6863
   -66.6516 -66.6514 -66.6470 -66.6467 -66.6370 -66.6367 -66.6237 -66.6234
   -32.9886 -32.9886 -32.9808 -32.9807 -32.9642 -32.9640 -32.9622 -32.9621
   -32.9543 -32.9542 -32.9221 -32.9220 -32.8780 -32.8778 -32.8704 -32.8703
   -32.8522 -32.8520 -32.8380 -32.8379 -32.8338 -32.8337 -32.7881 -32.7881
   -32.6930 -32.6929 -32.6503 -32.6501 -32.6396 -32.6395 -32.6368 -32.6368
   -32.6111 -32.6109 -32.5964 -32.5963 -32.5760 -32.5760 -32.5759 -32.5758
   -32.5719 -32.5717 -32.5469 -32.5468 -32.5278 -32.5277 -32.5254 -32.5253
    13.8224  13.8227  14.6798  14.6801  15.4275  15.4278  16.0740  16.0743
    16.6531  16.6533  16.6632  16.6634  16.8070  16.8071  16.8274  16.8276
    16.8678  16.8680  17.3166  17.3169  17.3433  17.3435  17.4222  17.4224
    17.4399  17.4401  17.6246  17.6248  17.6407  17.6408  17.7752  17.7753
    17.8243  17.8245  17.8461  17.8464  17.9646  17.9647  18.0051  18.0053
    18.0395  18.0398  18.1140  18.1142  18.1750  18.1751  18.6649  18.6650
    20.1986  20.1988  20.2216  20.2218  20.2257  20.2259  20.2454  20.2456
    20.2844  20.2846  20.3265  20.3268  20.4442  20.4444  20.4597  20.4599
    20.5182  20.5184  20.5484  20.5486  20.5843  20.5845  20.6365  20.6367
    20.6703  20.6705  20.8685  20.8686  20.9749  20.9751  21.0559  21.0560
    21.2920  21.2921  21.3128  21.3129  21.7649  21.7652  22.6681  22.6684
    25.5970  25.5973

          k = 0.2778-0.5000-0.5000 ( 11348 PWs)   bands (ev):

   -66.7222 -66.7221 -66.7219 -66.7217 -66.6921 -66.6921 -66.6919 -66.6916
   -66.6491 -66.6490 -66.6488 -66.6485 -66.6298 -66.6297 -66.6295 -66.6292
   -32.9761 -32.9761 -32.9761 -32.9759 -32.9676 -32.9676 -32.9675 -32.9675
   -32.9378 -32.9378 -32.9377 -32.9376 -32.8630 -32.8629 -32.8627 -32.8627
   -32.8518 -32.8518 -32.8518 -32.8517 -32.8293 -32.8292 -32.8289 -32.8289
   -32.6642 -32.6641 -32.6638 -32.6638 -32.6420 -32.6420 -32.6420 -32.6418
   -32.5882 -32.5881 -32.5879 -32.5878 -32.5842 -32.5842 -32.5840 -32.5840
   -32.5626 -32.5625 -32.5625 -32.5624 -32.5257 -32.5257 -32.5257 -32.5256
    14.2305  14.2306  14.2308  14.2310  15.7667  15.7669  15.7671  15.7672
    16.6823  16.6823  16.6825  16.6827  16.9748  16.9750  16.9751  16.9751
    17.0801  17.0802  17.0804  17.0804  17.2763  17.2763  17.2764  17.2765
    17.5371  17.5373  17.5373  17.5374  17.6732  17.6733  17.6733  17.6736
    17.8472  17.8473  17.8473  17.8475  17.8710  17.8712  17.8713  17.8713
    18.0576  18.0576  18.0576  18.0580  18.3681  18.3683  18.3684  18.3684
    20.2575  20.2576  20.2576  20.2579  20.3482  20.3483  20.3484  20.3485
    20.3862  20.3862  20.3863  20.3865  20.4090  20.4091  20.4091  20.4092
    20.5108  20.5109  20.5110  20.5112  20.6420  20.6425  20.6426  20.6426
    20.6520  20.6520  20.6523  20.6525  20.9213  20.9213  20.9214  20.9216
    21.3165  21.3166  21.3167  21.3167  22.2096  22.2101  22.2101  22.2102
    26.1262  26.1265

          k = 0.3889 0.3889 0.3889 ( 11365 PWs)   bands (ev):

   -66.7335 -66.7140 -66.7140 -66.7136 -66.6993 -66.6993 -66.6989 -66.6881
   -66.6496 -66.6443 -66.6443 -66.6439 -66.6353 -66.6353 -66.6349 -66.6211
   -32.9801 -32.9800 -32.9800 -32.9662 -32.9661 -32.9661 -32.9481 -32.9265
   -32.9264 -32.9210 -32.9208 -32.9208 -32.9133 -32.9133 -32.8669 -32.8668
   -32.8668 -32.8592 -32.8588 -32.8588 -32.8511 -32.8510 -32.8510 -32.7813
   -32.6929 -32.6389 -32.6385 -32.6385 -32.6250 -32.6248 -32.6248 -32.6116
   -32.6116 -32.5992 -32.5992 -32.5992 -32.5970 -32.5967 -32.5967 -32.5781
   -32.5495 -32.5494 -32.5494 -32.5436 -32.5436 -32.5394 -32.5394 -32.5394
    13.7247  14.6362  14.6362  14.6363  15.3695  15.3695  15.3695  16.1551
    16.7287  16.7287  16.8014  16.8015  16.8015  16.9721  16.9722  16.9722
    16.9977  16.9978  16.9978  17.0895  17.4391  17.4391  17.5094  17.5094
    17.5848  17.5849  17.5849  17.6068  17.6069  17.6069  17.6956  17.6958
    17.6958  17.8178  17.8178  17.8180  17.8470  17.8472  17.8472  17.8796
    17.8796  17.8797  18.0310  18.0310  18.1346  18.1349  18.1349  18.6089
    20.1985  20.1987  20.1987  20.3363  20.3657  20.3657  20.3658  20.3680
    20.3680  20.3727  20.3729  20.3729  20.4324  20.4326  20.4326  20.5466
    20.5466  20.5758  20.5761  20.5761  20.5940  20.5941  20.5941  20.6765
    20.6765  20.9841  20.9841  20.9963  20.9967  20.9967  21.0721  21.0723
    21.0723  21.1197  21.1197  21.1198  21.7480  21.7483  21.7483  22.6850
    26.4559  26.4560

          k = 0.3889 0.3889-0.5000 ( 11380 PWs)   bands (ev):

   -66.7245 -66.7243 -66.7075 -66.7071 -66.7069 -66.7067 -66.6941 -66.6939
   -66.6467 -66.6464 -66.6396 -66.6392 -66.6390 -66.6388 -66.6276 -66.6273
   -32.9687 -32.9687 -32.9686 -32.9686 -32.9498 -32.9496 -32.9495 -32.9494
   -32.9344 -32.9343 -32.8994 -32.8992 -32.8902 -32.8901 -32.8898 -32.8896
   -32.8837 -32.8835 -32.8680 -32.8680 -32.8679 -32.8679 -32.8200 -32.8199
   -32.6650 -32.6650 -32.6194 -32.6192 -32.6165 -32.6163 -32.6161 -32.6158
   -32.6070 -32.6069 -32.6069 -32.6068 -32.5855 -32.5854 -32.5779 -32.5776
   -32.5691 -32.5689 -32.5464 -32.5464 -32.5464 -32.5463 -32.5398 -32.5397
    14.1544  14.1547  14.9993  14.9993  14.9996  14.9997  15.7595  15.7598
    16.8554  16.8557  16.9046  16.9048  16.9190  16.9190  16.9192  16.9193
    17.0611  17.0613  17.2915  17.2916  17.2918  17.2919  17.4671  17.4672
    17.5091  17.5094  17.5633  17.5635  17.5848  17.5849  17.6993  17.6994
    17.6996  17.6998  17.8127  17.8130  17.8132  17.8132  17.8738  17.8741
    17.8742  17.8743  17.9219  17.9221  17.9421  17.9424  18.3025  18.3026
    20.2882  20.2885  20.3073  20.3073  20.3075  20.3075  20.4353  20.4355
    20.4355  20.4356  20.4569  20.4571  20.4807  20.4809  20.5449  20.5450
    20.5640  20.5642  20.5692  20.5693  20.5695  20.5695  20.6539  20.6541
    20.6932  20.6934  20.8465  20.8466  21.0689  21.0689  21.0689  21.0691
    21.0885  21.0886  21.3630  21.3635  21.3636  21.3636  22.2081  22.2085
    26.7672  26.7674

          k = 0.3889-0.5000-0.5000 ( 11368 PWs)   bands (ev):

   -66.7166 -66.7165 -66.7163 -66.7161 -66.7012 -66.7011 -66.7009 -66.7007
   -66.6426 -66.6425 -66.6424 -66.6421 -66.6329 -66.6328 -66.6326 -66.6324
   -32.9534 -32.9534 -32.9534 -32.9532 -32.9495 -32.9494 -32.9493 -32.9493
   -32.9121 -32.9121 -32.9119 -32.9119 -32.8948 -32.8947 -32.8946 -32.8945
   -32.8902 -32.8902 -32.8902 -32.8900 -32.8551 -32.8551 -32.8548 -32.8548
   -32.6393 -32.6393 -32.6391 -32.6390 -32.6054 -32.6054 -32.6054 -32.6053
   -32.5989 -32.5989 -32.5987 -32.5987 -32.5807 -32.5807 -32.5805 -32.5804
   -32.5671 -32.5671 -32.5670 -32.5669 -32.5466 -32.5466 -32.5466 -32.5465
    14.5591  14.5592  14.5594  14.5596  15.3773  15.3775  15.3776  15.3778
    16.9215  16.9216  16.9217  16.9219  17.1255  17.1255  17.1257  17.1258
    17.2089  17.2090  17.2091  17.2092  17.2282  17.2282  17.2284  17.2284
    17.6178  17.6180  17.6180  17.6180  17.6332  17.6334  17.6334  17.6336
    17.6360  17.6361  17.6361  17.6364  17.7930  17.7933  17.7933  17.7933
    17.8571  17.8572  17.8572  17.8575  18.0049  18.0051  18.0053  18.0053
    20.3433  20.3433  20.3434  20.3437  20.3986  20.3986  20.3988  20.3989
    20.4830  20.4831  20.4833  20.4834  20.5516  20.5517  20.5519  20.5521
    20.5676  20.5678  20.5678  20.5679  20.6163  20.6163  20.6164  20.6166
    20.8847  20.8847  20.8848  20.8850  20.9983  20.9989  20.9989  20.9989
    21.0437  21.0439  21.0439  21.0439  21.7773  21.7778  21.7778  21.7779
    27.3193  27.3195

          k =-0.5000-0.5000-0.5000 ( 11296 PWs)   bands (ev):

   -66.7097 -66.7097 -66.7097 -66.7091 -66.7091 -66.7091 -66.7088 -66.7088
   -66.6373 -66.6373 -66.6373 -66.6367 -66.6367 -66.6367 -66.6364 -66.6364
   -32.9244 -32.9244 -32.9244 -32.9242 -32.9242 -32.9242 -32.9240 -32.9240
   -32.9238 -32.9238 -32.9238 -32.9237 -32.9237 -32.9237 -32.9237 -32.9237
   -32.8840 -32.8837 -32.8837 -32.8837 -32.8836 -32.8832 -32.8832 -32.8832
   -32.6172 -32.6168 -32.6168 -32.6168 -32.6167 -32.6163 -32.6163 -32.6163
   -32.5739 -32.5739 -32.5738 -32.5736 -32.5736 -32.5735 -32.5735 -32.5735
   -32.5734 -32.5733 -32.5733 -32.5731 -32.5731 -32.5731 -32.5731 -32.5730
    14.9558  14.9559  14.9559  14.9560  14.9561  14.9562  14.9562  14.9565
    17.1766  17.1766  17.1766  17.1767  17.1768  17.1768  17.1768  17.1768
    17.1769  17.1769  17.1769  17.1770  17.1771  17.1771  17.1773  17.1773
    17.6875  17.6881  17.6881  17.6881  17.6883  17.6884  17.6884  17.6884
    17.7051  17.7051  17.7053  17.7053  17.7053  17.7056  17.7056  17.7056
    17.7057  17.7057  17.7057  17.7058  17.7058  17.7058  17.7060  17.7061
    20.4447  20.4448  20.4448  20.4448  20.4448  20.4448  20.4452  20.4453
    20.4453  20.4453  20.4454  20.4454  20.4454  20.4455  20.4455  20.4455
    20.7847  20.7847  20.7847  20.7847  20.7847  20.7850  20.7850  20.7850
    20.7850  20.7850  20.7850  20.7852  20.7852  20.7852  20.7855  20.7855
    21.3779  21.3790  21.3790  21.3790  21.3790  21.3790  21.3790  21.3791
    28.4880  28.4881

     the Fermi energy is    20.5119 ev

!    total energy              =   -5267.70718507 Ry
     Harris-Foulkes estimate   =   -5267.70721611 Ry
     estimated scf accuracy    <       0.00004156 Ry

     total all-electron energy =    -40728.451714 Ry

     The total energy is the sum of the following terms:

     one-electron contribution =   -1620.21148820 Ry
     hartree contribution      =     989.35821446 Ry
     xc contribution           =    -443.01066051 Ry
     ewald contribution        =   -2868.95025592 Ry
     one-center paw contrib.   =   -1324.76214377 Ry
     smearing contrib. (-TS)   =      -0.13085113 Ry

     convergence has been achieved in  10 iterations

     Forces acting on atoms (cartesian axes, Ry/au):

     atom    1 type  1   force =     0.00000000    0.00000000    0.00000000
     atom    2 type  1   force =     0.00011834    0.00011834    0.00011834
     atom    3 type  1   force =     0.00000000    0.00000000    0.00000000
     atom    4 type  1   force =     0.00011834    0.00011834   -0.00011834
     atom    5 type  1   force =     0.00000000    0.00000000    0.00000000
     atom    6 type  1   force =     0.00011834   -0.00011834    0.00011834
     atom    7 type  1   force =     0.00000000    0.00000000    0.00000000
     atom    8 type  1   force =     0.00011834   -0.00011834   -0.00011834
     atom    9 type  1   force =     0.00000000    0.00000000    0.00000000
     atom   10 type  1   force =    -0.00011834    0.00011834    0.00011834
     atom   11 type  1   force =     0.00000000    0.00000000    0.00000000
     atom   12 type  1   force =    -0.00011834    0.00011834   -0.00011834
     atom   13 type  1   force =     0.00000000    0.00000000    0.00000000
     atom   14 type  1   force =    -0.00011834   -0.00011834    0.00011834
     atom   15 type  1   force =     0.00000000    0.00000000    0.00000000
     atom   16 type  1   force =    -0.00011834   -0.00011834   -0.00011834

     Total force =     0.000580     Total SCF correction =     0.000164
     SCF correction compared to forces is large: reduce conv_thr to get better values


     Computing stress (Cartesian axis) and pressure

          total   stress  (Ry/bohr**3)                   (kbar)     P=   41.17
   0.00027988   0.00000000   0.00000000         41.17      0.00      0.00
   0.00000000   0.00027988   0.00000000          0.00     41.17      0.00
   0.00000000   0.00000000   0.00027988          0.00      0.00     41.17


     Writing output data file lMDrTBRydkeYyetS.save/
 
     init_run     :      3.13s CPU      3.37s WALL (       1 calls)
     electrons    :    114.68s CPU    118.33s WALL (       1 calls)
     forces       :      1.08s CPU      1.18s WALL (       1 calls)
     stress       :      2.81s CPU      2.86s WALL (       1 calls)

     Called by init_run:
     wfcinit      :      2.86s CPU      2.99s WALL (       1 calls)
     potinit      :      0.09s CPU      0.12s WALL (       1 calls)
     hinit0       :      0.10s CPU      0.12s WALL (       1 calls)

     Called by electrons:
     c_bands      :    102.64s CPU    105.46s WALL (      11 calls)
     sum_band     :     10.87s CPU     11.48s WALL (      11 calls)
     v_of_rho     :      0.12s CPU      0.20s WALL (      11 calls)
     newd         :      0.16s CPU      0.20s WALL (      11 calls)
     PAW_pot      :      0.87s CPU      0.93s WALL (      11 calls)
     mix_rho      :      0.04s CPU      0.06s WALL (      11 calls)

     Called by c_bands:
     init_us_2    :      0.55s CPU      0.56s WALL (     875 calls)
     cegterg      :     99.99s CPU    102.78s WALL (     385 calls)

     Called by sum_band:
     sum_band:bec :      0.15s CPU      0.15s WALL (     385 calls)
     addusdens    :      0.15s CPU      0.20s WALL (      11 calls)

     Called by *egterg:
     h_psi        :     42.95s CPU     44.64s WALL (    1340 calls)
     s_psi        :      2.26s CPU      2.28s WALL (    1340 calls)
     g_psi        :      0.09s CPU      0.09s WALL (     920 calls)
     cdiaghg      :     46.21s CPU     46.37s WALL (    1270 calls)

     Called by h_psi:
     h_psi:pot    :     42.72s CPU     44.42s WALL (    1340 calls)
     h_psi:calbec :      3.52s CPU      4.10s WALL (    1340 calls)
     vloc_psi     :     36.91s CPU     38.00s WALL (    1340 calls)
     add_vuspsi   :      2.29s CPU      2.31s WALL (    1340 calls)

     General routines
     calbec       :      5.86s CPU      6.79s WALL (    1900 calls)
     fft          :      0.17s CPU      0.32s WALL (     168 calls)
     ffts         :      0.03s CPU      0.06s WALL (      22 calls)
     fftw         :     42.89s CPU     44.18s WALL (  327022 calls)
     interpolate  :      0.03s CPU      0.05s WALL (      11 calls)
 
     Parallel routines
     fft_scatt_xy :      2.86s CPU      2.95s WALL (  327212 calls)
     fft_scatt_yz :     28.87s CPU     29.91s WALL (  327212 calls)
 
     PWSCF        :  2m 4.44s CPU     2m11.72s WALL

 
   This run was terminated on:   6:18: 3   5Sep2020            

=------------------------------------------------------------------------------=
   JOB DONE.
=------------------------------------------------------------------------------=
