--------------------------------------------------------------------------
WARNING: There was an error initializing an OpenFabrics device.

  Local host:   bear-pg0211u07b
  Local device: mlx5_0
--------------------------------------------------------------------------

     Program PWSCF v.6.3 starts on  5Sep2020 at  7:52: 3 

     This program is part of the open-source Quantum ESPRESSO suite
     for quantum simulation of materials; please cite
         "P. Giannozzi et al., J. Phys.:Condens. Matter 21 395502 (2009);
         "P. Giannozzi et al., J. Phys.:Condens. Matter 29 465901 (2017);
          URL http://www.quantum-espresso.org", 
     in publications or presentations arising from this work. More details at
     http://www.quantum-espresso.org/quote

     Parallel version (MPI & OpenMP), running on      40 processor cores
     Number of MPI processes:                40
     Threads/MPI process:                     1

     MPI processes distributed on     1 nodes
     R & G space division:  proc/nbgrp/npool/nimage =      40
     Reading input from wd/ec/ec_3_002.in
Warning: card &IONS ignored
Warning: card ION_DYNAMICS = 'BFGS', ignored
Warning: card / ignored
Warning: card &CELL ignored
Warning: card CELL_DYNAMICS = 'BFGS', ignored
Warning: card CELL_FACTOR = 2.0, ignored
Warning: card PRESS = 0.0, ignored
Warning: card / ignored

     Current dimensions of program PWSCF are:
     Max number of different atomic species (ntypx) = 10
     Max number of k-points (npk) =  40000
     Max angular momentum in pseudopotentials (lmaxx) =  3
               file Fe.pbe-spn-kjpaw_psl.1.0.0.UPF: wavefunction(s)  3P 3D renormalized

     Subspace diagonalization in iterative solution of the eigenvalue problem:
     a serial algorithm will be used

 
     Parallelization info
     --------------------
     sticks:   dense  smooth     PW     G-vecs:    dense   smooth      PW
     Min          92      60     17                 4226     2267     339
     Max          93      62     18                 4231     2271     343
     Sum        3705    2441    681               169133    90799   13613
 


     bravais-lattice index     =            0
     lattice parameter (alat)  =      10.3915  a.u.
     unit-cell volume          =    1122.7986 (a.u.)^3
     number of atoms/cell      =           16
     number of atomic types    =            1
     number of electrons       =       256.00
     number of Kohn-Sham states=          154
     kinetic-energy cutoff     =      71.0000  Ry
     charge density cutoff     =     430.0000  Ry
     convergence threshold     =      5.0E-05
     mixing beta               =       0.1000
     number of iterations used =           10  plain     mixing
     Exchange-correlation      = SLA PW PBX PBC ( 1  4  3  4 0 0)

     celldm(1)=  10.391466  celldm(2)=   0.000000  celldm(3)=   0.000000
     celldm(4)=   0.000000  celldm(5)=   0.000000  celldm(6)=   0.000000

     crystal axes: (cart. coord. in units of alat)
               a(1) = (   1.000000   0.000000   0.000000 )  
               a(2) = (   0.000000   1.000000   0.000000 )  
               a(3) = (   0.000000   0.000000   1.000625 )  

     reciprocal axes: (cart. coord. in units 2 pi/alat)
               b(1) = (  1.000000  0.000000  0.000000 )  
               b(2) = (  0.000000  1.000000  0.000000 )  
               b(3) = (  0.000000  0.000000  0.999375 )  


     PseudoPot. # 1 for Fe read from file:
     /rds/homes/b/bxp912/pp/Fe.pbe-spn-kjpaw_psl.1.0.0.UPF
     MD5 check sum: 42f43b795421b414b0dc916aa790dbcb
     Pseudo is Projector augmented-wave + core cor, Zval = 16.0
     Generated using "atomic" code by A. Dal Corso v.6.3
     Shape of augmentation charge: PSQ
     Using radial grid of 1191 points,  6 beta functions with: 
                l(1) =   0
                l(2) =   0
                l(3) =   1
                l(4) =   1
                l(5) =   2
                l(6) =   2
     Q(r) pseudized with 0 coefficients 


     atomic species   valence    mass     pseudopotential
        Fe            16.00    55.84500     Fe( 1.00)

     16 Sym. Ops., with inversion, found



   Cartesian axes

     site n.     atom                  positions (alat units)
         1           Fe  tau(   1) = (   0.0000000   0.0000000   0.0000000  )
         2           Fe  tau(   2) = (   0.2500089   0.2500089   0.2501652  )
         3           Fe  tau(   3) = (   0.0000000   0.0000000   0.5003120  )
         4           Fe  tau(   4) = (   0.2500089   0.2500089   0.7504598  )
         5           Fe  tau(   5) = (   0.0000000   0.5000001   0.0000000  )
         6           Fe  tau(   6) = (   0.2500089   0.7499912   0.2501652  )
         7           Fe  tau(   7) = (   0.0000000   0.5000001   0.5003120  )
         8           Fe  tau(   8) = (   0.2500089   0.7499912   0.7504598  )
         9           Fe  tau(   9) = (   0.5000001   0.0000000   0.0000000  )
        10           Fe  tau(  10) = (   0.7499912   0.2500089   0.2501652  )
        11           Fe  tau(  11) = (   0.5000001   0.0000000   0.5003120  )
        12           Fe  tau(  12) = (   0.7499912   0.2500089   0.7504598  )
        13           Fe  tau(  13) = (   0.5000001   0.5000001   0.0000000  )
        14           Fe  tau(  14) = (   0.7499912   0.7499912   0.2501652  )
        15           Fe  tau(  15) = (   0.5000001   0.5000001   0.5003120  )
        16           Fe  tau(  16) = (   0.7499912   0.7499912   0.7504598  )

     number of k points=    75  Marzari-Vanderbilt smearing, width (Ry)=  0.0400
                       cart. coord. in units 2pi/alat
        k(    1) = (   0.0555556   0.0555556   0.0555209), wk =   0.0219479
        k(    2) = (   0.0555556   0.0555556   0.1665626), wk =   0.0219479
        k(    3) = (   0.0555556   0.0555556   0.2776043), wk =   0.0219479
        k(    4) = (   0.0555556   0.0555556   0.3886460), wk =   0.0219479
        k(    5) = (   0.0555556   0.0555556  -0.4996877), wk =   0.0109739
        k(    6) = (   0.0555556   0.1666667   0.0555209), wk =   0.0438957
        k(    7) = (   0.0555556   0.1666667   0.1665626), wk =   0.0438957
        k(    8) = (   0.0555556   0.1666667   0.2776043), wk =   0.0438957
        k(    9) = (   0.0555556   0.1666667   0.3886460), wk =   0.0438957
        k(   10) = (   0.0555556   0.1666667  -0.4996877), wk =   0.0219479
        k(   11) = (   0.0555556   0.2777778   0.0555209), wk =   0.0438957
        k(   12) = (   0.0555556   0.2777778   0.1665626), wk =   0.0438957
        k(   13) = (   0.0555556   0.2777778   0.2776043), wk =   0.0438957
        k(   14) = (   0.0555556   0.2777778   0.3886460), wk =   0.0438957
        k(   15) = (   0.0555556   0.2777778  -0.4996877), wk =   0.0219479
        k(   16) = (   0.0555556   0.3888889   0.0555209), wk =   0.0438957
        k(   17) = (   0.0555556   0.3888889   0.1665626), wk =   0.0438957
        k(   18) = (   0.0555556   0.3888889   0.2776043), wk =   0.0438957
        k(   19) = (   0.0555556   0.3888889   0.3886460), wk =   0.0438957
        k(   20) = (   0.0555556   0.3888889  -0.4996877), wk =   0.0219479
        k(   21) = (   0.0555556  -0.5000000   0.0555209), wk =   0.0219479
        k(   22) = (   0.0555556  -0.5000000   0.1665626), wk =   0.0219479
        k(   23) = (   0.0555556  -0.5000000   0.2776043), wk =   0.0219479
        k(   24) = (   0.0555556  -0.5000000   0.3886460), wk =   0.0219479
        k(   25) = (   0.0555556  -0.5000000  -0.4996877), wk =   0.0109739
        k(   26) = (   0.1666667   0.1666667   0.0555209), wk =   0.0219479
        k(   27) = (   0.1666667   0.1666667   0.1665626), wk =   0.0219479
        k(   28) = (   0.1666667   0.1666667   0.2776043), wk =   0.0219479
        k(   29) = (   0.1666667   0.1666667   0.3886460), wk =   0.0219479
        k(   30) = (   0.1666667   0.1666667  -0.4996877), wk =   0.0109739
        k(   31) = (   0.1666667   0.2777778   0.0555209), wk =   0.0438957
        k(   32) = (   0.1666667   0.2777778   0.1665626), wk =   0.0438957
        k(   33) = (   0.1666667   0.2777778   0.2776043), wk =   0.0438957
        k(   34) = (   0.1666667   0.2777778   0.3886460), wk =   0.0438957
        k(   35) = (   0.1666667   0.2777778  -0.4996877), wk =   0.0219479
        k(   36) = (   0.1666667   0.3888889   0.0555209), wk =   0.0438957
        k(   37) = (   0.1666667   0.3888889   0.1665626), wk =   0.0438957
        k(   38) = (   0.1666667   0.3888889   0.2776043), wk =   0.0438957
        k(   39) = (   0.1666667   0.3888889   0.3886460), wk =   0.0438957
        k(   40) = (   0.1666667   0.3888889  -0.4996877), wk =   0.0219479
        k(   41) = (   0.1666667  -0.5000000   0.0555209), wk =   0.0219479
        k(   42) = (   0.1666667  -0.5000000   0.1665626), wk =   0.0219479
        k(   43) = (   0.1666667  -0.5000000   0.2776043), wk =   0.0219479
        k(   44) = (   0.1666667  -0.5000000   0.3886460), wk =   0.0219479
        k(   45) = (   0.1666667  -0.5000000  -0.4996877), wk =   0.0109739
        k(   46) = (   0.2777778   0.2777778   0.0555209), wk =   0.0219479
        k(   47) = (   0.2777778   0.2777778   0.1665626), wk =   0.0219479
        k(   48) = (   0.2777778   0.2777778   0.2776043), wk =   0.0219479
        k(   49) = (   0.2777778   0.2777778   0.3886460), wk =   0.0219479
        k(   50) = (   0.2777778   0.2777778  -0.4996877), wk =   0.0109739
        k(   51) = (   0.2777778   0.3888889   0.0555209), wk =   0.0438957
        k(   52) = (   0.2777778   0.3888889   0.1665626), wk =   0.0438957
        k(   53) = (   0.2777778   0.3888889   0.2776043), wk =   0.0438957
        k(   54) = (   0.2777778   0.3888889   0.3886460), wk =   0.0438957
        k(   55) = (   0.2777778   0.3888889  -0.4996877), wk =   0.0219479
        k(   56) = (   0.2777778  -0.5000000   0.0555209), wk =   0.0219479
        k(   57) = (   0.2777778  -0.5000000   0.1665626), wk =   0.0219479
        k(   58) = (   0.2777778  -0.5000000   0.2776043), wk =   0.0219479
        k(   59) = (   0.2777778  -0.5000000   0.3886460), wk =   0.0219479
        k(   60) = (   0.2777778  -0.5000000  -0.4996877), wk =   0.0109739
        k(   61) = (   0.3888889   0.3888889   0.0555209), wk =   0.0219479
        k(   62) = (   0.3888889   0.3888889   0.1665626), wk =   0.0219479
        k(   63) = (   0.3888889   0.3888889   0.2776043), wk =   0.0219479
        k(   64) = (   0.3888889   0.3888889   0.3886460), wk =   0.0219479
        k(   65) = (   0.3888889   0.3888889  -0.4996877), wk =   0.0109739
        k(   66) = (   0.3888889  -0.5000000   0.0555209), wk =   0.0219479
        k(   67) = (   0.3888889  -0.5000000   0.1665626), wk =   0.0219479
        k(   68) = (   0.3888889  -0.5000000   0.2776043), wk =   0.0219479
        k(   69) = (   0.3888889  -0.5000000   0.3886460), wk =   0.0219479
        k(   70) = (   0.3888889  -0.5000000  -0.4996877), wk =   0.0109739
        k(   71) = (  -0.5000000  -0.5000000   0.0555209), wk =   0.0054870
        k(   72) = (  -0.5000000  -0.5000000   0.1665626), wk =   0.0054870
        k(   73) = (  -0.5000000  -0.5000000   0.2776043), wk =   0.0054870
        k(   74) = (  -0.5000000  -0.5000000   0.3886460), wk =   0.0054870
        k(   75) = (  -0.5000000  -0.5000000  -0.4996877), wk =   0.0027435

     Dense  grid:   169133 G-vectors     FFT dimensions: (  72,  72,  72)

     Smooth grid:    90799 G-vectors     FFT dimensions: (  60,  60,  60)

     Estimated max dynamical RAM per process >      83.28 MB

     Estimated total dynamical RAM >       3.25 GB

     Check: negative/imaginary core charge=   -0.000006    0.000000

     Initial potential from superposition of free atoms

     starting charge  255.99300, renormalised to  256.00000
     Starting wfcs are  160 randomized atomic wfcs
     Checking if some PAW data can be deallocated... 

     total cpu time spent up to now is        7.5 secs

     Self-consistent Calculation

     iteration #  1     ecut=    71.00 Ry     beta= 0.10
     Davidson diagonalization with overlap
     ethr =  1.00E-02,  avg # of iterations =  3.4

     Threshold (ethr) on eigenvalues was too large:
     Diagonalizing with lowered threshold

     Davidson diagonalization with overlap
     ethr =  2.55E-04,  avg # of iterations =  3.1

     total cpu time spent up to now is       61.7 secs

     total energy              =   -5267.75196794 Ry
     Harris-Foulkes estimate   =   -5267.86770440 Ry
     estimated scf accuracy    <       0.73369640 Ry

     iteration #  2     ecut=    71.00 Ry     beta= 0.10
     Davidson diagonalization with overlap
     ethr =  2.87E-04,  avg # of iterations =  1.0

     total cpu time spent up to now is       78.3 secs

     total energy              =   -5267.61787491 Ry
     Harris-Foulkes estimate   =   -5267.76726474 Ry
     estimated scf accuracy    <       0.36373541 Ry

     iteration #  3     ecut=    71.00 Ry     beta= 0.10
     Davidson diagonalization with overlap
     ethr =  1.42E-04,  avg # of iterations =  3.2

     total cpu time spent up to now is      109.2 secs

     total energy              =   -5267.69889304 Ry
     Harris-Foulkes estimate   =   -5267.72171328 Ry
     estimated scf accuracy    <       0.53951145 Ry

     iteration #  4     ecut=    71.00 Ry     beta= 0.10
     Davidson diagonalization with overlap
     ethr =  1.42E-04,  avg # of iterations =  1.0

     total cpu time spent up to now is      125.5 secs

     total energy              =   -5267.70556877 Ry
     Harris-Foulkes estimate   =   -5267.71112776 Ry
     estimated scf accuracy    <       0.03084480 Ry

     iteration #  5     ecut=    71.00 Ry     beta= 0.10
     Davidson diagonalization with overlap
     ethr =  1.20E-05,  avg # of iterations =  1.9

     total cpu time spent up to now is      145.3 secs

     total energy              =   -5267.70471810 Ry
     Harris-Foulkes estimate   =   -5267.70748776 Ry
     estimated scf accuracy    <       0.02176445 Ry

     iteration #  6     ecut=    71.00 Ry     beta= 0.10
     Davidson diagonalization with overlap
     ethr =  8.50E-06,  avg # of iterations =  2.9

     total cpu time spent up to now is      171.2 secs

     total energy              =   -5267.70799734 Ry
     Harris-Foulkes estimate   =   -5267.70723899 Ry
     estimated scf accuracy    <       0.01117496 Ry

     iteration #  7     ecut=    71.00 Ry     beta= 0.10
     Davidson diagonalization with overlap
     ethr =  4.37E-06,  avg # of iterations =  1.0

     total cpu time spent up to now is      187.6 secs

     total energy              =   -5267.70674790 Ry
     Harris-Foulkes estimate   =   -5267.70837821 Ry
     estimated scf accuracy    <       0.01314232 Ry

     iteration #  8     ecut=    71.00 Ry     beta= 0.10
     Davidson diagonalization with overlap
     ethr =  4.37E-06,  avg # of iterations =  1.0

     total cpu time spent up to now is      204.3 secs

     total energy              =   -5267.70707319 Ry
     Harris-Foulkes estimate   =   -5267.70754771 Ry
     estimated scf accuracy    <       0.00774039 Ry

     iteration #  9     ecut=    71.00 Ry     beta= 0.10
     Davidson diagonalization with overlap
     ethr =  3.02E-06,  avg # of iterations =  2.1

     total cpu time spent up to now is      225.4 secs

     total energy              =   -5267.70744528 Ry
     Harris-Foulkes estimate   =   -5267.70745549 Ry
     estimated scf accuracy    <       0.00042442 Ry

     iteration # 10     ecut=    71.00 Ry     beta= 0.10
     Davidson diagonalization with overlap
     ethr =  1.66E-07,  avg # of iterations =  2.3

     total cpu time spent up to now is      246.7 secs

     total energy              =   -5267.70745304 Ry
     Harris-Foulkes estimate   =   -5267.70746394 Ry
     estimated scf accuracy    <       0.00019431 Ry

     iteration # 11     ecut=    71.00 Ry     beta= 0.10
     Davidson diagonalization with overlap
     ethr =  7.59E-08,  avg # of iterations =  1.0

     total cpu time spent up to now is      263.1 secs

     End of self-consistent calculation

          k = 0.0556 0.0556 0.0555 ( 11288 PWs)   bands (ev):

   -66.8005 -66.7011 -66.7011 -66.7007 -66.6847 -66.6846 -66.6843 -66.6836
   -66.6836 -66.6832 -66.6829 -66.6828 -66.6825 -66.6755 -66.6754 -66.5991
   -33.0969 -33.0969 -33.0967 -33.0938 -33.0938 -33.0936 -32.9288 -32.9281
   -32.9225 -32.8527 -32.8498 -32.8495 -32.8495 -32.8279 -32.8279 -32.8147
   -32.8142 -32.8142 -32.7770 -32.7769 -32.7525 -32.7363 -32.7362 -32.7360
   -32.7249 -32.7247 -32.7246 -32.7115 -32.7110 -32.7107 -32.7083 -32.7078
   -32.7075 -32.7003 -32.7002 -32.7000 -32.6894 -32.6894 -32.6891 -32.5252
   -32.5236 -32.5235 -32.5234 -32.5205 -32.5203 -32.5203 -32.5187 -32.5185
    11.4535  15.3376  15.3414  15.3414  15.4614  15.4616  15.4616  15.4873
    15.4876  15.4876  15.7294  15.7312  15.8499  15.8538  15.8538  17.2246
    17.3140  17.3149  17.3195  17.3249  17.3249  17.3334  17.3388  17.3388
    17.4551  17.4571  17.5030  17.7563  17.7576  17.7578  18.1507  18.1523
    18.1525  18.6354  18.6383  18.6844  18.9632  18.9633  18.9656  19.0675
    19.0676  19.0696  19.1551  19.1552  19.1578  19.2504  19.2504  19.2530
    19.9984  19.9988  20.0005  20.2213  20.2214  20.2249  20.2492  20.2494
    20.2507  20.3887  20.3887  20.3905  20.3906  20.3935  20.3951  20.4221
    20.4265  20.6760  20.6760  20.6813  20.6862  20.6865  20.6886  20.7317
    20.7320  20.7344  20.7346  21.2213  21.2215  21.2253  21.4475  21.4936
    21.5002  21.5002  21.5262  21.5270  21.9548  21.9549  21.9558  21.9746
    21.9831  21.9831

          k = 0.0556 0.0556 0.1666 ( 11319 PWs)   bands (ev):

   -66.7969 -66.7189 -66.7004 -66.7001 -66.6867 -66.6864 -66.6839 -66.6834
   -66.6830 -66.6825 -66.6820 -66.6817 -66.6761 -66.6757 -66.6666 -66.6018
   -33.0888 -33.0888 -33.0875 -33.0847 -33.0799 -33.0799 -32.9326 -32.9220
   -32.9125 -32.8897 -32.8812 -32.8811 -32.8788 -32.8781 -32.8472 -32.8469
   -32.8116 -32.7837 -32.7736 -32.7718 -32.7597 -32.7360 -32.7357 -32.7276
   -32.7177 -32.7149 -32.7145 -32.7144 -32.7137 -32.7052 -32.7049 -32.7007
   -32.7004 -32.6968 -32.6967 -32.6652 -32.6627 -32.6625 -32.6552 -32.5404
   -32.5330 -32.5330 -32.5316 -32.5288 -32.5242 -32.5236 -32.5236 -32.5212
    11.5913  14.7065  15.3978  15.3979  15.4722  15.4723  15.5523  15.5524
    15.5621  15.5867  15.7920  15.7960  15.8972  15.8972  16.1845  17.1150
    17.2259  17.2341  17.3016  17.3139  17.3483  17.3645  17.3753  17.3753
    17.4167  17.4167  17.6467  17.6586  17.7122  17.7124  18.0530  18.0532
    18.5042  18.6116  18.6309  18.7485  18.7501  18.7502  18.8158  18.9304
    18.9304  18.9738  19.2428  19.2430  19.3592  19.3594  19.3934  19.4942
    19.6861  19.6863  19.7560  19.9796  19.9798  19.9842  20.1458  20.2287
    20.2289  20.3286  20.3287  20.3486  20.4132  20.4134  20.4147  20.4409
    20.4562  20.4725  20.4726  20.4993  20.6914  20.7107  20.7109  20.7322
    20.7324  20.9088  21.0163  21.0164  21.1812  21.2734  21.3876  21.5084
    21.5084  21.5184  21.5560  21.5562  21.8579  21.8580  22.0282  22.0282
    22.1203  22.1203

          k = 0.0556 0.0556 0.2776 ( 11335 PWs)   bands (ev):

   -66.7902 -66.7363 -66.6989 -66.6986 -66.6891 -66.6888 -66.6830 -66.6829
   -66.6826 -66.6816 -66.6815 -66.6812 -66.6772 -66.6766 -66.6509 -66.6070
   -33.0705 -33.0704 -33.0695 -33.0675 -33.0559 -33.0559 -32.9335 -32.9317
   -32.9262 -32.9229 -32.9229 -32.9093 -32.9008 -32.8976 -32.8916 -32.8914
   -32.8062 -32.7964 -32.7938 -32.7788 -32.7339 -32.7336 -32.7291 -32.7286
   -32.7242 -32.7189 -32.7186 -32.7034 -32.7030 -32.7008 -32.7004 -32.6811
   -32.6734 -32.6614 -32.6613 -32.6321 -32.6294 -32.6292 -32.6229 -32.5663
   -32.5486 -32.5485 -32.5471 -32.5454 -32.5359 -32.5331 -32.5331 -32.5307
    11.8629  14.0297  15.4847  15.4847  15.5099  15.5100  15.6507  15.6508
    15.7557  15.7774  15.9081  15.9245  15.9475  15.9475  16.3284  16.9520
    16.9933  16.9986  17.1828  17.2318  17.2694  17.2799  17.4876  17.4876
    17.5563  17.5563  17.7037  17.7039  17.9005  17.9222  17.9847  17.9849
    18.4601  18.4601  18.5947  18.6221  18.6221  18.6243  18.6609  18.7080
    18.8418  19.1054  19.1225  19.1227  19.3395  19.3397  19.5021  19.5023
    19.5244  19.5403  19.5405  19.5517  19.5986  19.6731  19.7841  20.2039
    20.2288  20.2289  20.3270  20.3271  20.4521  20.4661  20.5126  20.5326
    20.5328  20.6713  20.6722  20.6968  20.7270  20.7289  20.7387  20.7660
    20.7660  20.7793  20.9727  21.0103  21.1372  21.2118  21.2118  21.4461
    21.5231  21.5232  21.6097  21.6098  21.7306  21.7306  22.1098  22.1098
    22.2548  22.2548

          k = 0.0556 0.0556 0.3886 ( 11343 PWs)   bands (ev):

   -66.7803 -66.7528 -66.6968 -66.6965 -66.6916 -66.6913 -66.6824 -66.6820
   -66.6817 -66.6814 -66.6812 -66.6804 -66.6786 -66.6777 -66.6369 -66.6147
   -33.0436 -33.0425 -33.0425 -33.0424 -33.0226 -33.0226 -32.9730 -32.9707
   -32.9664 -32.9664 -32.9381 -32.9380 -32.9321 -32.9167 -32.8907 -32.8780
   -32.8383 -32.8255 -32.7798 -32.7677 -32.7442 -32.7378 -32.7308 -32.7305
   -32.7230 -32.7226 -32.7019 -32.7015 -32.7007 -32.7004 -32.6838 -32.6385
   -32.6343 -32.6268 -32.6267 -32.6021 -32.6001 -32.5977 -32.5976 -32.5934
   -32.5699 -32.5698 -32.5696 -32.5695 -32.5533 -32.5486 -32.5485 -32.5468
    12.2599  13.3688  15.5557  15.5558  15.5576  15.5576  15.7690  15.7691
    15.9495  15.9496  16.0258  16.0424  16.0570  16.1136  16.3171  16.6548
    16.6779  16.6858  17.1764  17.1936  17.2309  17.2398  17.6573  17.6573
    17.7515  17.7515  17.8240  17.8242  18.0219  18.0221  18.1991  18.1991
    18.2281  18.2490  18.3135  18.3135  18.5893  18.5919  18.5921  18.6214
    18.6386  18.6494  18.7681  18.7683  18.9675  19.0786  19.0827  19.3123
    19.4155  19.7399  19.7400  19.7673  19.7674  19.9922  19.9934  20.0944
    20.0946  20.1120  20.1928  20.1929  20.5024  20.5115  20.5936  20.6186
    20.6213  20.6870  20.7039  20.7201  20.7261  20.7386  20.8161  20.8192
    20.8345  20.8347  20.9610  21.0540  21.0540  21.2440  21.2440  21.3228
    21.5003  21.5003  21.5413  21.5414  21.6138  21.6139  22.2086  22.2086
    22.3209  22.3210

          k = 0.0556 0.0556-0.4997 ( 11330 PWs)   bands (ev):

   -66.7677 -66.7674 -66.6947 -66.6941 -66.6939 -66.6939 -66.6822 -66.6817
   -66.6814 -66.6814 -66.6803 -66.6800 -66.6792 -66.6788 -66.6249 -66.6245
   -33.0107 -33.0104 -33.0104 -33.0101 -33.0072 -33.0071 -33.0070 -33.0070
   -32.9826 -32.9825 -32.9824 -32.9823 -32.9268 -32.9265 -32.8669 -32.8665
   -32.8540 -32.8537 -32.7621 -32.7618 -32.7535 -32.7531 -32.7272 -32.7269
   -32.7269 -32.7265 -32.7014 -32.7010 -32.7010 -32.7007 -32.6397 -32.6395
   -32.6012 -32.6008 -32.5993 -32.5989 -32.5960 -32.5960 -32.5957 -32.5957
   -32.5757 -32.5753 -32.5704 -32.5703 -32.5702 -32.5702 -32.5680 -32.5677
    12.7685  12.7690  15.5808  15.5808  15.5811  15.5812  15.8810  15.8811
    15.8814  15.8814  16.2078  16.2084  16.3471  16.3475  16.3552  16.3557
    16.3590  16.3592  17.1959  17.1966  17.2054  17.2060  17.8729  17.8731
    17.8732  17.8733  17.9698  17.9699  17.9700  17.9702  18.1774  18.1779
    18.1780  18.1780  18.3379  18.3382  18.3383  18.3383  18.6014  18.6018
    18.6232  18.6236  18.6288  18.6293  18.6368  18.6372  19.1252  19.1253
    19.7253  19.7259  19.9293  19.9293  19.9294  19.9297  20.0038  20.0038
    20.0039  20.0041  20.3376  20.3377  20.4636  20.4638  20.5598  20.5601
    20.5652  20.5654  20.6960  20.6963  20.7119  20.7123  20.7269  20.7273
    21.0927  21.0930  21.0930  21.0930  21.1583  21.1588  21.3054  21.3055
    21.3056  21.3057  21.5626  21.5626  21.5628  21.5628  22.2929  22.2929
    22.2931  22.2931

          k = 0.0556 0.1667 0.0555 ( 11325 PWs)   bands (ev):

   -66.7969 -66.7188 -66.7004 -66.7001 -66.6866 -66.6864 -66.6840 -66.6833
   -66.6831 -66.6824 -66.6820 -66.6817 -66.6761 -66.6758 -66.6665 -66.6018
   -33.0889 -33.0887 -33.0877 -33.0849 -33.0799 -33.0797 -32.9321 -32.9225
   -32.9126 -32.8897 -32.8810 -32.8810 -32.8787 -32.8781 -32.8470 -32.8468
   -32.8117 -32.7838 -32.7737 -32.7721 -32.7600 -32.7363 -32.7358 -32.7275
   -32.7172 -32.7154 -32.7147 -32.7143 -32.7132 -32.7056 -32.7050 -32.7010
   -32.7006 -32.6964 -32.6963 -32.6654 -32.6625 -32.6622 -32.6554 -32.5403
   -32.5332 -32.5330 -32.5314 -32.5287 -32.5243 -32.5237 -32.5235 -32.5212
    11.5915  14.7099  15.3944  15.3980  15.4722  15.4722  15.5522  15.5523
    15.5625  15.5871  15.7932  15.7951  15.8936  15.8973  16.1883  17.1158
    17.2261  17.2362  17.3066  17.3191  17.3499  17.3655  17.3700  17.3753
    17.4114  17.4167  17.6446  17.6563  17.7112  17.7123  18.0519  18.0533
    18.5056  18.6109  18.6331  18.7466  18.7470  18.7509  18.8139  18.9274
    18.9314  18.9730  19.2458  19.2461  19.3622  19.3627  19.3906  19.4913
    19.6865  19.6897  19.7538  19.9803  19.9808  19.9842  20.1412  20.2287
    20.2303  20.3278  20.3326  20.3519  20.4103  20.4114  20.4167  20.4365
    20.4532  20.4725  20.4737  20.4983  20.6891  20.7119  20.7121  20.7303
    20.7305  20.9060  21.0165  21.0197  21.1860  21.2730  21.3867  21.5021
    21.5085  21.5190  21.5559  21.5587  21.8580  21.8589  22.0202  22.0284
    22.1202  22.1228

          k = 0.0556 0.1667 0.1666 ( 11325 PWs)   bands (ev):

   -66.7936 -66.7177 -66.7174 -66.6995 -66.6915 -66.6861 -66.6858 -66.6829
   -66.6816 -66.6814 -66.6779 -66.6770 -66.6759 -66.6669 -66.6666 -66.6044
   -33.0869 -33.0801 -33.0799 -33.0720 -33.0718 -33.0603 -32.9395 -32.9184
   -32.9134 -32.9081 -32.9079 -32.9004 -32.8970 -32.8929 -32.8683 -32.8223
   -32.8072 -32.8068 -32.7727 -32.7710 -32.7708 -32.7420 -32.7310 -32.7305
   -32.7246 -32.7222 -32.7217 -32.7111 -32.7106 -32.7082 -32.7051 -32.6963
   -32.6864 -32.6736 -32.6666 -32.6662 -32.6426 -32.6297 -32.6294 -32.5615
   -32.5484 -32.5394 -32.5393 -32.5315 -32.5314 -32.5292 -32.5203 -32.5187
    11.7277  14.7823  14.7854  15.4158  15.4607  15.5746  15.5748  15.6507
    15.6511  15.6624  15.8553  15.8591  15.9496  16.2265  16.2300  17.0163
    17.1287  17.3064  17.3491  17.3541  17.3545  17.3553  17.3863  17.3912
    17.3974  17.4236  17.5217  17.6297  17.6522  17.6700  17.9472  18.3289
    18.3296  18.5505  18.6138  18.6144  18.6156  18.6613  18.8059  18.8509
    19.1520  19.1532  19.2176  19.2192  19.2642  19.3265  19.4278  19.5277
    19.5313  19.5371  19.5406  19.7279  19.7320  19.8805  19.9854  19.9872
    20.2213  20.3372  20.3502  20.3542  20.4059  20.4083  20.4123  20.4339
    20.4357  20.6143  20.6621  20.6957  20.6959  20.7115  20.7123  20.7226
    20.7239  20.8257  20.8279  21.0443  21.1531  21.1555  21.1675  21.1721
    21.2843  21.5393  21.5450  21.6772  21.7492  22.1034  22.4276  22.4290
    22.6175  22.7686

          k = 0.0556 0.1667 0.2776 ( 11345 PWs)   bands (ev):

   -66.7869 -66.7345 -66.7150 -66.6981 -66.6967 -66.6883 -66.6849 -66.6825
   -66.6811 -66.6806 -66.6783 -66.6764 -66.6746 -66.6674 -66.6517 -66.6093
   -33.0744 -33.0628 -33.0627 -33.0566 -33.0496 -33.0310 -32.9471 -32.9457
   -32.9434 -32.9322 -32.9298 -32.9281 -32.9059 -32.9030 -32.8770 -32.8531
   -32.8109 -32.8047 -32.7688 -32.7667 -32.7645 -32.7627 -32.7436 -32.7350
   -32.7345 -32.7270 -32.7212 -32.7090 -32.7074 -32.6949 -32.6884 -32.6707
   -32.6685 -32.6543 -32.6455 -32.6341 -32.6172 -32.5994 -32.5993 -32.5922
   -32.5691 -32.5520 -32.5518 -32.5470 -32.5406 -32.5391 -32.5236 -32.5225
    11.9961  14.1238  14.9180  15.3685  15.5595  15.6141  15.7491  15.7713
    15.8009  15.8390  15.9695  15.9861  16.0165  16.2653  16.3771  16.8979
    16.9796  17.0076  17.2439  17.3122  17.3318  17.3426  17.3953  17.4582
    17.4813  17.5174  17.6127  17.6871  17.7952  17.8518  17.8598  18.1981
    18.3543  18.4569  18.4738  18.4938  18.5326  18.5781  18.5988  18.7916
    18.8306  18.9839  19.0159  19.1705  19.2340  19.3138  19.3309  19.3322
    19.4161  19.5121  19.5331  19.5841  19.6146  19.7507  19.7764  20.0979
    20.2253  20.2532  20.2925  20.3278  20.3608  20.3976  20.4353  20.4769
    20.6392  20.6542  20.6560  20.7185  20.7240  20.7447  20.7478  20.7608
    20.8108  20.9219  20.9388  20.9487  20.9607  20.9888  21.0435  21.1432
    21.2610  21.4740  21.5286  21.6083  21.7444  22.2430  22.2657  22.8270
    22.9311  23.0512

          k = 0.0556 0.1667 0.3886 ( 11327 PWs)   bands (ev):

   -66.7772 -66.7504 -66.7114 -66.7019 -66.6959 -66.6909 -66.6834 -66.6819
   -66.6810 -66.6800 -66.6796 -66.6773 -66.6719 -66.6683 -66.6380 -66.6167
   -33.0523 -33.0380 -33.0369 -33.0345 -33.0190 -32.9931 -32.9862 -32.9758
   -32.9697 -32.9684 -32.9489 -32.9425 -32.9408 -32.9020 -32.8876 -32.8538
   -32.8361 -32.7967 -32.7927 -32.7607 -32.7604 -32.7526 -32.7439 -32.7415
   -32.7341 -32.7323 -32.7170 -32.7083 -32.7078 -32.6815 -32.6717 -32.6583
   -32.6327 -32.6293 -32.6226 -32.6172 -32.6046 -32.5945 -32.5919 -32.5724
   -32.5716 -32.5702 -32.5696 -32.5694 -32.5574 -32.5519 -32.5331 -32.5331
    12.3878  13.4777  15.0735  15.3082  15.6469  15.6598  15.8668  15.9580
    16.0358  16.0456  16.0986  16.1182  16.1692  16.2290  16.3733  16.6873
    16.6884  16.7039  17.2123  17.2556  17.2684  17.2924  17.5664  17.6080
    17.6229  17.6798  17.6808  17.8306  17.9043  18.0412  18.0856  18.1469
    18.2535  18.2648  18.3241  18.3359  18.4557  18.4564  18.5008  18.5373
    18.5508  18.5816  18.6595  18.7992  18.8646  18.8657  19.1415  19.5265
    19.5582  19.7178  19.7193  19.7747  19.7773  19.7963  19.9673  20.0417
    20.0668  20.1218  20.1931  20.2354  20.4051  20.4579  20.4817  20.5595
    20.5953  20.6010  20.6049  20.7160  20.7224  20.7316  20.7321  20.7910
    20.8072  20.8403  20.8765  21.0004  21.0062  21.1013  21.1444  21.2436
    21.2493  21.2550  21.4500  21.6474  21.7273  22.0835  22.4241  22.7571
    23.1062  23.2519

          k = 0.0556 0.1667-0.4997 ( 11326 PWs)   bands (ev):

   -66.7651 -66.7647 -66.7071 -66.7068 -66.6936 -66.6933 -66.6819 -66.6816
   -66.6815 -66.6811 -66.6787 -66.6783 -66.6700 -66.6697 -66.6265 -66.6261
   -33.0223 -33.0222 -33.0071 -33.0068 -33.0066 -33.0063 -33.0045 -33.0044
   -32.9822 -32.9821 -32.9496 -32.9495 -32.9477 -32.9475 -32.8642 -32.8639
   -32.8270 -32.8268 -32.7730 -32.7727 -32.7530 -32.7526 -32.7485 -32.7482
   -32.7375 -32.7372 -32.7079 -32.7076 -32.6761 -32.6757 -32.6716 -32.6716
   -32.6246 -32.6246 -32.5984 -32.5980 -32.5944 -32.5940 -32.5914 -32.5914
   -32.5790 -32.5786 -32.5696 -32.5696 -32.5502 -32.5500 -32.5493 -32.5493
    12.8885  12.8889  15.2113  15.2117  15.6807  15.6811  15.9763  15.9766
    16.1128  16.1130  16.2680  16.2685  16.3699  16.3703  16.3982  16.3987
    16.4047  16.4050  17.2292  17.2299  17.2537  17.2543  17.7684  17.7686
    17.7874  17.7877  17.8150  17.8151  17.8777  17.8781  18.1991  18.1992
    18.2408  18.2409  18.3073  18.3074  18.4264  18.4265  18.4415  18.4418
    18.4480  18.4484  18.4892  18.4895  18.5667  18.5671  19.3233  19.3234
    19.8103  19.8109  19.8378  19.8380  19.9598  19.9600  20.0058  20.0059
    20.0437  20.0439  20.0548  20.0548  20.3940  20.3942  20.5266  20.5268
    20.5398  20.5401  20.6647  20.6650  20.7157  20.7161  20.7545  20.7548
    20.8644  20.8645  20.9657  20.9658  21.0760  21.0762  21.1536  21.1537
    21.3181  21.3185  21.4800  21.4801  21.8943  21.8944  22.6097  22.6099
    23.2407  23.2410

          k = 0.0556 0.2778 0.0555 ( 11326 PWs)   bands (ev):

   -66.7901 -66.7362 -66.6989 -66.6986 -66.6890 -66.6888 -66.6831 -66.6828
   -66.6826 -66.6816 -66.6815 -66.6812 -66.6772 -66.6766 -66.6508 -66.6070
   -33.0704 -33.0702 -33.0697 -33.0676 -33.0558 -33.0557 -32.9330 -32.9318
   -32.9262 -32.9228 -32.9227 -32.9097 -32.9006 -32.8978 -32.8913 -32.8913
   -32.8065 -32.7964 -32.7940 -32.7786 -32.7343 -32.7337 -32.7291 -32.7282
   -32.7235 -32.7193 -32.7187 -32.7037 -32.7031 -32.7011 -32.7005 -32.6810
   -32.6733 -32.6611 -32.6610 -32.6323 -32.6291 -32.6289 -32.6231 -32.5661
   -32.5486 -32.5485 -32.5469 -32.5453 -32.5360 -32.5332 -32.5331 -32.5308
    11.8634  14.0326  15.4820  15.4851  15.5098  15.5100  15.6506  15.6507
    15.7564  15.7781  15.9099  15.9235  15.9448  15.9478  16.3320  16.9538
    16.9937  17.0007  17.1839  17.2332  17.2740  17.2845  17.4825  17.4878
    17.5512  17.5565  17.7028  17.7039  17.8977  17.9194  17.9838  17.9850
    18.4566  18.4609  18.5946  18.6186  18.6229  18.6262  18.6605  18.7067
    18.8392  19.1072  19.1226  19.1255  19.3395  19.3428  19.5046  19.5058
    19.5218  19.5429  19.5437  19.5477  19.5946  19.6703  19.7812  20.2072
    20.2282  20.2326  20.3262  20.3310  20.4482  20.4624  20.5103  20.5326
    20.5339  20.6715  20.6726  20.6946  20.7250  20.7269  20.7381  20.7660
    20.7669  20.7769  20.9756  21.0093  21.1358  21.2109  21.2140  21.4467
    21.5176  21.5236  21.6095  21.6110  21.7307  21.7316  22.1028  22.1104
    22.2537  22.2580

          k = 0.0556 0.2778 0.1666 ( 11351 PWs)   bands (ev):

   -66.7869 -66.7344 -66.7151 -66.6981 -66.6967 -66.6883 -66.6849 -66.6825
   -66.6811 -66.6807 -66.6783 -66.6764 -66.6746 -66.6675 -66.6516 -66.6093
   -33.0744 -33.0630 -33.0625 -33.0567 -33.0493 -33.0310 -32.9470 -32.9456
   -32.9434 -32.9321 -32.9299 -32.9281 -32.9059 -32.9029 -32.8772 -32.8529
   -32.8109 -32.8047 -32.7688 -32.7668 -32.7648 -32.7628 -32.7439 -32.7348
   -32.7344 -32.7275 -32.7208 -32.7096 -32.7076 -32.6946 -32.6884 -32.6707
   -32.6685 -32.6542 -32.6454 -32.6341 -32.6171 -32.5996 -32.5992 -32.5922
   -32.5691 -32.5521 -32.5518 -32.5468 -32.5406 -32.5392 -32.5236 -32.5226
    11.9964  14.1264  14.9155  15.3684  15.5598  15.6140  15.7488  15.7719
    15.8008  15.8397  15.9708  15.9853  16.0167  16.2627  16.3804  16.8988
    16.9807  17.0080  17.2453  17.3166  17.3333  17.3469  17.3946  17.4534
    17.4814  17.5128  17.6128  17.6872  17.7930  17.8517  17.8575  18.1975
    18.3548  18.4551  18.4740  18.4942  18.5315  18.5762  18.5986  18.7915
    18.8315  18.9831  19.0188  19.1737  19.2304  19.3099  19.3307  19.3326
    19.4147  19.5136  19.5351  19.5859  19.6171  19.7488  19.7731  20.0975
    20.2276  20.2569  20.2937  20.3318  20.3607  20.3939  20.4314  20.4751
    20.6391  20.6542  20.6558  20.7176  20.7230  20.7443  20.7462  20.7600
    20.8108  20.9198  20.9383  20.9516  20.9621  20.9895  21.0426  21.1390
    21.2626  21.4742  21.5287  21.6086  21.7444  22.2434  22.2671  22.8294
    22.9225  23.0499

          k = 0.0556 0.2778 0.2776 ( 11336 PWs)   bands (ev):

   -66.7807 -66.7311 -66.7308 -66.7047 -66.6966 -66.6873 -66.6870 -66.6820
   -66.6805 -66.6802 -66.6798 -66.6768 -66.6685 -66.6533 -66.6531 -66.6139
   -33.0681 -33.0479 -33.0477 -33.0376 -33.0374 -32.9969 -32.9628 -32.9627
   -32.9598 -32.9586 -32.9496 -32.9468 -32.9240 -32.8945 -32.8522 -32.8121
   -32.8093 -32.8089 -32.7988 -32.7985 -32.7640 -32.7525 -32.7499 -32.7421
   -32.7416 -32.7286 -32.7281 -32.7197 -32.7193 -32.7140 -32.6748 -32.6467
   -32.6384 -32.6380 -32.6313 -32.6279 -32.6245 -32.6003 -32.5941 -32.5727
   -32.5725 -32.5596 -32.5595 -32.5513 -32.5512 -32.5511 -32.5203 -32.5194
    12.2578  14.2992  14.3014  15.2094  15.6835  15.8131  15.8134  15.9352
    15.9358  15.9616  16.0719  16.1174  16.1190  16.4197  16.4222  16.8363
    16.8971  17.0859  17.0863  17.3042  17.3777  17.4026  17.4067  17.4470
    17.4510  17.5163  17.5358  17.7157  17.7401  17.8391  17.8769  18.2487
    18.2489  18.3581  18.3770  18.3774  18.3901  18.4022  18.4548  18.5648
    18.8106  18.8135  18.8741  18.8773  19.0365  19.0827  19.0837  19.1618
    19.5998  19.6001  19.6583  19.6991  19.7463  19.7487  19.9639  20.0485
    20.0499  20.2188  20.3039  20.3072  20.3322  20.3511  20.3548  20.4145
    20.4510  20.6107  20.6123  20.6197  20.7167  20.7264  20.7614  20.8149
    20.8259  20.8269  20.8782  20.9011  20.9039  21.0119  21.0133  21.1921
    21.1927  21.2323  21.5811  21.7731  21.7860  22.4782  22.8969  22.8981
    23.5014  23.5033

          k = 0.0556 0.2778 0.3886 ( 11338 PWs)   bands (ev):

   -66.7714 -66.7460 -66.7259 -66.7124 -66.6946 -66.6896 -66.6855 -66.6818
   -66.6814 -66.6804 -66.6794 -66.6775 -66.6633 -66.6557 -66.6405 -66.6207
   -33.0521 -33.0266 -33.0263 -33.0206 -33.0120 -32.9975 -32.9797 -32.9735
   -32.9727 -32.9711 -32.9681 -32.9560 -32.9519 -32.8770 -32.8593 -32.8283
   -32.8244 -32.8005 -32.7896 -32.7646 -32.7625 -32.7615 -32.7613 -32.7571
   -32.7556 -32.7486 -32.7327 -32.7190 -32.7176 -32.6915 -32.6693 -32.6628
   -32.6445 -32.6232 -32.6186 -32.6107 -32.6086 -32.6038 -32.5838 -32.5716
   -32.5712 -32.5691 -32.5666 -32.5588 -32.5503 -32.5500 -32.5232 -32.5230
    12.6382  13.6867  14.5322  15.0150  15.8040  15.8572  16.0505  16.0880
    16.1255  16.1820  16.1882  16.2044  16.3031  16.3870  16.4305  16.7030
    16.7047  16.7944  17.2823  17.2900  17.3267  17.3432  17.3735  17.5106
    17.5245  17.5635  17.6471  17.6488  17.9014  17.9898  17.9974  18.0149
    18.1262  18.2244  18.2346  18.2954  18.3075  18.3357  18.4183  18.4437
    18.4594  18.5266  18.5285  18.5428  18.6770  18.7392  19.3610  19.3771
    19.7394  19.7551  19.8114  19.8473  19.8502  19.8573  19.8604  19.9544
    20.0594  20.1127  20.1804  20.2205  20.2437  20.3610  20.3793  20.4062
    20.5051  20.5247  20.5435  20.5482  20.6527  20.7225  20.7370  20.7445
    20.7648  20.8354  20.8432  20.8653  20.8725  20.9481  20.9689  21.0345
    21.3648  21.4245  21.5694  21.7253  22.0404  22.6248  22.7673  23.3218
    23.5741  24.1967

          k = 0.0556 0.2778-0.4997 ( 11344 PWs)   bands (ev):

   -66.7599 -66.7595 -66.7198 -66.7194 -66.6924 -66.6920 -66.6839 -66.6835
   -66.6810 -66.6806 -66.6786 -66.6783 -66.6592 -66.6589 -66.6298 -66.6294
   -33.0282 -33.0282 -33.0010 -33.0009 -33.0007 -33.0005 -33.0003 -33.0002
   -32.9824 -32.9823 -32.9726 -32.9725 -32.9092 -32.9091 -32.8548 -32.8545
   -32.7937 -32.7936 -32.7824 -32.7822 -32.7783 -32.7779 -32.7539 -32.7537
   -32.7463 -32.7461 -32.7189 -32.7187 -32.7152 -32.7152 -32.6562 -32.6562
   -32.6529 -32.6525 -32.5921 -32.5917 -32.5884 -32.5881 -32.5868 -32.5863
   -32.5859 -32.5858 -32.5699 -32.5698 -32.5335 -32.5333 -32.5332 -32.5332
    13.1219  13.1223  14.7822  14.7826  15.8654  15.8658  16.1503  16.1505
    16.2761  16.2763  16.3397  16.3401  16.4044  16.4048  16.4673  16.4677
    16.5310  16.5313  17.2941  17.2947  17.3204  17.3209  17.5875  17.5879
    17.6076  17.6080  17.6185  17.6188  17.8095  17.8096  18.1882  18.1885
    18.2130  18.2131  18.2221  18.2222  18.2539  18.2541  18.2546  18.2550
    18.4136  18.4138  18.4301  18.4302  18.4874  18.4878  19.5771  19.5772
    19.7067  19.7068  19.7726  19.7728  19.9437  19.9442  20.0290  20.0291
    20.0464  20.0465  20.0794  20.0795  20.2237  20.2239  20.4621  20.4623
    20.4749  20.4752  20.6079  20.6082  20.6527  20.6528  20.7360  20.7363
    20.7648  20.7651  20.7849  20.7852  20.8782  20.8784  21.0060  21.0061
    21.4941  21.4944  21.6067  21.6068  22.3321  22.3323  23.0629  23.0631
    24.2692  24.2696

          k = 0.0556 0.3889 0.0555 ( 11337 PWs)   bands (ev):

   -66.7802 -66.7527 -66.6968 -66.6965 -66.6916 -66.6913 -66.6824 -66.6822
   -66.6817 -66.6815 -66.6812 -66.6803 -66.6786 -66.6778 -66.6368 -66.6147
   -33.0437 -33.0426 -33.0424 -33.0422 -33.0225 -33.0223 -32.9731 -32.9707
   -32.9663 -32.9662 -32.9378 -32.9377 -32.9316 -32.9162 -32.8911 -32.8782
   -32.8387 -32.8257 -32.7797 -32.7676 -32.7439 -32.7375 -32.7312 -32.7306
   -32.7234 -32.7228 -32.7023 -32.7017 -32.7011 -32.7006 -32.6839 -32.6383
   -32.6341 -32.6266 -32.6265 -32.6023 -32.5998 -32.5976 -32.5974 -32.5935
   -32.5697 -32.5697 -32.5696 -32.5695 -32.5534 -32.5486 -32.5485 -32.5469
    12.2609  13.3711  15.5553  15.5558  15.5561  15.5582  15.7686  15.7691
    15.9478  15.9500  16.0269  16.0436  16.0593  16.1129  16.3204  16.6549
    16.6798  16.6877  17.1784  17.1957  17.2348  17.2436  17.6525  17.6576
    17.7468  17.7519  17.8231  17.8245  18.0213  18.0215  18.1963  18.1992
    18.2248  18.2458  18.3097  18.3141  18.5892  18.5914  18.5941  18.6226
    18.6375  18.6495  18.7675  18.7704  18.9646  19.0748  19.0788  19.3094
    19.4182  19.7414  19.7434  19.7691  19.7712  19.9897  19.9966  20.0943
    20.0981  20.1093  20.1929  20.1969  20.4993  20.5084  20.5924  20.6176
    20.6203  20.6853  20.7018  20.7181  20.7240  20.7364  20.8141  20.8205
    20.8346  20.8352  20.9608  21.0542  21.0546  21.2428  21.2450  21.3232
    21.5003  21.5010  21.5368  21.5421  21.6130  21.6152  22.2029  22.2098
    22.3184  22.3237

          k = 0.0556 0.3889 0.1666 ( 11327 PWs)   bands (ev):

   -66.7772 -66.7504 -66.7115 -66.7020 -66.6959 -66.6908 -66.6835 -66.6819
   -66.6811 -66.6800 -66.6796 -66.6774 -66.6719 -66.6684 -66.6380 -66.6167
   -33.0523 -33.0381 -33.0367 -33.0346 -33.0188 -32.9930 -32.9861 -32.9759
   -32.9697 -32.9682 -32.9487 -32.9423 -32.9407 -32.9018 -32.8877 -32.8540
   -32.8361 -32.7970 -32.7926 -32.7607 -32.7603 -32.7522 -32.7440 -32.7419
   -32.7338 -32.7328 -32.7171 -32.7087 -32.7083 -32.6815 -32.6717 -32.6581
   -32.6326 -32.6293 -32.6226 -32.6171 -32.6046 -32.5944 -32.5918 -32.5726
   -32.5715 -32.5701 -32.5697 -32.5692 -32.5574 -32.5520 -32.5332 -32.5330
    12.3886  13.4798  15.0717  15.3077  15.6473  15.6600  15.8667  15.9577
    16.0360  16.0465  16.0997  16.1202  16.1684  16.2274  16.3763  16.6872
    16.6898  16.7054  17.2143  17.2577  17.2721  17.2960  17.5656  17.6037
    17.6231  17.6757  17.6808  17.8297  17.9046  18.0414  18.0825  18.1440
    18.2529  18.2631  18.3236  18.3333  18.4563  18.4568  18.5014  18.5391
    18.5494  18.5809  18.6616  18.7985  18.8611  18.8620  19.1401  19.5249
    19.5597  19.7178  19.7191  19.7774  19.7803  19.7978  19.9671  20.0443
    20.0639  20.1251  20.1970  20.2362  20.4042  20.4550  20.4784  20.5584
    20.5942  20.5997  20.6056  20.7149  20.7210  20.7298  20.7308  20.7923
    20.8055  20.8403  20.8744  21.0006  21.0070  21.0977  21.1440  21.2440
    21.2503  21.2556  21.4501  21.6476  21.7279  22.0847  22.4251  22.7591
    23.0992  23.2486

          k = 0.0556 0.3889 0.2776 ( 11332 PWs)   bands (ev):

   -66.7714 -66.7460 -66.7259 -66.7124 -66.6946 -66.6896 -66.6856 -66.6818
   -66.6813 -66.6804 -66.6794 -66.6775 -66.6633 -66.6557 -66.6405 -66.6207
   -33.0521 -33.0267 -33.0261 -33.0207 -33.0118 -32.9974 -32.9797 -32.9734
   -32.9727 -32.9711 -32.9680 -32.9559 -32.9518 -32.8770 -32.8592 -32.8283
   -32.8243 -32.8004 -32.7896 -32.7646 -32.7627 -32.7616 -32.7610 -32.7569
   -32.7558 -32.7490 -32.7324 -32.7194 -32.7178 -32.6914 -32.6694 -32.6628
   -32.6445 -32.6232 -32.6186 -32.6106 -32.6085 -32.6038 -32.5838 -32.5715
   -32.5713 -32.5690 -32.5666 -32.5588 -32.5505 -32.5499 -32.5231 -32.5230
    12.6386  13.6883  14.5307  15.0147  15.8042  15.8571  16.0501  16.0887
    16.1253  16.1821  16.1891  16.2053  16.3030  16.3856  16.4327  16.7038
    16.7056  16.7945  17.2841  17.2894  17.3281  17.3465  17.3767  17.5105
    17.5210  17.5604  17.6472  17.6482  17.8993  17.9897  17.9954  18.0150
    18.1262  18.2238  18.2347  18.2943  18.3077  18.3356  18.4199  18.4430
    18.4616  18.5254  18.5262  18.5400  18.6767  18.7397  19.3604  19.3763
    19.7407  19.7559  19.8103  19.8488  19.8502  19.8580  19.8617  19.9523
    20.0591  20.1142  20.1833  20.2238  20.2446  20.3618  20.3766  20.4032
    20.5043  20.5239  20.5427  20.5472  20.6512  20.7222  20.7383  20.7440
    20.7641  20.8330  20.8432  20.8642  20.8730  20.9482  20.9692  21.0354
    21.3644  21.4251  21.5694  21.7254  22.0407  22.6257  22.7677  23.3233
    23.5733  24.1881

          k = 0.0556 0.3889 0.3886 ( 11327 PWs)   bands (ev):

   -66.7629 -66.7398 -66.7395 -66.7225 -66.6927 -66.6880 -66.6878 -66.6838
   -66.6808 -66.6797 -66.6795 -66.6780 -66.6558 -66.6445 -66.6442 -66.6267
   -33.0424 -33.0118 -33.0116 -33.0030 -33.0028 -33.0002 -33.0002 -32.9855
   -32.9844 -32.9826 -32.9817 -32.9662 -32.9114 -32.8612 -32.8167 -32.8164
   -32.8124 -32.8120 -32.7980 -32.7923 -32.7840 -32.7683 -32.7680 -32.7664
   -32.7522 -32.7322 -32.7319 -32.7260 -32.7255 -32.7250 -32.7151 -32.6550
   -32.6460 -32.6198 -32.6195 -32.6011 -32.5947 -32.5915 -32.5804 -32.5770
   -32.5754 -32.5753 -32.5695 -32.5694 -32.5333 -32.5333 -32.5197 -32.5195
    13.0000  13.9772  13.9783  14.6784  15.9788  16.1223  16.1227  16.2662
    16.2908  16.2915  16.3001  16.3211  16.4293  16.4304  16.5034  16.6202
    16.6773  17.0122  17.0126  17.3282  17.3452  17.4079  17.4288  17.4313
    17.4391  17.4411  17.5266  17.6502  17.7265  17.8413  17.9512  18.0285
    18.0287  18.1232  18.1803  18.1988  18.2132  18.2153  18.2469  18.2485
    18.3813  18.3822  18.3825  18.4688  18.5084  19.0230  19.0236  19.5988
    19.6974  19.7790  19.8408  19.8420  19.9607  19.9609  19.9799  19.9901
    20.1065  20.1074  20.1452  20.2301  20.2672  20.2692  20.2707  20.2854
    20.2876  20.4646  20.4680  20.4805  20.5702  20.6648  20.6661  20.6921
    20.7384  20.7689  20.8018  20.8023  20.8392  20.8951  20.8958  20.9196
    21.5506  21.5509  21.6294  21.7360  22.4170  23.1642  23.2037  23.2043
    23.9351  23.9360

          k = 0.0556 0.3889-0.4997 ( 11346 PWs)   bands (ev):

   -66.7524 -66.7520 -66.7318 -66.7315 -66.6906 -66.6902 -66.6861 -66.6858
   -66.6803 -66.6799 -66.6789 -66.6786 -66.6496 -66.6493 -66.6348 -66.6344
   -33.0248 -33.0248 -32.9962 -32.9960 -32.9959 -32.9957 -32.9956 -32.9956
   -32.9938 -32.9935 -32.9840 -32.9838 -32.8628 -32.8627 -32.8409 -32.8405
   -32.8018 -32.8014 -32.7863 -32.7862 -32.7705 -32.7704 -32.7636 -32.7635
   -32.7588 -32.7588 -32.7441 -32.7440 -32.7305 -32.7303 -32.6894 -32.6894
   -32.6317 -32.6312 -32.5984 -32.5980 -32.5842 -32.5839 -32.5835 -32.5832
   -32.5820 -32.5819 -32.5721 -32.5719 -32.5231 -32.5231 -32.5230 -32.5230
    13.4548  13.4552  14.3205  14.3209  16.0976  16.0979  16.3592  16.3594
    16.3709  16.3711  16.3867  16.3870  16.4053  16.4057  16.5304  16.5307
    16.7455  16.7459  17.3109  17.3114  17.3561  17.3563  17.3573  17.3576
    17.4228  17.4231  17.4802  17.4805  17.8559  17.8560  17.9815  17.9816
    18.0672  18.0673  18.0733  18.0736  18.0850  18.0852  18.1352  18.1353
    18.3995  18.3998  18.4207  18.4211  18.6858  18.6859  19.3461  19.3463
    19.7755  19.7757  19.8479  19.8480  20.0281  20.0283  20.0791  20.0795
    20.1325  20.1326  20.1335  20.1336  20.1368  20.1369  20.3685  20.3686
    20.3755  20.3757  20.4028  20.4030  20.5435  20.5438  20.5942  20.5946
    20.7627  20.7630  20.8140  20.8142  20.8264  20.8266  20.9076  20.9077
    21.6220  21.6221  21.6773  21.6773  22.8133  22.8135  23.5662  23.5664
    23.7965  23.7969

          k = 0.0556-0.5000 0.0555 ( 11338 PWs)   bands (ev):

   -66.7676 -66.7675 -66.6945 -66.6942 -66.6940 -66.6938 -66.6820 -66.6818
   -66.6816 -66.6813 -66.6802 -66.6801 -66.6791 -66.6791 -66.6247 -66.6246
   -33.0108 -33.0106 -33.0104 -33.0103 -33.0070 -33.0069 -33.0068 -33.0067
   -32.9825 -32.9824 -32.9822 -32.9821 -32.9263 -32.9262 -32.8672 -32.8671
   -32.8542 -32.8541 -32.7619 -32.7617 -32.7532 -32.7530 -32.7276 -32.7275
   -32.7270 -32.7268 -32.7016 -32.7016 -32.7011 -32.7009 -32.6396 -32.6395
   -32.6009 -32.6009 -32.5992 -32.5992 -32.5960 -32.5958 -32.5956 -32.5955
   -32.5757 -32.5756 -32.5704 -32.5702 -32.5701 -32.5701 -32.5680 -32.5679
    12.7702  12.7705  15.5798  15.5800  15.5814  15.5816  15.8802  15.8804
    15.8814  15.8816  16.2108  16.2108  16.3487  16.3490  16.3569  16.3571
    16.3585  16.3589  17.1992  17.1993  17.2085  17.2087  17.8687  17.8689
    17.8735  17.8736  17.9665  17.9666  17.9703  17.9704  18.1769  18.1770
    18.1781  18.1783  18.3370  18.3372  18.3392  18.3394  18.6010  18.6012
    18.6197  18.6198  18.6295  18.6296  18.6334  18.6335  19.1221  19.1225
    19.7285  19.7287  19.9298  19.9301  19.9328  19.9329  20.0047  20.0050
    20.0079  20.0080  20.3354  20.3355  20.4611  20.4612  20.5577  20.5578
    20.5631  20.5632  20.6960  20.6961  20.7099  20.7101  20.7248  20.7249
    21.0927  21.0928  21.0931  21.0933  21.1585  21.1586  21.3057  21.3058
    21.3058  21.3060  21.5597  21.5598  21.5638  21.5640  22.2888  22.2889
    22.2949  22.2951

          k = 0.0556-0.5000 0.1666 ( 11324 PWs)   bands (ev):

   -66.7649 -66.7648 -66.7070 -66.7069 -66.6934 -66.6934 -66.6819 -66.6818
   -66.6813 -66.6812 -66.6785 -66.6785 -66.6699 -66.6698 -66.6263 -66.6263
   -33.0222 -33.0221 -33.0072 -33.0070 -33.0067 -33.0065 -33.0042 -33.0040
   -32.9820 -32.9818 -32.9494 -32.9493 -32.9475 -32.9473 -32.8642 -32.8640
   -32.8272 -32.8271 -32.7727 -32.7725 -32.7530 -32.7527 -32.7482 -32.7481
   -32.7378 -32.7378 -32.7082 -32.7082 -32.6760 -32.6758 -32.6717 -32.6716
   -32.6245 -32.6244 -32.5984 -32.5983 -32.5941 -32.5941 -32.5915 -32.5913
   -32.5789 -32.5787 -32.5697 -32.5695 -32.5503 -32.5503 -32.5491 -32.5491
    12.8900  12.8903  15.2104  15.2106  15.6812  15.6813  15.9765  15.9767
    16.1120  16.1122  16.2708  16.2709  16.3713  16.3716  16.3998  16.4000
    16.4042  16.4046  17.2323  17.2324  17.2567  17.2569  17.7652  17.7653
    17.7856  17.7858  17.8153  17.8155  17.8773  17.8774  18.1994  18.1995
    18.2401  18.2403  18.3080  18.3081  18.4255  18.4257  18.4421  18.4422
    18.4447  18.4448  18.4860  18.4861  18.5657  18.5658  19.3215  19.3218
    19.8130  19.8131  19.8381  19.8384  19.9629  19.9631  20.0093  20.0094
    20.0449  20.0452  20.0535  20.0536  20.3917  20.3918  20.5245  20.5246
    20.5374  20.5374  20.6648  20.6648  20.7144  20.7146  20.7531  20.7533
    20.8637  20.8638  20.9659  20.9661  21.0745  21.0745  21.1541  21.1543
    21.3182  21.3182  21.4804  21.4805  21.8952  21.8954  22.6112  22.6115
    23.2356  23.2357

          k = 0.0556-0.5000 0.2776 ( 11346 PWs)   bands (ev):

   -66.7597 -66.7596 -66.7197 -66.7196 -66.6922 -66.6921 -66.6838 -66.6837
   -66.6808 -66.6808 -66.6785 -66.6784 -66.6591 -66.6591 -66.6296 -66.6296
   -33.0282 -33.0281 -33.0011 -33.0009 -33.0008 -33.0007 -33.0001 -32.9999
   -32.9823 -32.9821 -32.9727 -32.9726 -32.9091 -32.9090 -32.8548 -32.8546
   -32.7940 -32.7939 -32.7822 -32.7821 -32.7783 -32.7780 -32.7541 -32.7540
   -32.7461 -32.7459 -32.7191 -32.7191 -32.7153 -32.7152 -32.6562 -32.6561
   -32.6529 -32.6526 -32.5919 -32.5918 -32.5883 -32.5882 -32.5866 -32.5864
   -32.5859 -32.5857 -32.5699 -32.5697 -32.5335 -32.5335 -32.5331 -32.5331
    13.1230  13.1233  14.7814  14.7816  15.8656  15.8658  16.1503  16.1505
    16.2754  16.2757  16.3414  16.3416  16.4055  16.4058  16.4684  16.4687
    16.5308  16.5310  17.2968  17.2970  17.3228  17.3230  17.5865  17.5867
    17.6073  17.6074  17.6165  17.6166  17.8097  17.8098  18.1854  18.1855
    18.2136  18.2137  18.2217  18.2219  18.2521  18.2523  18.2541  18.2542
    18.4139  18.4140  18.4296  18.4298  18.4868  18.4870  19.5761  19.5764
    19.7059  19.7059  19.7729  19.7732  19.9454  19.9455  20.0313  20.0314
    20.0489  20.0490  20.0804  20.0806  20.2221  20.2223  20.4603  20.4604
    20.4730  20.4730  20.6081  20.6081  20.6524  20.6525  20.7356  20.7357
    20.7636  20.7637  20.7842  20.7843  20.8784  20.8786  21.0064  21.0066
    21.4940  21.4940  21.6070  21.6071  22.3328  22.3330  23.0640  23.0642
    24.2687  24.2690

          k = 0.0556-0.5000 0.3886 ( 11346 PWs)   bands (ev):

   -66.7522 -66.7522 -66.7317 -66.7316 -66.6904 -66.6904 -66.6860 -66.6859
   -66.6802 -66.6801 -66.6788 -66.6787 -66.6495 -66.6494 -66.6346 -66.6346
   -33.0248 -33.0247 -32.9962 -32.9960 -32.9959 -32.9958 -32.9956 -32.9955
   -32.9938 -32.9936 -32.9839 -32.9837 -32.8627 -32.8627 -32.8409 -32.8406
   -32.8018 -32.8015 -32.7862 -32.7861 -32.7706 -32.7706 -32.7636 -32.7635
   -32.7589 -32.7589 -32.7440 -32.7439 -32.7306 -32.7305 -32.6894 -32.6893
   -32.6316 -32.6314 -32.5983 -32.5981 -32.5841 -32.5840 -32.5834 -32.5833
   -32.5820 -32.5819 -32.5721 -32.5719 -32.5232 -32.5231 -32.5231 -32.5230
    13.4554  13.4557  14.3201  14.3203  16.0976  16.0978  16.3590  16.3591
    16.3704  16.3707  16.3873  16.3877  16.4058  16.4061  16.5311  16.5313
    16.7457  16.7459  17.3108  17.3110  17.3572  17.3573  17.3589  17.3590
    17.4224  17.4225  17.4792  17.4794  17.8559  17.8561  17.9799  17.9801
    18.0659  18.0661  18.0739  18.0741  18.0850  18.0852  18.1352  18.1354
    18.3995  18.3997  18.4206  18.4208  18.6860  18.6861  19.3459  19.3459
    19.7758  19.7761  19.8475  19.8477  20.0274  20.0276  20.0798  20.0798
    20.1329  20.1330  20.1347  20.1348  20.1381  20.1382  20.3675  20.3675
    20.3744  20.3745  20.4031  20.4033  20.5438  20.5439  20.5933  20.5935
    20.7626  20.7628  20.8137  20.8139  20.8265  20.8267  20.9078  20.9080
    21.6219  21.6219  21.6775  21.6775  22.8136  22.8139  23.5666  23.5669
    23.7963  23.7965

          k = 0.0556-0.5000-0.4997 ( 11360 PWs)   bands (ev):

   -66.7430 -66.7428 -66.7426 -66.7424 -66.6885 -66.6883 -66.6881 -66.6879
   -66.6796 -66.6795 -66.6793 -66.6790 -66.6416 -66.6414 -66.6412 -66.6410
   -33.0137 -33.0136 -33.0136 -33.0136 -32.9943 -32.9941 -32.9941 -32.9939
   -32.9878 -32.9876 -32.9876 -32.9874 -32.8234 -32.8229 -32.8228 -32.8227
   -32.8139 -32.8138 -32.8135 -32.8133 -32.7824 -32.7823 -32.7823 -32.7822
   -32.7392 -32.7391 -32.7391 -32.7391 -32.7243 -32.7242 -32.7239 -32.7238
   -32.6138 -32.6133 -32.6131 -32.6130 -32.5810 -32.5809 -32.5809 -32.5806
   -32.5769 -32.5769 -32.5768 -32.5766 -32.5197 -32.5196 -32.5196 -32.5196
    13.8647  13.8651  13.8652  13.8654  16.3048  16.3049  16.3050  16.3053
    16.4023  16.4027  16.4028  16.4029  16.5123  16.5124  16.5125  16.5128
    17.0150  17.0152  17.0155  17.0156  17.3503  17.3504  17.3505  17.3506
    17.3978  17.3979  17.3979  17.3981  17.9495  17.9497  17.9498  17.9498
    17.9584  17.9584  17.9585  17.9588  18.0464  18.0465  18.0466  18.0468
    18.3892  18.3893  18.3894  18.3899  19.0000  19.0002  19.0004  19.0006
    19.8649  19.8649  19.8650  19.8655  20.1199  20.1202  20.1204  20.1204
    20.1605  20.1606  20.1607  20.1608  20.2538  20.2539  20.2539  20.2540
    20.2557  20.2557  20.2559  20.2560  20.5208  20.5209  20.5211  20.5214
    20.7914  20.7918  20.7919  20.7920  20.8493  20.8496  20.8498  20.8498
    21.6837  21.6838  21.6839  21.6839  23.3075  23.3079  23.3079  23.3081
    24.0772  24.0774

          k = 0.1667 0.1667 0.0555 ( 11333 PWs)   bands (ev):

   -66.7936 -66.7176 -66.7174 -66.6995 -66.6914 -66.6861 -66.6858 -66.6829
   -66.6817 -66.6814 -66.6779 -66.6770 -66.6759 -66.6669 -66.6666 -66.6044
   -33.0867 -33.0802 -33.0802 -33.0720 -33.0720 -33.0602 -32.9390 -32.9190
   -32.9134 -32.9080 -32.9078 -32.9004 -32.8968 -32.8929 -32.8683 -32.8223
   -32.8072 -32.8067 -32.7726 -32.7716 -32.7713 -32.7417 -32.7309 -32.7304
   -32.7251 -32.7219 -32.7216 -32.7108 -32.7105 -32.7081 -32.7050 -32.6968
   -32.6864 -32.6735 -32.6670 -32.6666 -32.6424 -32.6295 -32.6294 -32.5616
   -32.5485 -32.5394 -32.5393 -32.5314 -32.5314 -32.5295 -32.5205 -32.5186
    11.7279  14.7855  14.7856  15.4159  15.4574  15.5748  15.5748  15.6509
    15.6510  15.6622  15.8544  15.8603  15.9463  16.2302  16.2302  17.0171
    17.1299  17.3071  17.3541  17.3542  17.3553  17.3554  17.3913  17.3913
    17.3921  17.4251  17.5165  17.6280  17.6514  17.6680  17.9464  18.3299
    18.3302  18.5481  18.6109  18.6110  18.6192  18.6634  18.8078  18.8491
    19.1491  19.1495  19.2204  19.2204  19.2672  19.3276  19.4299  19.5278
    19.5279  19.5394  19.5396  19.7282  19.7282  19.8852  19.9850  19.9854
    20.2254  20.3406  20.3498  20.3498  20.4068  20.4078  20.4078  20.4309
    20.4401  20.6148  20.6639  20.6975  20.6976  20.7114  20.7114  20.7202
    20.7215  20.8250  20.8253  21.0438  21.1524  21.1527  21.1721  21.1721
    21.2836  21.5335  21.5456  21.6776  21.7504  22.0960  22.4275  22.4277
    22.6222  22.7786

          k = 0.1667 0.1667 0.1666 ( 11332 PWs)   bands (ev):

   -66.7902 -66.7164 -66.7164 -66.7160 -66.6909 -66.6909 -66.6905 -66.6787
   -66.6778 -66.6778 -66.6774 -66.6752 -66.6672 -66.6671 -66.6667 -66.6067
   -33.0780 -33.0780 -33.0778 -33.0540 -33.0540 -33.0538 -32.9341 -32.9328
   -32.9322 -32.9251 -32.9251 -32.9250 -32.8773 -32.8715 -32.8715 -32.8303
   -32.8298 -32.8298 -32.7784 -32.7784 -32.7781 -32.7340 -32.7336 -32.7333
   -32.7241 -32.7240 -32.7061 -32.7058 -32.7057 -32.7012 -32.7008 -32.7005
   -32.6693 -32.6692 -32.6691 -32.6608 -32.6134 -32.6134 -32.6132 -32.5829
   -32.5523 -32.5522 -32.5521 -32.5286 -32.5284 -32.5284 -32.5247 -32.5245
    11.8628  14.8620  14.8649  14.8650  15.5228  15.5228  15.5229  15.7579
    15.7583  15.7583  15.9190  15.9207  16.2802  16.2834  16.2834  16.9348
    17.2371  17.2372  17.3296  17.3302  17.3302  17.3717  17.3767  17.3767
    17.4816  17.4865  17.4865  17.5140  17.5913  17.5941  18.1777  18.1782
    18.1784  18.5336  18.5337  18.5356  18.5357  18.5386  18.9655  18.9660
    18.9662  18.9680  19.1571  19.1571  19.1602  19.3343  19.3344  19.3344
    19.5575  19.5576  19.5618  19.6150  19.6151  19.6176  20.1850  20.1854
    20.1865  20.2576  20.2576  20.2614  20.3707  20.3747  20.4095  20.4095
    20.4137  20.6650  20.6653  20.6670  20.6954  20.6977  20.6980  20.7004
    20.7678  20.8181  20.8181  20.8183  21.1648  21.1691  21.1691  21.3806
    21.3808  21.3829  21.4067  21.4079  22.1286  22.1287  22.1295  22.8843
    22.8935  22.8935

          k = 0.1667 0.1667 0.2776 ( 11350 PWs)   bands (ev):

   -66.7838 -66.7327 -66.7139 -66.7136 -66.6961 -66.6958 -66.6894 -66.6808
   -66.6771 -66.6751 -66.6746 -66.6743 -66.6677 -66.6674 -66.6524 -66.6115
   -33.0659 -33.0659 -33.0601 -33.0413 -33.0267 -33.0267 -32.9562 -32.9533
   -32.9532 -32.9445 -32.9425 -32.9193 -32.9188 -32.8667 -32.8664 -32.8541
   -32.8484 -32.8136 -32.7869 -32.7796 -32.7795 -32.7502 -32.7453 -32.7450
   -32.7382 -32.7323 -32.7090 -32.6926 -32.6922 -32.6783 -32.6754 -32.6753
   -32.6721 -32.6719 -32.6353 -32.6352 -32.6146 -32.5912 -32.5911 -32.5864
   -32.5694 -32.5694 -32.5599 -32.5449 -32.5365 -32.5312 -32.5312 -32.5254
    12.1281  14.2201  15.0056  15.0056  15.4794  15.4794  15.7291  15.8954
    15.8955  15.9399  16.0381  16.0399  16.3400  16.3400  16.4394  16.8534
    17.0084  17.0741  17.2093  17.3347  17.3415  17.3416  17.4222  17.4450
    17.4562  17.4562  17.6219  17.6327  17.6328  17.8134  18.0346  18.0348
    18.3224  18.3530  18.3530  18.4398  18.4589  18.5125  18.7082  18.7083
    18.7217  18.7219  18.9543  19.0940  19.0942  19.1141  19.1205  19.1657
    19.4567  19.5590  19.5590  19.7049  19.7049  19.8705  19.9537  20.1468
    20.1469  20.2535  20.3268  20.3508  20.3509  20.4325  20.4358  20.4388
    20.4570  20.4574  20.6503  20.6519  20.6725  20.6960  20.7109  20.7128
    20.7128  20.9295  20.9865  20.9866  21.0146  21.0877  21.1611  21.1724
    21.1724  21.4528  21.4629  21.4630  21.8647  21.8648  22.7579  23.0926
    23.0927  23.5239

          k = 0.1667 0.1667 0.3886 ( 11353 PWs)   bands (ev):

   -66.7743 -66.7482 -66.7104 -66.7101 -66.7012 -66.7009 -66.6876 -66.6831
   -66.6765 -66.6752 -66.6721 -66.6718 -66.6686 -66.6684 -66.6392 -66.6187
   -33.0454 -33.0453 -33.0345 -33.0239 -32.9918 -32.9918 -32.9858 -32.9858
   -32.9796 -32.9627 -32.9522 -32.9518 -32.9091 -32.9089 -32.8999 -32.8462
   -32.8285 -32.8229 -32.7753 -32.7751 -32.7721 -32.7695 -32.7572 -32.7569
   -32.7413 -32.7327 -32.7185 -32.6854 -32.6851 -32.6754 -32.6752 -32.6529
   -32.6449 -32.6448 -32.6364 -32.6107 -32.6043 -32.5910 -32.5910 -32.5724
   -32.5698 -32.5697 -32.5689 -32.5634 -32.5542 -32.5388 -32.5387 -32.5322
    12.5150  13.5877  15.1715  15.1715  15.4197  15.4198  16.0184  16.0525
    16.0526  16.1873  16.1900  16.2144  16.3198  16.3199  16.4432  16.7063
    16.7074  16.7355  17.2155  17.2895  17.3298  17.3560  17.4801  17.4803
    17.5871  17.5871  17.7978  17.7979  17.9016  17.9152  17.9153  18.0777
    18.2274  18.2274  18.3081  18.3082  18.3855  18.4001  18.4010  18.4341
    18.4342  18.4823  18.6342  18.6343  18.6648  18.6780  19.3000  19.4222
    19.6568  19.7211  19.8038  19.8038  19.8100  19.8100  20.0290  20.0291
    20.0811  20.0854  20.1734  20.2271  20.2271  20.4101  20.4770  20.5282
    20.5820  20.5956  20.6793  20.6922  20.6958  20.6960  20.7377  20.7662
    20.7837  20.7837  20.8468  20.9000  21.1681  21.1681  21.1915  21.2166
    21.2166  21.4245  21.4336  21.4337  21.6080  21.6081  23.3257  23.3257
    23.4507  23.6218

          k = 0.1667 0.1667-0.4997 ( 11340 PWs)   bands (ev):

   -66.7625 -66.7621 -66.7064 -66.7059 -66.7057 -66.7056 -66.6856 -66.6852
   -66.6760 -66.6756 -66.6704 -66.6699 -66.6697 -66.6697 -66.6281 -66.6277
   -33.0178 -33.0178 -33.0177 -33.0176 -33.0029 -33.0026 -33.0017 -33.0014
   -32.9550 -32.9548 -32.9520 -32.9518 -32.9516 -32.9516 -32.8754 -32.8751
   -32.8003 -32.8001 -32.7972 -32.7970 -32.7674 -32.7672 -32.7671 -32.7668
   -32.7274 -32.7271 -32.6960 -32.6960 -32.6799 -32.6796 -32.6796 -32.6793
   -32.6164 -32.6164 -32.6160 -32.6160 -32.5997 -32.5993 -32.5895 -32.5892
   -32.5773 -32.5769 -32.5518 -32.5517 -32.5517 -32.5516 -32.5451 -32.5450
    13.0086  13.0091  15.3186  15.3187  15.3190  15.3190  16.2076  16.2077
    16.2079  16.2079  16.3407  16.3413  16.3657  16.3661  16.4393  16.4395
    16.4632  16.4636  17.2458  17.2464  17.3108  17.3114  17.7385  17.7388
    17.7390  17.7392  17.7537  17.7538  17.7540  17.7541  18.2052  18.2053
    18.2055  18.2056  18.2546  18.2550  18.3208  18.3210  18.3210  18.3211
    18.3735  18.3739  18.3740  18.3742  18.4462  18.4467  19.5009  19.5011
    19.7339  19.7339  19.8790  19.8795  19.9126  19.9126  19.9127  19.9129
    20.0413  20.0414  20.0414  20.0415  20.4986  20.4989  20.5067  20.5069
    20.5344  20.5346  20.6369  20.6372  20.6862  20.6866  20.7934  20.7937
    20.8018  20.8019  20.8020  20.8021  21.3265  21.3265  21.3266  21.3267
    21.3328  21.3331  21.3695  21.3697  21.3698  21.3698  23.5284  23.5284
    23.5286  23.5286

          k = 0.1667 0.2778 0.0555 ( 11349 PWs)   bands (ev):

   -66.7869 -66.7344 -66.7150 -66.6981 -66.6967 -66.6883 -66.6849 -66.6825
   -66.6811 -66.6807 -66.6784 -66.6765 -66.6746 -66.6674 -66.6516 -66.6093
   -33.0742 -33.0630 -33.0627 -33.0567 -33.0495 -33.0309 -32.9468 -32.9452
   -32.9434 -32.9321 -32.9299 -32.9279 -32.9066 -32.9029 -32.8769 -32.8529
   -32.8109 -32.8052 -32.7688 -32.7673 -32.7645 -32.7627 -32.7435 -32.7352
   -32.7346 -32.7270 -32.7208 -32.7091 -32.7073 -32.6947 -32.6889 -32.6706
   -32.6689 -32.6542 -32.6453 -32.6344 -32.6170 -32.5994 -32.5992 -32.5921
   -32.5692 -32.5520 -32.5517 -32.5468 -32.5408 -32.5390 -32.5237 -32.5224
    11.9966  14.1265  14.9185  15.3689  15.5570  15.6140  15.7489  15.7719
    15.8008  15.8396  15.9697  15.9867  16.0139  16.2656  16.3804  16.8995
    16.9817  17.0081  17.2451  17.3167  17.3335  17.3470  17.3956  17.4584
    17.4763  17.5177  17.6122  17.6820  17.7923  17.8513  17.8569  18.1980
    18.3516  18.4578  18.4729  18.4915  18.5314  18.5789  18.6022  18.7943
    18.8273  18.9818  19.0157  19.1703  19.2305  19.3100  19.3343  19.3345
    19.4126  19.5154  19.5349  19.5864  19.6173  19.7485  19.7748  20.1014
    20.2290  20.2530  20.2922  20.3279  20.3651  20.3941  20.4318  20.4743
    20.6389  20.6553  20.6569  20.7158  20.7211  20.7436  20.7450  20.7623
    20.8103  20.9189  20.9383  20.9516  20.9590  20.9890  21.0422  21.1433
    21.2599  21.4743  21.5291  21.6037  21.7452  22.2370  22.2657  22.8262
    22.9319  23.0558

          k = 0.1667 0.2778 0.1666 ( 11350 PWs)   bands (ev):

   -66.7838 -66.7327 -66.7139 -66.7137 -66.6961 -66.6958 -66.6895 -66.6808
   -66.6771 -66.6752 -66.6745 -66.6743 -66.6677 -66.6674 -66.6524 -66.6115
   -33.0658 -33.0656 -33.0603 -33.0417 -33.0266 -33.0265 -32.9562 -32.9532
   -32.9530 -32.9441 -32.9424 -32.9195 -32.9190 -32.8665 -32.8664 -32.8541
   -32.8483 -32.8139 -32.7868 -32.7798 -32.7794 -32.7497 -32.7458 -32.7451
   -32.7384 -32.7321 -32.7087 -32.6929 -32.6924 -32.6782 -32.6753 -32.6751
   -32.6723 -32.6720 -32.6354 -32.6352 -32.6146 -32.5911 -32.5909 -32.5865
   -32.5695 -32.5694 -32.5598 -32.5449 -32.5366 -32.5313 -32.5312 -32.5254
    12.1285  14.2227  15.0032  15.0059  15.4793  15.4796  15.7293  15.8951
    15.8954  15.9406  16.0385  16.0401  16.3375  16.3401  16.4425  16.8542
    17.0087  17.0760  17.2104  17.3391  17.3412  17.3418  17.4264  17.4470
    17.4515  17.4563  17.6192  17.6282  17.6330  17.8108  18.0341  18.0343
    18.3226  18.3520  18.3542  18.4379  18.4571  18.5144  18.7065  18.7090
    18.7216  18.7245  18.9511  19.0939  19.0975  19.1102  19.1197  19.1638
    19.4579  19.5598  19.5608  19.7062  19.7075  19.8677  19.9522  20.1468
    20.1501  20.2563  20.3235  20.3515  20.3552  20.4287  20.4353  20.4364
    20.4571  20.4576  20.6511  20.6526  20.6706  20.6943  20.7090  20.7112
    20.7137  20.9325  20.9860  20.9867  21.0147  21.0854  21.1596  21.1688
    21.1725  21.4537  21.4625  21.4644  21.8650  21.8654  22.7569  23.0849
    23.0932  23.5254

          k = 0.1667 0.2778 0.2776 ( 11348 PWs)   bands (ev):

   -66.7776 -66.7294 -66.7291 -66.7114 -66.7036 -66.6945 -66.6942 -66.6836
   -66.6744 -66.6742 -66.6739 -66.6687 -66.6680 -66.6540 -66.6537 -66.6160
   -33.0594 -33.0492 -33.0490 -33.0185 -33.0184 -32.9950 -32.9687 -32.9667
   -32.9664 -32.9664 -32.9517 -32.9287 -32.9159 -32.8910 -32.8597 -32.8276
   -32.8249 -32.8245 -32.8144 -32.8142 -32.7906 -32.7652 -32.7647 -32.7635
   -32.7171 -32.7066 -32.7063 -32.6991 -32.6987 -32.6772 -32.6766 -32.6613
   -32.6509 -32.6486 -32.6388 -32.6386 -32.6164 -32.5908 -32.5791 -32.5716
   -32.5715 -32.5684 -32.5682 -32.5461 -32.5460 -32.5441 -32.5280 -32.5255
    12.3876  14.4003  14.4024  15.1627  15.3257  15.6932  15.6933  16.0548
    16.0733  16.0740  16.1417  16.1686  16.4450  16.5057  16.5081  16.8248
    17.0109  17.0624  17.0625  17.2691  17.2893  17.4073  17.4115  17.4892
    17.4989  17.5108  17.5376  17.5413  17.7902  17.7979  17.8780  18.1462
    18.1469  18.2460  18.2925  18.2942  18.3563  18.3674  18.4551  18.5218
    18.5837  18.5863  18.7338  18.7372  18.8054  18.8667  18.8676  19.3079
    19.6621  19.6624  19.6969  19.8225  19.8959  19.8984  20.0388  20.0798
    20.2340  20.2368  20.2401  20.2410  20.2580  20.3334  20.3712  20.3750
    20.4108  20.6188  20.6214  20.6225  20.6504  20.6817  20.6903  20.6911
    20.7076  20.8950  20.8975  21.0093  21.0380  21.1556  21.1561  21.1745
    21.1763  21.2676  21.4440  21.5440  21.5482  22.4142  22.4149  23.3650
    24.1362  24.1461

          k = 0.1667 0.2778 0.3886 ( 11343 PWs)   bands (ev):

   -66.7686 -66.7439 -66.7243 -66.7112 -66.7080 -66.6992 -66.6921 -66.6865
   -66.6741 -66.6737 -66.6719 -66.6688 -66.6636 -66.6562 -66.6416 -66.6226
   -33.0441 -33.0315 -33.0252 -33.0073 -32.9945 -32.9893 -32.9864 -32.9815
   -32.9719 -32.9628 -32.9606 -32.9569 -32.9223 -32.8990 -32.8688 -32.8464
   -32.8427 -32.8076 -32.7991 -32.7934 -32.7903 -32.7809 -32.7794 -32.7784
   -32.7377 -32.7153 -32.7061 -32.6908 -32.6889 -32.6806 -32.6743 -32.6640
   -32.6446 -32.6281 -32.6267 -32.6156 -32.6083 -32.5998 -32.5865 -32.5769
   -32.5676 -32.5672 -32.5603 -32.5513 -32.5500 -32.5496 -32.5304 -32.5281
    12.7642  13.7989  14.6397  15.1327  15.3515  15.6341  15.9933  16.2197
    16.2298  16.2806  16.3114  16.3445  16.4766  16.4845  16.5218  16.7247
    16.7497  16.7957  17.2517  17.2705  17.3507  17.3533  17.3967  17.4390
    17.5242  17.6173  17.6389  17.6848  17.7623  17.9062  17.9477  17.9540
    18.0675  18.1276  18.1870  18.2242  18.2470  18.2775  18.3067  18.3207
    18.3518  18.3657  18.3921  18.4062  18.4908  18.5676  19.0871  19.5207
    19.7164  19.8174  19.8856  19.8875  19.8916  19.9336  19.9529  19.9984
    20.1365  20.1520  20.1530  20.2482  20.2518  20.3438  20.4239  20.4780
    20.5326  20.5506  20.5580  20.6403  20.6810  20.6839  20.7195  20.7375
    20.7437  20.7550  20.7623  20.8652  20.9615  21.0669  21.1836  21.2463
    21.3003  21.3186  21.4501  21.4773  21.5397  22.0886  23.0252  23.6822
    24.1776  24.2999

          k = 0.1667 0.2778-0.4997 ( 11348 PWs)   bands (ev):

   -66.7574 -66.7571 -66.7184 -66.7181 -66.7040 -66.7036 -66.6896 -66.6892
   -66.6739 -66.6736 -66.6703 -66.6699 -66.6596 -66.6593 -66.6313 -66.6309
   -33.0218 -33.0217 -33.0095 -33.0094 -32.9952 -32.9949 -32.9947 -32.9944
   -32.9702 -32.9702 -32.9562 -32.9561 -32.9140 -32.9139 -32.8754 -32.8750
   -32.8175 -32.8173 -32.7961 -32.7958 -32.7888 -32.7885 -32.7687 -32.7685
   -32.7337 -32.7337 -32.7124 -32.7121 -32.6851 -32.6848 -32.6535 -32.6531
   -32.6437 -32.6437 -32.6049 -32.6049 -32.5957 -32.5953 -32.5864 -32.5861
   -32.5823 -32.5819 -32.5570 -32.5570 -32.5383 -32.5383 -32.5363 -32.5362
    13.2422  13.2426  14.8962  14.8967  15.5210  15.5214  16.3523  16.3528
    16.3728  16.3730  16.3826  16.3828  16.4259  16.4263  16.5544  16.5547
    16.5631  16.5635  17.3017  17.3022  17.3732  17.3736  17.5470  17.5475
    17.5626  17.5631  17.6527  17.6530  17.7692  17.7692  17.9911  17.9915
    18.1419  18.1421  18.1667  18.1667  18.1677  18.1680  18.2168  18.2169
    18.2852  18.2854  18.2866  18.2867  18.3547  18.3551  19.3761  19.3762
    19.7513  19.7515  19.9033  19.9035  19.9935  19.9940  20.0365  20.0366
    20.0834  20.0835  20.0901  20.0901  20.4510  20.4512  20.4533  20.4535
    20.4888  20.4890  20.5864  20.5868  20.6744  20.6747  20.6816  20.6820
    20.7693  20.7696  20.8230  20.8232  20.9707  20.9709  21.1367  21.1367
    21.4026  21.4028  21.4564  21.4565  21.7699  21.7701  23.6584  23.6588
    23.9785  23.9787

          k = 0.1667 0.3889 0.0555 ( 11328 PWs)   bands (ev):

   -66.7772 -66.7504 -66.7114 -66.7019 -66.6960 -66.6909 -66.6834 -66.6819
   -66.6811 -66.6800 -66.6797 -66.6774 -66.6718 -66.6683 -66.6380 -66.6167
   -33.0521 -33.0382 -33.0369 -33.0346 -33.0189 -32.9929 -32.9859 -32.9758
   -32.9697 -32.9683 -32.9485 -32.9424 -32.9405 -32.9018 -32.8883 -32.8537
   -32.8367 -32.7967 -32.7926 -32.7612 -32.7604 -32.7522 -32.7445 -32.7415
   -32.7339 -32.7323 -32.7170 -32.7083 -32.7078 -32.6820 -32.6722 -32.6581
   -32.6326 -32.6292 -32.6225 -32.6170 -32.6049 -32.5945 -32.5918 -32.5724
   -32.5715 -32.5701 -32.5695 -32.5692 -32.5576 -32.5518 -32.5332 -32.5330
    12.3888  13.4799  15.0742  15.3088  15.6452  15.6594  15.8665  15.9580
    16.0342  16.0466  16.0997  16.1196  16.1693  16.2292  16.3762  16.6874
    16.6902  16.7059  17.2142  17.2577  17.2721  17.2961  17.5672  17.6084
    17.6182  17.6802  17.6804  17.8303  17.8997  18.0374  18.0823  18.1437
    18.2542  18.2648  18.3261  18.3359  18.4531  18.4533  18.4970  18.5366
    18.5526  18.5845  18.6588  18.8015  18.8611  18.8620  19.1392  19.5241
    19.5609  19.7162  19.7207  19.7765  19.7790  19.8002  19.9705  20.0451
    20.0650  20.1221  20.1938  20.2400  20.4033  20.4555  20.4792  20.5581
    20.5951  20.6007  20.6047  20.7133  20.7195  20.7292  20.7300  20.7923
    20.8042  20.8386  20.8773  20.9992  21.0038  21.1016  21.1442  21.2439
    21.2478  21.2554  21.4504  21.6482  21.7243  22.0831  22.4196  22.7553
    23.1079  23.2556

          k = 0.1667 0.3889 0.1666 ( 11353 PWs)   bands (ev):

   -66.7743 -66.7482 -66.7104 -66.7102 -66.7012 -66.7009 -66.6877 -66.6831
   -66.6765 -66.6753 -66.6721 -66.6718 -66.6686 -66.6684 -66.6392 -66.6187
   -33.0453 -33.0451 -33.0347 -33.0241 -32.9917 -32.9916 -32.9857 -32.9856
   -32.9797 -32.9628 -32.9519 -32.9516 -32.9089 -32.9088 -32.9003 -32.8466
   -32.8286 -32.8227 -32.7757 -32.7752 -32.7717 -32.7697 -32.7575 -32.7570
   -32.7414 -32.7327 -32.7182 -32.6857 -32.6853 -32.6757 -32.6753 -32.6528
   -32.6448 -32.6446 -32.6363 -32.6106 -32.6044 -32.5910 -32.5909 -32.5723
   -32.5697 -32.5695 -32.5688 -32.5635 -32.5543 -32.5388 -32.5387 -32.5322
    12.5159  13.5897  15.1698  15.1720  15.4193  15.4202  16.0192  16.0523
    16.0523  16.1884  16.1921  16.2136  16.3184  16.3200  16.4460  16.7073
    16.7078  16.7373  17.2174  17.2932  17.3319  17.3594  17.4799  17.4808
    17.5827  17.5873  17.7943  17.7985  17.8985  17.9129  17.9150  18.0748
    18.2275  18.2278  18.3073  18.3096  18.3836  18.3994  18.4007  18.4315
    18.4343  18.4836  18.6338  18.6366  18.6611  18.6748  19.2987  19.4204
    19.6589  19.7195  19.8055  19.8058  19.8111  19.8128  20.0292  20.0319
    20.0801  20.0882  20.1706  20.2282  20.2312  20.4077  20.4741  20.5269
    20.5816  20.5949  20.6775  20.6906  20.6945  20.6958  20.7356  20.7675
    20.7808  20.7840  20.8448  20.8977  21.1673  21.1685  21.1918  21.2148
    21.2169  21.4252  21.4330  21.4348  21.6085  21.6086  23.3194  23.3269
    23.4499  23.6209

          k = 0.1667 0.3889 0.2776 ( 11346 PWs)   bands (ev):

   -66.7686 -66.7439 -66.7244 -66.7113 -66.7080 -66.6992 -66.6921 -66.6865
   -66.6740 -66.6738 -66.6718 -66.6688 -66.6636 -66.6563 -66.6416 -66.6226
   -33.0441 -33.0313 -33.0254 -33.0074 -32.9945 -32.9891 -32.9863 -32.9816
   -32.9718 -32.9627 -32.9607 -32.9570 -32.9221 -32.8991 -32.8687 -32.8466
   -32.8426 -32.8076 -32.7991 -32.7936 -32.7900 -32.7808 -32.7795 -32.7788
   -32.7378 -32.7153 -32.7059 -32.6912 -32.6889 -32.6807 -32.6742 -32.6642
   -32.6446 -32.6281 -32.6267 -32.6156 -32.6085 -32.5997 -32.5866 -32.5768
   -32.5676 -32.5671 -32.5603 -32.5512 -32.5500 -32.5497 -32.5305 -32.5282
    12.7647  13.8005  14.6382  15.1323  15.3518  15.6343  15.9938  16.2194
    16.2293  16.2813  16.3124  16.3443  16.4765  16.4831  16.5241  16.7256
    16.7505  16.7956  17.2514  17.2723  17.3510  17.3568  17.3982  17.4419
    17.5205  17.6173  17.6365  17.6822  17.7611  17.9071  17.9457  17.9538
    18.0665  18.1279  18.1874  18.2249  18.2481  18.2773  18.3054  18.3195
    18.3486  18.3682  18.3895  18.4062  18.4906  18.5678  19.0861  19.5202
    19.7160  19.8187  19.8859  19.8889  19.8932  19.9346  19.9530  19.9973
    20.1387  20.1506  20.1537  20.2490  20.2552  20.3417  20.4207  20.4771
    20.5323  20.5503  20.5571  20.6382  20.6806  20.6833  20.7206  20.7377
    20.7428  20.7552  20.7612  20.8638  20.9599  21.0672  21.1848  21.2466
    21.3007  21.3180  21.4506  21.4776  21.5395  22.0891  23.0246  23.6828
    24.1798  24.2996

          k = 0.1667 0.3889 0.3886 ( 11360 PWs)   bands (ev):

   -66.7603 -66.7378 -66.7376 -66.7210 -66.7049 -66.6968 -66.6965 -66.6901
   -66.6729 -66.6721 -66.6718 -66.6694 -66.6564 -66.6455 -66.6452 -66.6284
   -33.0343 -33.0126 -33.0124 -32.9954 -32.9954 -32.9904 -32.9866 -32.9865
   -32.9828 -32.9771 -32.9708 -32.9412 -32.9157 -32.8856 -32.8437 -32.8380
   -32.8377 -32.8242 -32.8238 -32.8066 -32.8043 -32.8040 -32.8031 -32.7678
   -32.7318 -32.7079 -32.7051 -32.7048 -32.6976 -32.6973 -32.6862 -32.6453
   -32.6432 -32.6172 -32.6169 -32.6093 -32.6091 -32.5909 -32.5843 -32.5842
   -32.5741 -32.5664 -32.5664 -32.5655 -32.5376 -32.5375 -32.5274 -32.5260
    13.1239  14.0923  14.0934  14.7980  15.5771  15.9301  15.9303  16.3613
    16.3798  16.4593  16.4601  16.5257  16.5268  16.5407  16.5702  16.6147
    16.7736  17.0111  17.0113  17.2759  17.3364  17.3840  17.4464  17.4494
    17.4773  17.4787  17.6245  17.6347  17.6417  17.6971  17.9087  17.9897
    17.9899  18.0010  18.0667  18.0692  18.1369  18.1380  18.1507  18.1875
    18.2108  18.2460  18.2468  18.3360  18.3428  18.7605  18.7610  19.3547
    19.7671  19.9269  19.9954  19.9958  20.0207  20.0555  20.0569  20.0641
    20.1826  20.2445  20.2642  20.2657  20.3000  20.3006  20.3142  20.3166
    20.4588  20.4855  20.4870  20.5397  20.5694  20.6578  20.6587  20.6869
    20.7141  20.7145  20.7638  20.7732  20.9278  20.9823  20.9833  21.0045
    21.4300  21.4303  21.4916  21.5695  21.8319  22.6197  22.6201  23.7304
    24.0941  24.8144

          k = 0.1667 0.3889-0.4997 ( 11348 PWs)   bands (ev):

   -66.7501 -66.7497 -66.7301 -66.7298 -66.7012 -66.7008 -66.6937 -66.6933
   -66.6723 -66.6720 -66.6707 -66.6703 -66.6504 -66.6501 -66.6361 -66.6357
   -33.0174 -33.0174 -32.9998 -32.9997 -32.9906 -32.9903 -32.9888 -32.9888
   -32.9843 -32.9840 -32.9637 -32.9635 -32.8705 -32.8704 -32.8643 -32.8640
   -32.8278 -32.8277 -32.8229 -32.8226 -32.8103 -32.8102 -32.7778 -32.7777
   -32.7360 -32.7359 -32.7030 -32.7029 -32.6913 -32.6911 -32.6733 -32.6732
   -32.6299 -32.6295 -32.5950 -32.5949 -32.5936 -32.5932 -32.5871 -32.5867
   -32.5855 -32.5853 -32.5654 -32.5652 -32.5299 -32.5298 -32.5292 -32.5292
    13.5752  13.5756  14.4386  14.4391  15.7889  15.7893  16.2681  16.2685
    16.4669  16.4672  16.4748  16.4751  16.5942  16.5944  16.6771  16.6774
    16.7696  16.7700  17.3098  17.3103  17.3707  17.3712  17.3741  17.3742
    17.3806  17.3809  17.5433  17.5436  17.7975  17.7977  17.8229  17.8230
    17.9440  17.9444  18.0054  18.0055  18.0523  18.0524  18.0854  18.0854
    18.2491  18.2494  18.2874  18.2877  18.4644  18.4645  19.0275  19.0276
    19.9652  19.9654  20.0245  20.0246  20.1191  20.1195  20.1533  20.1535
    20.1729  20.1730  20.1739  20.1739  20.2849  20.2850  20.3883  20.3885
    20.3993  20.3996  20.5293  20.5297  20.5640  20.5642  20.6412  20.6413
    20.6988  20.6991  20.7455  20.7458  20.8484  20.8486  20.9854  20.9855
    21.4896  21.4897  21.5291  21.5291  22.2212  22.2215  23.1713  23.1717
    24.4953  24.4955

          k = 0.1667-0.5000 0.0555 ( 11322 PWs)   bands (ev):

   -66.7649 -66.7648 -66.7069 -66.7069 -66.6935 -66.6934 -66.6818 -66.6818
   -66.6813 -66.6813 -66.6786 -66.6785 -66.6698 -66.6698 -66.6263 -66.6263
   -33.0221 -33.0218 -33.0071 -33.0070 -33.0066 -33.0065 -33.0043 -33.0042
   -32.9821 -32.9820 -32.9494 -32.9492 -32.9473 -32.9471 -32.8647 -32.8647
   -32.8269 -32.8267 -32.7727 -32.7725 -32.7534 -32.7534 -32.7482 -32.7481
   -32.7375 -32.7372 -32.7079 -32.7076 -32.6766 -32.6765 -32.6716 -32.6715
   -32.6247 -32.6245 -32.5982 -32.5981 -32.5941 -32.5941 -32.5913 -32.5912
   -32.5791 -32.5791 -32.5695 -32.5694 -32.5502 -32.5501 -32.5492 -32.5490
    12.8901  12.8904  15.2122  15.2124  15.6799  15.6801  15.9756  15.9758
    16.1129  16.1131  16.2706  16.2706  16.3715  16.3717  16.3999  16.4002
    16.4046  16.4051  17.2323  17.2325  17.2568  17.2570  17.7688  17.7689
    17.7880  17.7881  17.8105  17.8107  17.8790  17.8792  18.1950  18.1952
    18.2399  18.2400  18.3066  18.3067  18.4278  18.4279  18.4387  18.4390
    18.4446  18.4447  18.4859  18.4860  18.5692  18.5692  19.3207  19.3210
    19.8137  19.8138  19.8408  19.8410  19.9607  19.9610  20.0070  20.0072
    20.0482  20.0482  20.0523  20.0524  20.3923  20.3924  20.5252  20.5253
    20.5383  20.5385  20.6647  20.6647  20.7130  20.7131  20.7517  20.7518
    20.8645  20.8647  20.9632  20.9633  21.0765  21.0767  21.1521  21.1522
    21.3184  21.3185  21.4806  21.4807  21.8930  21.8931  22.6067  22.6069
    23.2434  23.2436

          k = 0.1667-0.5000 0.1666 ( 11340 PWs)   bands (ev):

   -66.7623 -66.7623 -66.7062 -66.7060 -66.7058 -66.7056 -66.6855 -66.6854
   -66.6759 -66.6758 -66.6703 -66.6700 -66.6698 -66.6696 -66.6279 -66.6278
   -33.0177 -33.0176 -33.0175 -33.0174 -33.0029 -33.0028 -33.0019 -33.0017
   -32.9547 -32.9546 -32.9518 -32.9517 -32.9515 -32.9512 -32.8758 -32.8756
   -32.8001 -32.7999 -32.7970 -32.7969 -32.7677 -32.7676 -32.7672 -32.7670
   -32.7272 -32.7270 -32.6961 -32.6959 -32.6801 -32.6800 -32.6796 -32.6794
   -32.6164 -32.6163 -32.6160 -32.6158 -32.5994 -32.5993 -32.5894 -32.5894
   -32.5773 -32.5772 -32.5518 -32.5517 -32.5516 -32.5514 -32.5452 -32.5451
    13.0101  13.0104  15.3177  15.3179  15.3193  15.3195  16.2069  16.2072
    16.2076  16.2078  16.3436  16.3437  16.3671  16.3674  16.4386  16.4391
    16.4647  16.4650  17.2489  17.2491  17.3136  17.3138  17.7390  17.7391
    17.7392  17.7395  17.7500  17.7502  17.7540  17.7541  18.2027  18.2029
    18.2047  18.2048  18.2513  18.2514  18.3206  18.3208  18.3225  18.3226
    18.3705  18.3706  18.3724  18.3726  18.4472  18.4473  19.4993  19.4996
    19.7326  19.7327  19.8817  19.8818  19.9133  19.9136  19.9151  19.9152
    20.0425  20.0427  20.0450  20.0450  20.4971  20.4972  20.5044  20.5045
    20.5325  20.5326  20.6369  20.6370  20.6847  20.6848  20.7912  20.7913
    20.7989  20.7989  20.8020  20.8021  21.3258  21.3258  21.3272  21.3274
    21.3334  21.3334  21.3697  21.3698  21.3701  21.3703  23.5238  23.5239
    23.5304  23.5307

          k = 0.1667-0.5000 0.2776 ( 11350 PWs)   bands (ev):

   -66.7572 -66.7572 -66.7183 -66.7182 -66.7039 -66.7038 -66.6894 -66.6894
   -66.6738 -66.6738 -66.6701 -66.6700 -66.6595 -66.6595 -66.6311 -66.6311
   -33.0217 -33.0216 -33.0093 -33.0091 -32.9953 -32.9951 -32.9946 -32.9944
   -32.9702 -32.9701 -32.9563 -32.9561 -32.9139 -32.9138 -32.8755 -32.8753
   -32.8173 -32.8171 -32.7961 -32.7958 -32.7890 -32.7890 -32.7687 -32.7686
[...]
   -32.8023 -32.8023 -32.7862 -32.7860 -32.7705 -32.7703 -32.7635 -32.7633
   -32.7588 -32.7586 -32.7440 -32.7438 -32.7305 -32.7303 -32.6894 -32.6891
   -32.6319 -32.6318 -32.5986 -32.5985 -32.5840 -32.5839 -32.5833 -32.5832
   -32.5818 -32.5818 -32.5719 -32.5718 -32.5232 -32.5232 -32.5232 -32.5228
    13.4563  13.4566  14.3218  14.3220  16.0975  16.0977  16.3592  16.3594
    16.3708  16.3710  16.3871  16.3873  16.4066  16.4068  16.5319  16.5321
    16.7472  16.7475  17.3128  17.3130  17.3578  17.3580  17.3590  17.3592
    17.4235  17.4237  17.4804  17.4806  17.8517  17.8519  17.9794  17.9795
    18.0648  18.0649  18.0733  18.0734  18.0813  18.0816  18.1343  18.1345
    18.4017  18.4018  18.4232  18.4233  18.6819  18.6820  19.3430  19.3431
    19.7773  19.7774  19.8463  19.8465  20.0281  20.0282  20.0830  20.0831
    20.1350  20.1352  20.1365  20.1366  20.1379  20.1381  20.3689  20.3690
    20.3756  20.3757  20.4022  20.4024  20.5431  20.5431  20.5940  20.5941
    20.7585  20.7586  20.8097  20.8097  20.8220  20.8220  20.9034  20.9035
    21.6225  21.6226  21.6780  21.6781  22.8126  22.8128  23.5639  23.5640
    23.7955  23.7958

          k = 0.3889-0.5000 0.1666 ( 11354 PWs)   bands (ev):

   -66.7499 -66.7499 -66.7300 -66.7299 -66.7010 -66.7010 -66.6936 -66.6935
   -66.6722 -66.6722 -66.6705 -66.6705 -66.6503 -66.6502 -66.6359 -66.6359
   -33.0173 -33.0171 -32.9998 -32.9997 -32.9906 -32.9904 -32.9886 -32.9884
   -32.9842 -32.9841 -32.9636 -32.9635 -32.8705 -32.8703 -32.8647 -32.8646
   -32.8277 -32.8275 -32.8233 -32.8233 -32.8104 -32.8101 -32.7778 -32.7776
   -32.7360 -32.7358 -32.7030 -32.7028 -32.6913 -32.6911 -32.6734 -32.6732
   -32.6301 -32.6300 -32.5949 -32.5948 -32.5938 -32.5937 -32.5868 -32.5867
   -32.5853 -32.5853 -32.5652 -32.5651 -32.5300 -32.5298 -32.5293 -32.5291
    13.5765  13.5768  14.4397  14.4400  15.7886  15.7888  16.2690  16.2693
    16.4667  16.4669  16.4750  16.4752  16.5941  16.5943  16.6784  16.6786
    16.7713  16.7716  17.3117  17.3119  17.3718  17.3719  17.3758  17.3760
    17.3822  17.3824  17.5430  17.5432  17.7958  17.7958  17.8189  17.8191
    17.9449  17.9451  18.0029  18.0030  18.0488  18.0491  18.0840  18.0841
    18.2514  18.2515  18.2896  18.2896  18.4616  18.4618  19.0257  19.0258
    19.9659  19.9660  20.0232  20.0234  20.1226  20.1227  20.1566  20.1567
    20.1735  20.1737  20.1755  20.1757  20.2836  20.2837  20.3892  20.3893
    20.3991  20.3992  20.5289  20.5290  20.5635  20.5636  20.6411  20.6413
    20.6955  20.6955  20.7417  20.7417  20.8446  20.8447  20.9820  20.9821
    21.4907  21.4908  21.5300  21.5301  22.2215  22.2217  23.1711  23.1714
    24.4912  24.4914

          k = 0.3889-0.5000 0.2776 ( 11358 PWs)   bands (ev):

   -66.7455 -66.7454 -66.7266 -66.7265 -66.7116 -66.7116 -66.7013 -66.7012
   -66.6664 -66.6664 -66.6618 -66.6617 -66.6518 -66.6517 -66.6385 -66.6385
   -33.0028 -33.0026 -32.9951 -32.9950 -32.9785 -32.9784 -32.9764 -32.9762
   -32.9686 -32.9685 -32.9365 -32.9364 -32.8927 -32.8926 -32.8849 -32.8847
   -32.8666 -32.8664 -32.8528 -32.8528 -32.8483 -32.8480 -32.8028 -32.8027
   -32.7079 -32.7077 -32.6652 -32.6650 -32.6546 -32.6544 -32.6519 -32.6518
   -32.6262 -32.6261 -32.6114 -32.6112 -32.5911 -32.5910 -32.5909 -32.5909
   -32.5871 -32.5871 -32.5620 -32.5620 -32.5430 -32.5429 -32.5407 -32.5405
    13.8100  13.8103  14.6675  14.6677  15.4140  15.4143  16.0610  16.0613
    16.6406  16.6408  16.6506  16.6508  16.7944  16.7946  16.8161  16.8163
    16.8557  16.8559  17.3050  17.3052  17.3310  17.3311  17.4103  17.4105
    17.4274  17.4276  17.6118  17.6120  17.6272  17.6273  17.7597  17.7600
    17.8097  17.8098  17.8332  17.8333  17.9506  17.9507  17.9897  17.9899
    18.0275  18.0276  18.1020  18.1021  18.1603  18.1605  18.6504  18.6505
    20.1845  20.1846  20.2060  20.2061  20.2122  20.2122  20.2298  20.2299
    20.2701  20.2703  20.3111  20.3113  20.4287  20.4288  20.4450  20.4452
    20.5024  20.5024  20.5319  20.5320  20.5690  20.5691  20.6197  20.6197
    20.6528  20.6528  20.8509  20.8510  20.9586  20.9588  21.0379  21.0380
    21.2767  21.2768  21.2975  21.2977  21.7486  21.7488  22.6508  22.6511
    25.5740  25.5742

          k = 0.3889-0.5000 0.3886 ( 11386 PWs)   bands (ev):

   -66.7391 -66.7391 -66.7221 -66.7219 -66.7217 -66.7214 -66.7088 -66.7088
   -66.6615 -66.6614 -66.6544 -66.6542 -66.6540 -66.6537 -66.6424 -66.6424
   -32.9831 -32.9830 -32.9829 -32.9827 -32.9641 -32.9640 -32.9638 -32.9636
   -32.9488 -32.9486 -32.9139 -32.9138 -32.9046 -32.9046 -32.9043 -32.9040
   -32.8981 -32.8979 -32.8828 -32.8827 -32.8824 -32.8822 -32.8346 -32.8344
   -32.6800 -32.6798 -32.6344 -32.6342 -32.6315 -32.6314 -32.6311 -32.6308
   -32.6220 -32.6220 -32.6220 -32.6218 -32.6005 -32.6004 -32.5929 -32.5929
   -32.5841 -32.5840 -32.5616 -32.5615 -32.5615 -32.5614 -32.5550 -32.5548
    14.1416  14.1419  14.9859  14.9861  14.9866  14.9868  15.7462  15.7464
    16.8427  16.8431  16.8928  16.8929  16.9059  16.9061  16.9066  16.9069
    17.0488  17.0489  17.2787  17.2788  17.2798  17.2800  17.4544  17.4546
    17.4970  17.4971  17.5496  17.5499  17.5711  17.5712  17.6846  17.6848
    17.6869  17.6871  17.7997  17.7999  17.8010  17.8011  17.8603  17.8605
    17.8608  17.8609  17.9078  17.9080  17.9296  17.9297  18.2887  18.2888
    20.2735  20.2735  20.2914  20.2915  20.2930  20.2931  20.4190  20.4191
    20.4210  20.4212  20.4410  20.4411  20.4654  20.4654  20.5297  20.5299
    20.5484  20.5485  20.5530  20.5531  20.5540  20.5541  20.6380  20.6382
    20.6768  20.6769  20.8299  20.8301  21.0515  21.0515  21.0540  21.0542
    21.0731  21.0732  21.3467  21.3470  21.3474  21.3475  22.1912  22.1914
    26.7445  26.7476

          k = 0.3889-0.5000-0.4997 ( 11384 PWs)   bands (ev):

   -66.7314 -66.7312 -66.7310 -66.7308 -66.7160 -66.7158 -66.7156 -66.7154
   -66.6576 -66.6574 -66.6572 -66.6570 -66.6480 -66.6477 -66.6476 -66.6473
   -32.9680 -32.9680 -32.9679 -32.9679 -32.9639 -32.9636 -32.9636 -32.9634
   -32.9265 -32.9265 -32.9264 -32.9262 -32.9094 -32.9091 -32.9091 -32.9089
   -32.9047 -32.9047 -32.9046 -32.9046 -32.8696 -32.8696 -32.8694 -32.8692
   -32.6544 -32.6544 -32.6543 -32.6541 -32.6205 -32.6204 -32.6204 -32.6204
   -32.6139 -32.6139 -32.6138 -32.6136 -32.5959 -32.5956 -32.5955 -32.5954
   -32.5824 -32.5822 -32.5821 -32.5819 -32.5618 -32.5617 -32.5617 -32.5617
    14.5457  14.5461  14.5463  14.5465  15.3640  15.3643  15.3645  15.3647
    16.9092  16.9096  16.9096  16.9098  17.1120  17.1123  17.1126  17.1126
    17.1961  17.1963  17.1964  17.1966  17.2149  17.2151  17.2154  17.2154
    17.6051  17.6053  17.6053  17.6054  17.6205  17.6206  17.6207  17.6208
    17.6225  17.6225  17.6226  17.6229  17.7807  17.7809  17.7810  17.7811
    17.8432  17.8433  17.8434  17.8437  17.9917  17.9918  17.9919  17.9920
    20.3271  20.3274  20.3276  20.3277  20.3833  20.3834  20.3835  20.3837
    20.4677  20.4678  20.4680  20.4683  20.5362  20.5365  20.5367  20.5368
    20.5513  20.5514  20.5514  20.5515  20.6009  20.6010  20.6010  20.6012
    20.8696  20.8698  20.8698  20.8700  20.9824  20.9829  20.9830  20.9830
    21.0270  21.0271  21.0272  21.0272  21.7605  21.7609  21.7611  21.7611
    27.3019  27.3020

          k =-0.5000-0.5000 0.0555 ( 11356 PWs)   bands (ev):

   -66.7428 -66.7428 -66.7426 -66.7425 -66.6884 -66.6884 -66.6881 -66.6881
   -66.6795 -66.6795 -66.6793 -66.6792 -66.6414 -66.6414 -66.6412 -66.6411
   -33.0134 -33.0134 -33.0134 -33.0130 -32.9942 -32.9941 -32.9941 -32.9940
   -32.9877 -32.9876 -32.9876 -32.9875 -32.8239 -32.8239 -32.8235 -32.8235
   -32.8139 -32.8136 -32.8132 -32.8132 -32.7823 -32.7823 -32.7823 -32.7819
   -32.7391 -32.7391 -32.7391 -32.7387 -32.7244 -32.7240 -32.7237 -32.7237
   -32.6139 -32.6139 -32.6135 -32.6134 -32.5809 -32.5807 -32.5806 -32.5806
   -32.5767 -32.5765 -32.5765 -32.5765 -32.5197 -32.5197 -32.5197 -32.5193
    13.8662  13.8664  13.8664  13.8667  16.3054  16.3057  16.3057  16.3058
    16.4026  16.4027  16.4027  16.4030  16.5130  16.5134  16.5134  16.5134
    17.0170  17.0171  17.0171  17.0174  17.3510  17.3512  17.3512  17.3514
    17.3981  17.3983  17.3983  17.3985  17.9455  17.9458  17.9458  17.9460
    17.9579  17.9580  17.9580  17.9581  18.0452  18.0453  18.0453  18.0454
    18.3916  18.3916  18.3918  18.3920  18.9964  18.9966  18.9970  18.9970
    19.8659  19.8659  19.8661  19.8663  20.1190  20.1195  20.1197  20.1197
    20.1644  20.1644  20.1644  20.1645  20.2548  20.2550  20.2550  20.2553
    20.2564  20.2564  20.2564  20.2566  20.5202  20.5202  20.5203  20.5205
    20.7870  20.7870  20.7874  20.7874  20.8449  20.8449  20.8452  20.8453
    21.6843  21.6845  21.6845  21.6845  23.3067  23.3071  23.3071  23.3071
    24.0750  24.0750

          k =-0.5000-0.5000 0.1666 ( 11336 PWs)   bands (ev):

   -66.7408 -66.7408 -66.7405 -66.7405 -66.6976 -66.6976 -66.6973 -66.6973
   -66.6713 -66.6713 -66.6710 -66.6710 -66.6424 -66.6424 -66.6422 -66.6421
   -33.0055 -33.0055 -33.0055 -33.0051 -32.9923 -32.9922 -32.9922 -32.9921
   -32.9730 -32.9729 -32.9729 -32.9728 -32.8465 -32.8465 -32.8463 -32.8462
   -32.8251 -32.8251 -32.8251 -32.8247 -32.8247 -32.8243 -32.8239 -32.8239
   -32.7044 -32.7040 -32.7038 -32.7038 -32.6968 -32.6967 -32.6967 -32.6964
   -32.6100 -32.6100 -32.6097 -32.6096 -32.5884 -32.5882 -32.5882 -32.5881
   -32.5758 -32.5757 -32.5756 -32.5756 -32.5269 -32.5269 -32.5269 -32.5265
    13.9860  13.9862  13.9862  13.9865  16.0660  16.0663  16.0663  16.0664
    16.4946  16.4947  16.4947  16.4950  16.7263  16.7266  16.7266  16.7267
    17.0351  17.0352  17.0352  17.0355  17.3081  17.3083  17.3083  17.3085
    17.4551  17.4553  17.4553  17.4555  17.7960  17.7960  17.7960  17.7961
    17.9140  17.9143  17.9143  17.9144  18.0002  18.0003  18.0003  18.0004
    18.2504  18.2504  18.2506  18.2507  18.7141  18.7143  18.7145  18.7145
    20.1019  20.1019  20.1021  20.1023  20.1813  20.1813  20.1813  20.1815
    20.2869  20.2870  20.2870  20.2872  20.2972  20.2973  20.2973  20.2976
    20.3235  20.3240  20.3242  20.3242  20.5120  20.5120  20.5121  20.5122
    20.7185  20.7185  20.7188  20.7188  20.8891  20.8891  20.8893  20.8895
    21.5401  21.5403  21.5403  21.5404  22.6930  22.6934  22.6934  22.6934
    25.0125  25.0128

          k =-0.5000-0.5000 0.2776 ( 11364 PWs)   bands (ev):

   -66.7368 -66.7368 -66.7365 -66.7365 -66.7069 -66.7069 -66.7066 -66.7066
   -66.6639 -66.6639 -66.6636 -66.6636 -66.6446 -66.6446 -66.6443 -66.6443
   -32.9902 -32.9902 -32.9902 -32.9898 -32.9820 -32.9819 -32.9819 -32.9818
   -32.9523 -32.9521 -32.9521 -32.9521 -32.8777 -32.8777 -32.8776 -32.8775
   -32.8663 -32.8663 -32.8663 -32.8659 -32.8440 -32.8437 -32.8434 -32.8434
   -32.6792 -32.6789 -32.6788 -32.6788 -32.6570 -32.6570 -32.6570 -32.6566
   -32.6033 -32.6033 -32.6031 -32.6030 -32.5993 -32.5991 -32.5990 -32.5990
   -32.5779 -32.5778 -32.5778 -32.5778 -32.5410 -32.5410 -32.5410 -32.5406
    14.2182  14.2183  14.2184  14.2187  15.7534  15.7537  15.7537  15.7539
    16.6697  16.6698  16.6698  16.6702  16.9623  16.9627  16.9627  16.9627
    17.0687  17.0688  17.0688  17.0691  17.2642  17.2644  17.2644  17.2646
    17.5236  17.5239  17.5239  17.5240  17.6608  17.6609  17.6609  17.6610
    17.8327  17.8329  17.8329  17.8330  17.8555  17.8559  17.8559  17.8560
    18.0456  18.0456  18.0457  18.0459  18.3535  18.3538  18.3539  18.3539
    20.2442  20.2442  20.2442  20.2444  20.3327  20.3328  20.3328  20.3330
    20.3700  20.3700  20.3701  20.3703  20.3948  20.3949  20.3949  20.3952
    20.4949  20.4949  20.4950  20.4951  20.6260  20.6265  20.6267  20.6267
    20.6343  20.6343  20.6345  20.6346  20.9031  20.9031  20.9033  20.9034
    21.3012  21.3014  21.3014  21.3015  22.1928  22.1933  22.1933  22.1933
    26.1033  26.1035

          k =-0.5000-0.5000 0.3886 ( 11384 PWs)   bands (ev):

   -66.7312 -66.7312 -66.7309 -66.7309 -66.7158 -66.7158 -66.7156 -66.7156
   -66.6574 -66.6574 -66.6572 -66.6571 -66.6478 -66.6478 -66.6475 -66.6475
   -32.9678 -32.9677 -32.9677 -32.9674 -32.9639 -32.9638 -32.9638 -32.9637
   -32.9266 -32.9264 -32.9263 -32.9263 -32.9095 -32.9095 -32.9095 -32.9093
   -32.9045 -32.9045 -32.9045 -32.9041 -32.8697 -32.8694 -32.8693 -32.8693
   -32.6546 -32.6543 -32.6542 -32.6542 -32.6205 -32.6205 -32.6205 -32.6201
   -32.6140 -32.6138 -32.6137 -32.6137 -32.5958 -32.5958 -32.5956 -32.5956
   -32.5821 -32.5821 -32.5821 -32.5820 -32.5618 -32.5618 -32.5618 -32.5614
    14.5463  14.5465  14.5465  14.5468  15.3639  15.3641  15.3641  15.3644
    16.9084  16.9085  16.9085  16.9088  17.1138  17.1139  17.1139  17.1142
    17.1958  17.1961  17.1961  17.1962  17.2163  17.2164  17.2164  17.2167
    17.6039  17.6041  17.6041  17.6043  17.6194  17.6197  17.6197  17.6197
    17.6241  17.6242  17.6242  17.6243  17.7781  17.7783  17.7783  17.7785
    17.8454  17.8454  17.8454  17.8456  17.9911  17.9914  17.9915  17.9915
    20.3293  20.3293  20.3293  20.3295  20.3829  20.3830  20.3830  20.3832
    20.4672  20.4672  20.4672  20.4674  20.5355  20.5355  20.5357  20.5358
    20.5534  20.5536  20.5536  20.5538  20.5992  20.5992  20.5993  20.5995
    20.8670  20.8670  20.8671  20.8673  20.9822  20.9827  20.9828  20.9828
    21.0290  21.0292  21.0292  21.0293  21.7608  21.7612  21.7613  21.7613
    27.2954  27.2956

          k =-0.5000-0.5000-0.4997 ( 11296 PWs)   bands (ev):

   -66.7245 -66.7245 -66.7242 -66.7241 -66.7237 -66.7237 -66.7236 -66.7235
   -66.6523 -66.6523 -66.6519 -66.6518 -66.6515 -66.6515 -66.6514 -66.6513
   -32.9388 -32.9388 -32.9388 -32.9387 -32.9385 -32.9384 -32.9384 -32.9383
   -32.9383 -32.9383 -32.9382 -32.9382 -32.9381 -32.9381 -32.9378 -32.9376
   -32.8984 -32.8983 -32.8981 -32.8980 -32.8980 -32.8977 -32.8977 -32.8975
   -32.6321 -32.6320 -32.6318 -32.6317 -32.6317 -32.6314 -32.6314 -32.6312
   -32.5891 -32.5888 -32.5888 -32.5887 -32.5887 -32.5887 -32.5886 -32.5886
   -32.5885 -32.5885 -32.5883 -32.5883 -32.5883 -32.5882 -32.5881 -32.5879
    14.9424  14.9426  14.9426  14.9429  14.9430  14.9432  14.9432  14.9433
    17.1629  17.1629  17.1629  17.1634  17.1634  17.1636  17.1636  17.1637
    17.1648  17.1649  17.1649  17.1652  17.1652  17.1654  17.1654  17.1656
    17.6743  17.6749  17.6750  17.6750  17.6751  17.6752  17.6753  17.6753
    17.6906  17.6909  17.6912  17.6912  17.6913  17.6913  17.6914  17.6919
    17.6935  17.6935  17.6935  17.6939  17.6940  17.6940  17.6941  17.6941
    20.4288  20.4288  20.4290  20.4292  20.4295  20.4297  20.4297  20.4297
    20.4297  20.4297  20.4298  20.4302  20.4303  20.4303  20.4304  20.4305
    20.7674  20.7674  20.7675  20.7677  20.7678  20.7678  20.7680  20.7681
    20.7704  20.7705  20.7705  20.7705  20.7706  20.7709  20.7709  20.7712
    21.3616  21.3625  21.3627  21.3627  21.3627  21.3627  21.3627  21.3628
    28.4660  28.4673

     the Fermi energy is    20.4964 ev

!    total energy              =   -5267.70742529 Ry
     Harris-Foulkes estimate   =   -5267.70745966 Ry
     estimated scf accuracy    <       0.00004580 Ry

     total all-electron energy =    -40728.451954 Ry

     The total energy is the sum of the following terms:

     one-electron contribution =   -1621.16616298 Ry
     hartree contribution      =     989.70889954 Ry
     xc contribution           =    -443.00460415 Ry
     ewald contribution        =   -2868.35278654 Ry
     one-center paw contrib.   =   -1324.76173984 Ry
     smearing contrib. (-TS)   =      -0.13103133 Ry

     convergence has been achieved in  11 iterations

     Forces acting on atoms (cartesian axes, Ry/au):

     atom    1 type  1   force =     0.00000000    0.00000000    0.00000000
     atom    2 type  1   force =    -0.00015705   -0.00015705    0.00061647
     atom    3 type  1   force =     0.00000000    0.00000000    0.00000000
     atom    4 type  1   force =    -0.00015705   -0.00015705   -0.00061647
     atom    5 type  1   force =     0.00000000    0.00000000    0.00000000
     atom    6 type  1   force =    -0.00015705    0.00015705    0.00061647
     atom    7 type  1   force =     0.00000000    0.00000000    0.00000000
     atom    8 type  1   force =    -0.00015705    0.00015705   -0.00061647
     atom    9 type  1   force =     0.00000000    0.00000000    0.00000000
     atom   10 type  1   force =     0.00015705   -0.00015705    0.00061647
     atom   11 type  1   force =     0.00000000    0.00000000    0.00000000
     atom   12 type  1   force =     0.00015705   -0.00015705   -0.00061647
     atom   13 type  1   force =     0.00000000    0.00000000    0.00000000
     atom   14 type  1   force =     0.00015705    0.00015705    0.00061647
     atom   15 type  1   force =     0.00000000    0.00000000    0.00000000
     atom   16 type  1   force =     0.00015705    0.00015705   -0.00061647

     Total force =     0.001853     Total SCF correction =     0.006751
     SCF correction compared to forces is large: reduce conv_thr to get better values


     Computing stress (Cartesian axis) and pressure

          total   stress  (Ry/bohr**3)                   (kbar)     P=   40.74
   0.00027439   0.00000000   0.00000000         40.36      0.00      0.00
   0.00000000   0.00027439   0.00000000          0.00     40.36      0.00
   0.00000000   0.00000000   0.00028200          0.00      0.00     41.48


     Writing output data file yzATIqBeLkflXHLD.save/
 
     init_run     :      6.50s CPU      6.81s WALL (       1 calls)
     electrons    :    247.38s CPU    255.59s WALL (       1 calls)
     forces       :      2.31s CPU      2.59s WALL (       1 calls)
     stress       :      5.77s CPU      5.85s WALL (       1 calls)

     Called by init_run:
     wfcinit      :      6.14s CPU      6.40s WALL (       1 calls)
     potinit      :      0.12s CPU      0.15s WALL (       1 calls)
     hinit0       :      0.16s CPU      0.17s WALL (       1 calls)

     Called by electrons:
     c_bands      :    221.62s CPU    228.30s WALL (      12 calls)
     sum_band     :     24.64s CPU     25.89s WALL (      12 calls)
     v_of_rho     :      0.13s CPU      0.23s WALL (      12 calls)
     newd         :      0.16s CPU      0.22s WALL (      12 calls)
     PAW_pot      :      0.84s CPU      0.91s WALL (      12 calls)
     mix_rho      :      0.03s CPU      0.06s WALL (      12 calls)

     Called by c_bands:
     init_us_2    :      1.23s CPU      1.25s WALL (    2025 calls)
     cegterg      :    215.45s CPU    222.07s WALL (     900 calls)

     Called by sum_band:
     sum_band:bec :      0.37s CPU      0.38s WALL (     900 calls)
     addusdens    :      0.18s CPU      0.22s WALL (      12 calls)

     Called by *egterg:
     h_psi        :     97.95s CPU    102.16s WALL (    2777 calls)
     s_psi        :      5.22s CPU      5.26s WALL (    2777 calls)
     g_psi        :      0.21s CPU      0.21s WALL (    1802 calls)
     cdiaghg      :     92.58s CPU     92.89s WALL (    2627 calls)

     Called by h_psi:
     h_psi:pot    :     97.39s CPU    101.60s WALL (    2777 calls)
     h_psi:calbec :      7.87s CPU      9.18s WALL (    2777 calls)
     vloc_psi     :     84.23s CPU     87.08s WALL (    2777 calls)
     add_vuspsi   :      5.27s CPU      5.31s WALL (    2777 calls)

     General routines
     calbec       :     12.92s CPU     15.11s WALL (    4052 calls)
     fft          :      0.15s CPU      0.35s WALL (     181 calls)
     ffts         :      0.02s CPU      0.06s WALL (      24 calls)
     fftw         :     98.15s CPU    101.36s WALL (  755146 calls)
     interpolate  :      0.02s CPU      0.04s WALL (      12 calls)
 
     Parallel routines
     fft_scatt_xy :      6.57s CPU      6.78s WALL (  755351 calls)
     fft_scatt_yz :     66.05s CPU     68.49s WALL (  755351 calls)
 
     PWSCF        :  4m27.06s CPU     4m44.03s WALL

 
   This run was terminated on:   7:56:47   5Sep2020            

=------------------------------------------------------------------------------=
   JOB DONE.
=------------------------------------------------------------------------------=
