--------------------------------------------------------------------------
WARNING: There was an error initializing an OpenFabrics device.

  Local host:   bear-pg0211u07b
  Local device: mlx5_0
--------------------------------------------------------------------------

     Program PWSCF v.6.3 starts on  5Sep2020 at  8:39:14 

     This program is part of the open-source Quantum ESPRESSO suite
     for quantum simulation of materials; please cite
         "P. Giannozzi et al., J. Phys.:Condens. Matter 21 395502 (2009);
         "P. Giannozzi et al., J. Phys.:Condens. Matter 29 465901 (2017);
          URL http://www.quantum-espresso.org", 
     in publications or presentations arising from this work. More details at
     http://www.quantum-espresso.org/quote

     Parallel version (MPI & OpenMP), running on      40 processor cores
     Number of MPI processes:                40
     Threads/MPI process:                     1

     MPI processes distributed on     1 nodes
     R & G space division:  proc/nbgrp/npool/nimage =      40
     Reading input from wd/ec/ec_4_003.in
Warning: card &IONS ignored
Warning: card ION_DYNAMICS = 'BFGS', ignored
Warning: card / ignored
Warning: card &CELL ignored
Warning: card CELL_DYNAMICS = 'BFGS', ignored
Warning: card CELL_FACTOR = 2.0, ignored
Warning: card PRESS = 0.0, ignored
Warning: card / ignored

     Current dimensions of program PWSCF are:
     Max number of different atomic species (ntypx) = 10
     Max number of k-points (npk) =  40000
     Max angular momentum in pseudopotentials (lmaxx) =  3
               file Fe.pbe-spn-kjpaw_psl.1.0.0.UPF: wavefunction(s)  3P 3D renormalized

     Subspace diagonalization in iterative solution of the eigenvalue problem:
     a serial algorithm will be used

 
     Parallelization info
     --------------------
     sticks:   dense  smooth     PW     G-vecs:    dense   smooth      PW
     Min          92      61     17                 4224     2265     337
     Max          93      62     18                 4229     2270     342
     Sum        3705    2441    681               169057    90723   13581
 


     bravais-lattice index     =            0
     lattice parameter (alat)  =      10.3915  a.u.
     unit-cell volume          =    1122.0973 (a.u.)^3
     number of atoms/cell      =           16
     number of atomic types    =            1
     number of electrons       =       256.00
     number of Kohn-Sham states=          154
     kinetic-energy cutoff     =      71.0000  Ry
     charge density cutoff     =     430.0000  Ry
     convergence threshold     =      5.0E-05
     mixing beta               =       0.1000
     number of iterations used =           10  plain     mixing
     Exchange-correlation      = SLA PW PBX PBC ( 1  4  3  4 0 0)

     celldm(1)=  10.391466  celldm(2)=   0.000000  celldm(3)=   0.000000
     celldm(4)=   0.000000  celldm(5)=   0.000000  celldm(6)=   0.000000

     crystal axes: (cart. coord. in units of alat)
               a(1) = (   1.000001   0.000000   0.000000 )  
               a(2) = (   0.000000   1.000001   0.001250 )  
               a(3) = (   0.000000   0.001250   1.000001 )  

     reciprocal axes: (cart. coord. in units 2 pi/alat)
               b(1) = (  0.999999  0.000000  0.000000 )  
               b(2) = (  0.000000  1.000001 -0.001250 )  
               b(3) = (  0.000000 -0.001250  1.000001 )  


     PseudoPot. # 1 for Fe read from file:
     /rds/homes/b/bxp912/pp/Fe.pbe-spn-kjpaw_psl.1.0.0.UPF
     MD5 check sum: 42f43b795421b414b0dc916aa790dbcb
     Pseudo is Projector augmented-wave + core cor, Zval = 16.0
     Generated using "atomic" code by A. Dal Corso v.6.3
     Shape of augmentation charge: PSQ
     Using radial grid of 1191 points,  6 beta functions with: 
                l(1) =   0
                l(2) =   0
                l(3) =   1
                l(4) =   1
                l(5) =   2
                l(6) =   2
     Q(r) pseudized with 0 coefficients 


     atomic species   valence    mass     pseudopotential
        Fe            16.00    55.84500     Fe( 1.00)

      8 Sym. Ops., with inversion, found



   Cartesian axes

     site n.     atom                  positions (alat units)
         1           Fe  tau(   1) = (   0.0000000   0.0000000   0.0000000  )
         2           Fe  tau(   2) = (   0.2500090   0.2503216   0.2503216  )
         3           Fe  tau(   3) = (   0.0000000   0.0006250   0.4999998  )
         4           Fe  tau(   4) = (   0.2500090   0.2509465   0.7503040  )
         5           Fe  tau(   5) = (   0.0000000   0.5000004   0.0006250  )
         6           Fe  tau(   6) = (   0.2500090   0.7503041   0.2509465  )
         7           Fe  tau(   7) = (   0.0000000   0.5006254   0.5006248  )
         8           Fe  tau(   8) = (   0.2500090   0.7509291   0.7509290  )
         9           Fe  tau(   9) = (   0.5000004   0.0000000   0.0000000  )
        10           Fe  tau(  10) = (   0.7499916   0.2503216   0.2503216  )
        11           Fe  tau(  11) = (   0.5000004   0.0006250   0.4999998  )
        12           Fe  tau(  12) = (   0.7499916   0.2509465   0.7503040  )
        13           Fe  tau(  13) = (   0.5000004   0.5000004   0.0006250  )
        14           Fe  tau(  14) = (   0.7499916   0.7503041   0.2509465  )
        15           Fe  tau(  15) = (   0.5000004   0.5006254   0.5006248  )
        16           Fe  tau(  16) = (   0.7499916   0.7509291   0.7509290  )

     number of k points=   125  Marzari-Vanderbilt smearing, width (Ry)=  0.0400

     Number of k-points >= 100: set verbosity='high' to print them.

     Dense  grid:   169057 G-vectors     FFT dimensions: (  72,  72,  72)

     Smooth grid:    90723 G-vectors     FFT dimensions: (  60,  60,  60)

     Estimated max dynamical RAM per process >     116.53 MB

     Estimated total dynamical RAM >       4.55 GB

     Check: negative/imaginary core charge=   -0.000006    0.000000

     Initial potential from superposition of free atoms

     starting charge  255.99300, renormalised to  256.00000
     Starting wfcs are  160 randomized atomic wfcs
     Checking if some PAW data can be deallocated... 

     total cpu time spent up to now is       12.0 secs

     Self-consistent Calculation

     iteration #  1     ecut=    71.00 Ry     beta= 0.10
     Davidson diagonalization with overlap
     ethr =  1.00E-02,  avg # of iterations =  3.4

     Threshold (ethr) on eigenvalues was too large:
     Diagonalizing with lowered threshold

     Davidson diagonalization with overlap
     ethr =  2.54E-04,  avg # of iterations =  3.2

     total cpu time spent up to now is      102.8 secs

     total energy              =   -5267.75251616 Ry
     Harris-Foulkes estimate   =   -5267.86798071 Ry
     estimated scf accuracy    <       0.73080982 Ry

     iteration #  2     ecut=    71.00 Ry     beta= 0.10
     Davidson diagonalization with overlap
     ethr =  2.85E-04,  avg # of iterations =  1.0

     total cpu time spent up to now is      130.0 secs

     total energy              =   -5267.61949165 Ry
     Harris-Foulkes estimate   =   -5267.76771193 Ry
     estimated scf accuracy    <       0.36357793 Ry

     iteration #  3     ecut=    71.00 Ry     beta= 0.10
     Davidson diagonalization with overlap
     ethr =  1.42E-04,  avg # of iterations =  3.3

     total cpu time spent up to now is      181.2 secs

     total energy              =   -5267.69681235 Ry
     Harris-Foulkes estimate   =   -5267.72233038 Ry
     estimated scf accuracy    <       0.60342465 Ry

     iteration #  4     ecut=    71.00 Ry     beta= 0.10
     Davidson diagonalization with overlap
     ethr =  1.42E-04,  avg # of iterations =  1.0

     total cpu time spent up to now is      208.4 secs

     total energy              =   -5267.70472088 Ry
     Harris-Foulkes estimate   =   -5267.71062641 Ry
     estimated scf accuracy    <       0.02886392 Ry

     iteration #  5     ecut=    71.00 Ry     beta= 0.10
     Davidson diagonalization with overlap
     ethr =  1.13E-05,  avg # of iterations =  2.2

     total cpu time spent up to now is      243.2 secs

     total energy              =   -5267.70473193 Ry
     Harris-Foulkes estimate   =   -5267.70690964 Ry
     estimated scf accuracy    <       0.02182378 Ry

     iteration #  6     ecut=    71.00 Ry     beta= 0.10
     Davidson diagonalization with overlap
     ethr =  8.52E-06,  avg # of iterations =  2.7

     total cpu time spent up to now is      284.4 secs

     total energy              =   -5267.70744765 Ry
     Harris-Foulkes estimate   =   -5267.70685236 Ry
     estimated scf accuracy    <       0.01141810 Ry

     iteration #  7     ecut=    71.00 Ry     beta= 0.10
     Davidson diagonalization with overlap
     ethr =  4.46E-06,  avg # of iterations =  1.5

     total cpu time spent up to now is      315.3 secs

     total energy              =   -5267.70627473 Ry
     Harris-Foulkes estimate   =   -5267.70787163 Ry
     estimated scf accuracy    <       0.01326815 Ry

     iteration #  8     ecut=    71.00 Ry     beta= 0.10
     Davidson diagonalization with overlap
     ethr =  4.46E-06,  avg # of iterations =  1.3

     total cpu time spent up to now is      344.2 secs

     total energy              =   -5267.70681252 Ry
     Harris-Foulkes estimate   =   -5267.70722053 Ry
     estimated scf accuracy    <       0.00824964 Ry

     iteration #  9     ecut=    71.00 Ry     beta= 0.10
     Davidson diagonalization with overlap
     ethr =  3.22E-06,  avg # of iterations =  2.2

     total cpu time spent up to now is      378.8 secs

     total energy              =   -5267.70717352 Ry
     Harris-Foulkes estimate   =   -5267.70723793 Ry
     estimated scf accuracy    <       0.00065826 Ry

     iteration # 10     ecut=    71.00 Ry     beta= 0.10
     Davidson diagonalization with overlap
     ethr =  2.57E-07,  avg # of iterations =  2.2

     total cpu time spent up to now is      413.0 secs

     total energy              =   -5267.70719320 Ry
     Harris-Foulkes estimate   =   -5267.70721461 Ry
     estimated scf accuracy    <       0.00034925 Ry

     iteration # 11     ecut=    71.00 Ry     beta= 0.10
     Davidson diagonalization with overlap
     ethr =  1.36E-07,  avg # of iterations =  1.0

     total cpu time spent up to now is      440.2 secs

     total energy              =   -5267.70717062 Ry
     Harris-Foulkes estimate   =   -5267.70720599 Ry
     estimated scf accuracy    <       0.00047679 Ry

     iteration # 12     ecut=    71.00 Ry     beta= 0.10
     Davidson diagonalization with overlap
     ethr =  1.36E-07,  avg # of iterations =  1.0

     total cpu time spent up to now is      467.3 secs

     total energy              =   -5267.70717684 Ry
     Harris-Foulkes estimate   =   -5267.70718743 Ry
     estimated scf accuracy    <       0.00027291 Ry

     iteration # 13     ecut=    71.00 Ry     beta= 0.10
     Davidson diagonalization with overlap
     ethr =  1.07E-07,  avg # of iterations =  1.0

     total cpu time spent up to now is      494.4 secs

     End of self-consistent calculation

     Number of k-points >= 100: set verbosity='high' to print the bands.

     the Fermi energy is    20.5178 ev

!    total energy              =   -5267.70717027 Ry
     Harris-Foulkes estimate   =   -5267.70718333 Ry
     estimated scf accuracy    <       0.00001607 Ry

     total all-electron energy =    -40728.451699 Ry

     The total energy is the sum of the following terms:

     one-electron contribution =   -1619.99031387 Ry
     hartree contribution      =     989.09459970 Ry
     xc contribution           =    -442.97295872 Ry
     ewald contribution        =   -2868.94842697 Ry
     one-center paw contrib.   =   -1324.75928338 Ry
     smearing contrib. (-TS)   =      -0.13078703 Ry

     convergence has been achieved in  13 iterations

     Forces acting on atoms (cartesian axes, Ry/au):

     atom    1 type  1   force =     0.00000000    0.00000000    0.00000000
     atom    2 type  1   force =    -0.00026519   -0.00026871   -0.00026871
     atom    3 type  1   force =     0.00000000    0.00000000    0.00000000
     atom    4 type  1   force =     0.00092323    0.00020959   -0.00020959
     atom    5 type  1   force =     0.00000000    0.00000000    0.00000000
     atom    6 type  1   force =     0.00092323   -0.00020959    0.00020959
     atom    7 type  1   force =     0.00000000    0.00000000    0.00000000
     atom    8 type  1   force =    -0.00026519    0.00026871    0.00026871
     atom    9 type  1   force =     0.00000000    0.00000000    0.00000000
     atom   10 type  1   force =     0.00026519   -0.00026871   -0.00026871
     atom   11 type  1   force =     0.00000000    0.00000000    0.00000000
     atom   12 type  1   force =    -0.00092323    0.00020959   -0.00020959
     atom   13 type  1   force =     0.00000000    0.00000000    0.00000000
     atom   14 type  1   force =    -0.00092323   -0.00020959    0.00020959
     atom   15 type  1   force =     0.00000000    0.00000000    0.00000000
     atom   16 type  1   force =     0.00026519    0.00026871    0.00026871

     Total force =     0.002149     Total SCF correction =     0.009560
     SCF correction compared to forces is large: reduce conv_thr to get better values


     Computing stress (Cartesian axis) and pressure

          total   stress  (Ry/bohr**3)                   (kbar)     P=   -9.74
  -0.00006902   0.00000000   0.00000000        -10.15      0.00      0.00
   0.00000000  -0.00006485  -0.00003145          0.00     -9.54     -4.63
   0.00000000  -0.00003145  -0.00006485          0.00     -4.63     -9.54


     Writing output data file tJlTEkfLQzcmgunO.save/
 
     init_run     :     10.70s CPU     11.22s WALL (       1 calls)
     electrons    :    467.01s CPU    482.44s WALL (       1 calls)
     forces       :      3.86s CPU      4.24s WALL (       1 calls)
     stress       :      9.78s CPU     10.00s WALL (       1 calls)

     Called by init_run:
     wfcinit      :     10.40s CPU     10.82s WALL (       1 calls)
     potinit      :      0.10s CPU      0.14s WALL (       1 calls)
     hinit0       :      0.12s CPU      0.17s WALL (       1 calls)

     Called by electrons:
     c_bands      :    418.59s CPU    431.28s WALL (      14 calls)
     sum_band     :     47.10s CPU     49.53s WALL (      14 calls)
     v_of_rho     :      0.14s CPU      0.27s WALL (      14 calls)
     newd         :      0.20s CPU      0.26s WALL (      14 calls)
     PAW_pot      :      0.99s CPU      1.07s WALL (      14 calls)
     mix_rho      :      0.03s CPU      0.07s WALL (      14 calls)

     Called by c_bands:
     init_us_2    :      2.48s CPU      2.53s WALL (    3875 calls)
     cegterg      :    406.49s CPU    419.02s WALL (    1750 calls)

     Called by sum_band:
     sum_band:bec :      0.73s CPU      0.74s WALL (    1750 calls)
     addusdens    :      0.21s CPU      0.26s WALL (      14 calls)

     Called by *egterg:
     h_psi        :    185.42s CPU    193.37s WALL (    5247 calls)
     s_psi        :     10.12s CPU     10.19s WALL (    5247 calls)
     g_psi        :      0.41s CPU      0.41s WALL (    3372 calls)
     cdiaghg      :    172.76s CPU    173.32s WALL (    4997 calls)

     Called by h_psi:
     h_psi:pot    :    184.34s CPU    192.28s WALL (    5247 calls)
     h_psi:calbec :     15.14s CPU     17.62s WALL (    5247 calls)
     vloc_psi     :    159.01s CPU    164.41s WALL (    5247 calls)
     add_vuspsi   :     10.15s CPU     10.22s WALL (    5247 calls)

     General routines
     calbec       :     24.21s CPU     28.15s WALL (    7622 calls)
     fft          :      0.14s CPU      0.39s WALL (     207 calls)
     ffts         :      0.02s CPU      0.07s WALL (      28 calls)
     fftw         :    185.43s CPU    191.71s WALL ( 1449734 calls)
     interpolate  :      0.01s CPU      0.04s WALL (      14 calls)
 
     Parallel routines
     fft_scatt_xy :     12.61s CPU     13.03s WALL ( 1449969 calls)
     fft_scatt_yz :    122.87s CPU    127.39s WALL ( 1449969 calls)
 
     PWSCF        :  8m19.51s CPU     8m54.57s WALL

 
   This run was terminated on:   8:48: 9   5Sep2020            

=------------------------------------------------------------------------------=
   JOB DONE.
=------------------------------------------------------------------------------=
