--------------------------------------------------------------------------
WARNING: There was an error initializing an OpenFabrics device.

  Local host:   bear-pg0211u07b
  Local device: mlx5_0
--------------------------------------------------------------------------

     Program PWSCF v.6.3 starts on  5Sep2020 at  8:48:10 

     This program is part of the open-source Quantum ESPRESSO suite
     for quantum simulation of materials; please cite
         "P. Giannozzi et al., J. Phys.:Condens. Matter 21 395502 (2009);
         "P. Giannozzi et al., J. Phys.:Condens. Matter 29 465901 (2017);
          URL http://www.quantum-espresso.org", 
     in publications or presentations arising from this work. More details at
     http://www.quantum-espresso.org/quote

     Parallel version (MPI & OpenMP), running on      40 processor cores
     Number of MPI processes:                40
     Threads/MPI process:                     1

     MPI processes distributed on     1 nodes
     R & G space division:  proc/nbgrp/npool/nimage =      40
     Reading input from wd/ec/ec_4_004.in
Warning: card &IONS ignored
Warning: card ION_DYNAMICS = 'BFGS', ignored
Warning: card / ignored
Warning: card &CELL ignored
Warning: card CELL_DYNAMICS = 'BFGS', ignored
Warning: card CELL_FACTOR = 2.0, ignored
Warning: card PRESS = 0.0, ignored
Warning: card / ignored

     Current dimensions of program PWSCF are:
     Max number of different atomic species (ntypx) = 10
     Max number of k-points (npk) =  40000
     Max angular momentum in pseudopotentials (lmaxx) =  3
               file Fe.pbe-spn-kjpaw_psl.1.0.0.UPF: wavefunction(s)  3P 3D renormalized

     Subspace diagonalization in iterative solution of the eigenvalue problem:
     a serial algorithm will be used

 
     Parallelization info
     --------------------
     sticks:   dense  smooth     PW     G-vecs:    dense   smooth      PW
     Min          92      61     17                 4225     2266     336
     Max          93      62     18                 4229     2271     341
     Sum        3705    2441    681               169093    90743   13573
 


     bravais-lattice index     =            0
     lattice parameter (alat)  =      10.3915  a.u.
     unit-cell volume          =    1122.0973 (a.u.)^3
     number of atoms/cell      =           16
     number of atomic types    =            1
     number of electrons       =       256.00
     number of Kohn-Sham states=          154
     kinetic-energy cutoff     =      71.0000  Ry
     charge density cutoff     =     430.0000  Ry
     convergence threshold     =      5.0E-05
     mixing beta               =       0.1000
     number of iterations used =           10  plain     mixing
     Exchange-correlation      = SLA PW PBX PBC ( 1  4  3  4 0 0)

     celldm(1)=  10.391466  celldm(2)=   0.000000  celldm(3)=   0.000000
     celldm(4)=   0.000000  celldm(5)=   0.000000  celldm(6)=   0.000000

     crystal axes: (cart. coord. in units of alat)
               a(1) = (   1.000001   0.000000   0.000000 )  
               a(2) = (   0.000000   1.000001   0.001875 )  
               a(3) = (   0.000000   0.001875   1.000001 )  

     reciprocal axes: (cart. coord. in units 2 pi/alat)
               b(1) = (  0.999999  0.000000  0.000000 )  
               b(2) = (  0.000000  1.000002 -0.001875 )  
               b(3) = (  0.000000 -0.001875  1.000002 )  


     PseudoPot. # 1 for Fe read from file:
     /rds/homes/b/bxp912/pp/Fe.pbe-spn-kjpaw_psl.1.0.0.UPF
     MD5 check sum: 42f43b795421b414b0dc916aa790dbcb
     Pseudo is Projector augmented-wave + core cor, Zval = 16.0
     Generated using "atomic" code by A. Dal Corso v.6.3
     Shape of augmentation charge: PSQ
     Using radial grid of 1191 points,  6 beta functions with: 
                l(1) =   0
                l(2) =   0
                l(3) =   1
                l(4) =   1
                l(5) =   2
                l(6) =   2
     Q(r) pseudized with 0 coefficients 


     atomic species   valence    mass     pseudopotential
        Fe            16.00    55.84500     Fe( 1.00)

      8 Sym. Ops., with inversion, found



   Cartesian axes

     site n.     atom                  positions (alat units)
         1           Fe  tau(   1) = (   0.0000000   0.0000000   0.0000000  )
         2           Fe  tau(   2) = (   0.2500092   0.2504780   0.2504780  )
         3           Fe  tau(   3) = (   0.0000000   0.0009375   0.5000001  )
         4           Fe  tau(   4) = (   0.2500092   0.2514154   0.7504607  )
         5           Fe  tau(   5) = (   0.0000000   0.5000007   0.0009375  )
         6           Fe  tau(   6) = (   0.2500092   0.7504608   0.2514154  )
         7           Fe  tau(   7) = (   0.0000000   0.5009382   0.5009376  )
         8           Fe  tau(   8) = (   0.2500092   0.7513983   0.7513982  )
         9           Fe  tau(   9) = (   0.5000007   0.0000000   0.0000000  )
        10           Fe  tau(  10) = (   0.7499921   0.2504780   0.2504780  )
        11           Fe  tau(  11) = (   0.5000007   0.0009375   0.5000001  )
        12           Fe  tau(  12) = (   0.7499921   0.2514154   0.7504607  )
        13           Fe  tau(  13) = (   0.5000007   0.5000007   0.0009375  )
        14           Fe  tau(  14) = (   0.7499921   0.7504608   0.2514154  )
        15           Fe  tau(  15) = (   0.5000007   0.5009382   0.5009376  )
        16           Fe  tau(  16) = (   0.7499921   0.7513983   0.7513982  )

     number of k points=   125  Marzari-Vanderbilt smearing, width (Ry)=  0.0400

     Number of k-points >= 100: set verbosity='high' to print them.

     Dense  grid:   169093 G-vectors     FFT dimensions: (  72,  72,  72)

     Smooth grid:    90743 G-vectors     FFT dimensions: (  60,  60,  60)

     Estimated max dynamical RAM per process >     116.53 MB

     Estimated total dynamical RAM >       4.55 GB

     Check: negative/imaginary core charge=   -0.000006    0.000000

     Initial potential from superposition of free atoms

     starting charge  255.99300, renormalised to  256.00000
     Starting wfcs are  160 randomized atomic wfcs
     Checking if some PAW data can be deallocated... 

     total cpu time spent up to now is       11.7 secs

     Self-consistent Calculation

     iteration #  1     ecut=    71.00 Ry     beta= 0.10
     Davidson diagonalization with overlap
     ethr =  1.00E-02,  avg # of iterations =  3.4

     Threshold (ethr) on eigenvalues was too large:
     Diagonalizing with lowered threshold

     Davidson diagonalization with overlap
     ethr =  2.54E-04,  avg # of iterations =  3.2

     total cpu time spent up to now is      103.3 secs

     total energy              =   -5267.75244991 Ry
     Harris-Foulkes estimate   =   -5267.86791855 Ry
     estimated scf accuracy    <       0.73083394 Ry

     iteration #  2     ecut=    71.00 Ry     beta= 0.10
     Davidson diagonalization with overlap
     ethr =  2.85E-04,  avg # of iterations =  1.0

     total cpu time spent up to now is      131.1 secs

     total energy              =   -5267.61942545 Ry
     Harris-Foulkes estimate   =   -5267.76763675 Ry
     estimated scf accuracy    <       0.36359228 Ry

     iteration #  3     ecut=    71.00 Ry     beta= 0.10
     Davidson diagonalization with overlap
     ethr =  1.42E-04,  avg # of iterations =  3.2

     total cpu time spent up to now is      182.5 secs

     total energy              =   -5267.69672928 Ry
     Harris-Foulkes estimate   =   -5267.72228141 Ry
     estimated scf accuracy    <       0.60447040 Ry

     iteration #  4     ecut=    71.00 Ry     beta= 0.10
     Davidson diagonalization with overlap
     ethr =  1.42E-04,  avg # of iterations =  1.0

     total cpu time spent up to now is      209.9 secs

     total energy              =   -5267.70462543 Ry
     Harris-Foulkes estimate   =   -5267.71056159 Ry
     estimated scf accuracy    <       0.02882542 Ry

     iteration #  5     ecut=    71.00 Ry     beta= 0.10
     Davidson diagonalization with overlap
     ethr =  1.13E-05,  avg # of iterations =  2.1

     total cpu time spent up to now is      245.3 secs

     total energy              =   -5267.70469132 Ry
     Harris-Foulkes estimate   =   -5267.70683482 Ry
     estimated scf accuracy    <       0.02179059 Ry

     iteration #  6     ecut=    71.00 Ry     beta= 0.10
     Davidson diagonalization with overlap
     ethr =  8.51E-06,  avg # of iterations =  2.7

     total cpu time spent up to now is      286.5 secs

     total energy              =   -5267.70737380 Ry
     Harris-Foulkes estimate   =   -5267.70678646 Ry
     estimated scf accuracy    <       0.01142538 Ry

     iteration #  7     ecut=    71.00 Ry     beta= 0.10
     Davidson diagonalization with overlap
     ethr =  4.46E-06,  avg # of iterations =  1.7

     total cpu time spent up to now is      318.2 secs

     total energy              =   -5267.70621769 Ry
     Harris-Foulkes estimate   =   -5267.70780054 Ry
     estimated scf accuracy    <       0.01331217 Ry

     iteration #  8     ecut=    71.00 Ry     beta= 0.10
     Davidson diagonalization with overlap
     ethr =  4.46E-06,  avg # of iterations =  1.2

     total cpu time spent up to now is      347.2 secs

     total energy              =   -5267.70673884 Ry
     Harris-Foulkes estimate   =   -5267.70715788 Ry
     estimated scf accuracy    <       0.00839832 Ry

     iteration #  9     ecut=    71.00 Ry     beta= 0.10
     Davidson diagonalization with overlap
     ethr =  3.28E-06,  avg # of iterations =  2.2

     total cpu time spent up to now is      381.8 secs

     total energy              =   -5267.70710635 Ry
     Harris-Foulkes estimate   =   -5267.70717153 Ry
     estimated scf accuracy    <       0.00065751 Ry

     iteration # 10     ecut=    71.00 Ry     beta= 0.10
     Davidson diagonalization with overlap
     ethr =  2.57E-07,  avg # of iterations =  2.1

     total cpu time spent up to now is      416.0 secs

     total energy              =   -5267.70712622 Ry
     Harris-Foulkes estimate   =   -5267.70714742 Ry
     estimated scf accuracy    <       0.00033583 Ry

     iteration # 11     ecut=    71.00 Ry     beta= 0.10
     Davidson diagonalization with overlap
     ethr =  1.31E-07,  avg # of iterations =  1.0

     total cpu time spent up to now is      443.5 secs

     total energy              =   -5267.70710516 Ry
     Harris-Foulkes estimate   =   -5267.70713891 Ry
     estimated scf accuracy    <       0.00047618 Ry

     iteration # 12     ecut=    71.00 Ry     beta= 0.10
     Davidson diagonalization with overlap
     ethr =  1.31E-07,  avg # of iterations =  1.0

     total cpu time spent up to now is      470.8 secs

     total energy              =   -5267.70710983 Ry
     Harris-Foulkes estimate   =   -5267.70712146 Ry
     estimated scf accuracy    <       0.00029988 Ry

     iteration # 13     ecut=    71.00 Ry     beta= 0.10
     Davidson diagonalization with overlap
     ethr =  1.17E-07,  avg # of iterations =  1.0

     total cpu time spent up to now is      498.7 secs

     End of self-consistent calculation

     Number of k-points >= 100: set verbosity='high' to print the bands.

     the Fermi energy is    20.5177 ev

!    total energy              =   -5267.70710376 Ry
     Harris-Foulkes estimate   =   -5267.70711673 Ry
     estimated scf accuracy    <       0.00001594 Ry

     total all-electron energy =    -40728.451633 Ry

     The total energy is the sum of the following terms:

     one-electron contribution =   -1620.00051849 Ry
     hartree contribution      =     989.10366947 Ry
     xc contribution           =    -442.97399304 Ry
     ewald contribution        =   -2868.94614075 Ry
     one-center paw contrib.   =   -1324.75933119 Ry
     smearing contrib. (-TS)   =      -0.13078976 Ry

     convergence has been achieved in  13 iterations

     Forces acting on atoms (cartesian axes, Ry/au):

     atom    1 type  1   force =     0.00000000    0.00000000    0.00000000
     atom    2 type  1   force =    -0.00024544   -0.00024097   -0.00024097
     atom    3 type  1   force =     0.00000000    0.00000000    0.00000000
     atom    4 type  1   force =     0.00081764    0.00019855   -0.00019855
     atom    5 type  1   force =     0.00000000    0.00000000    0.00000000
     atom    6 type  1   force =     0.00081764   -0.00019855    0.00019855
     atom    7 type  1   force =     0.00000000    0.00000000    0.00000000
     atom    8 type  1   force =    -0.00024544    0.00024097    0.00024097
     atom    9 type  1   force =     0.00000000    0.00000000    0.00000000
     atom   10 type  1   force =     0.00024544   -0.00024097   -0.00024097
     atom   11 type  1   force =     0.00000000    0.00000000    0.00000000
     atom   12 type  1   force =    -0.00081764    0.00019855   -0.00019855
     atom   13 type  1   force =     0.00000000    0.00000000    0.00000000
     atom   14 type  1   force =    -0.00081764   -0.00019855    0.00019855
     atom   15 type  1   force =     0.00000000    0.00000000    0.00000000
     atom   16 type  1   force =     0.00024544    0.00024097    0.00024097

     Total force =     0.001922     Total SCF correction =     0.009528
     SCF correction compared to forces is large: reduce conv_thr to get better values


     Computing stress (Cartesian axis) and pressure

          total   stress  (Ry/bohr**3)                   (kbar)     P=   -8.47
  -0.00006036   0.00000000   0.00000000         -8.88      0.00      0.00
   0.00000000  -0.00005623  -0.00004612          0.00     -8.27     -6.78
   0.00000000  -0.00004612  -0.00005623          0.00     -6.78     -8.27


     Writing output data file GNenyBmiEzakBAec.save/
 
     init_run     :     10.45s CPU     10.97s WALL (       1 calls)
     electrons    :    470.72s CPU    487.03s WALL (       1 calls)
     forces       :      3.84s CPU      4.21s WALL (       1 calls)
     stress       :     10.01s CPU     10.13s WALL (       1 calls)

     Called by init_run:
     wfcinit      :     10.16s CPU     10.57s WALL (       1 calls)
     potinit      :      0.11s CPU      0.14s WALL (       1 calls)
     hinit0       :      0.11s CPU      0.17s WALL (       1 calls)

     Called by electrons:
     c_bands      :    421.75s CPU    435.31s WALL (      14 calls)
     sum_band     :     47.58s CPU     50.00s WALL (      14 calls)
     v_of_rho     :      0.14s CPU      0.27s WALL (      14 calls)
     newd         :      0.21s CPU      0.26s WALL (      14 calls)
     PAW_pot      :      1.00s CPU      1.08s WALL (      14 calls)
     mix_rho      :      0.04s CPU      0.08s WALL (      14 calls)

     Called by c_bands:
     init_us_2    :      2.55s CPU      2.60s WALL (    3875 calls)
     cegterg      :    409.74s CPU    423.06s WALL (    1750 calls)

     Called by sum_band:
     sum_band:bec :      0.70s CPU      0.71s WALL (    1750 calls)
     addusdens    :      0.20s CPU      0.26s WALL (      14 calls)

     Called by *egterg:
     h_psi        :    188.50s CPU    196.89s WALL (    5246 calls)
     s_psi        :     10.09s CPU     10.16s WALL (    5246 calls)
     g_psi        :      0.41s CPU      0.41s WALL (    3371 calls)
     cdiaghg      :    173.05s CPU    173.73s WALL (    4996 calls)

     Called by h_psi:
     h_psi:pot    :    187.52s CPU    195.90s WALL (    5246 calls)
     h_psi:calbec :     15.00s CPU     17.58s WALL (    5246 calls)
     vloc_psi     :    162.30s CPU    168.04s WALL (    5246 calls)
     add_vuspsi   :     10.17s CPU     10.25s WALL (    5246 calls)

     General routines
     calbec       :     24.06s CPU     28.16s WALL (    7621 calls)
     fft          :      0.20s CPU      0.44s WALL (     207 calls)
     ffts         :      0.06s CPU      0.11s WALL (      28 calls)
     fftw         :    189.04s CPU    195.52s WALL ( 1449952 calls)
     interpolate  :      0.02s CPU      0.05s WALL (      14 calls)
 
     Parallel routines
     fft_scatt_xy :     12.77s CPU     13.18s WALL ( 1450187 calls)
     fft_scatt_yz :    126.65s CPU    131.37s WALL ( 1450187 calls)
 
     PWSCF        :  8m23.34s CPU     8m59.55s WALL

 
   This run was terminated on:   8:57:10   5Sep2020            

=------------------------------------------------------------------------------=
   JOB DONE.
=------------------------------------------------------------------------------=
