
     Program PWSCF v.6.3 starts on  5Sep2020 at  9:33:15 

     This program is part of the open-source Quantum ESPRESSO suite
     for quantum simulation of materials; please cite
         "P. Giannozzi et al., J. Phys.:Condens. Matter 21 395502 (2009);
         "P. Giannozzi et al., J. Phys.:Condens. Matter 29 465901 (2017);
          URL http://www.quantum-espresso.org", 
     in publications or presentations arising from this work. More details at
     http://www.quantum-espresso.org/quote

     Parallel version (MPI & OpenMP), running on      40 processor cores
     Number of MPI processes:                40
     Threads/MPI process:                     1

     MPI processes distributed on     1 nodes
     R & G space division:  proc/nbgrp/npool/nimage =      40
     Reading input from wd/ec/ec_4_009.in
Warning: card &IONS ignored
Warning: card ION_DYNAMICS = 'BFGS', ignored
Warning: card / ignored
Warning: card &CELL ignored
Warning: card CELL_DYNAMICS = 'BFGS', ignored
Warning: card CELL_FACTOR = 2.0, ignored
Warning: card PRESS = 0.0, ignored
Warning: card / ignored

     Current dimensions of program PWSCF are:
     Max number of different atomic species (ntypx) = 10
     Max number of k-points (npk) =  40000
     Max angular momentum in pseudopotentials (lmaxx) =  3
               file Fe.pbe-spn-kjpaw_psl.1.0.0.UPF: wavefunction(s)  3P 3D renormalized

     Subspace diagonalization in iterative solution of the eigenvalue problem:
     a serial algorithm will be used

 
     Parallelization info
     --------------------
     sticks:   dense  smooth     PW     G-vecs:    dense   smooth      PW
     Min          92      61     17                 4224     2266     335
     Max          93      62     18                 4229     2270     341
     Sum        3705    2441    681               169093    90723   13541
 


     bravais-lattice index     =            0
     lattice parameter (alat)  =      10.3915  a.u.
     unit-cell volume          =    1122.0973 (a.u.)^3
     number of atoms/cell      =           16
     number of atomic types    =            1
     number of electrons       =       256.00
     number of Kohn-Sham states=          154
     kinetic-energy cutoff     =      71.0000  Ry
     charge density cutoff     =     430.0000  Ry
     convergence threshold     =      5.0E-05
     mixing beta               =       0.1000
     number of iterations used =           10  plain     mixing
     Exchange-correlation      = SLA PW PBX PBC ( 1  4  3  4 0 0)

     celldm(1)=  10.391466  celldm(2)=   0.000000  celldm(3)=   0.000000
     celldm(4)=   0.000000  celldm(5)=   0.000000  celldm(6)=   0.000000

     crystal axes: (cart. coord. in units of alat)
               a(1) = (   1.000008   0.000000   0.000000 )  
               a(2) = (   0.000000   1.000008   0.005000 )  
               a(3) = (   0.000000   0.005000   1.000008 )  

     reciprocal axes: (cart. coord. in units 2 pi/alat)
               b(1) = (  0.999992  0.000000  0.000000 )  
               b(2) = (  0.000000  1.000017 -0.005000 )  
               b(3) = (  0.000000 -0.005000  1.000017 )  


     PseudoPot. # 1 for Fe read from file:
     /rds/homes/b/bxp912/pp/Fe.pbe-spn-kjpaw_psl.1.0.0.UPF
     MD5 check sum: 42f43b795421b414b0dc916aa790dbcb
     Pseudo is Projector augmented-wave + core cor, Zval = 16.0
     Generated using "atomic" code by A. Dal Corso v.6.3
     Shape of augmentation charge: PSQ
     Using radial grid of 1191 points,  6 beta functions with: 
                l(1) =   0
                l(2) =   0
                l(3) =   1
                l(4) =   1
                l(5) =   2
                l(6) =   2
     Q(r) pseudized with 0 coefficients 


     atomic species   valence    mass     pseudopotential
        Fe            16.00    55.84500     Fe( 1.00)

      8 Sym. Ops., with inversion, found



   Cartesian axes

     site n.     atom                  positions (alat units)
         1           Fe  tau(   1) = (   0.0000000   0.0000000   0.0000000  )
         2           Fe  tau(   2) = (   0.2500110   0.2512611   0.2512611  )
         3           Fe  tau(   3) = (   0.0000000   0.0025000   0.5000037  )
         4           Fe  tau(   4) = (   0.2500110   0.2537610   0.7512474  )
         5           Fe  tau(   5) = (   0.0000000   0.5000043   0.0025000  )
         6           Fe  tau(   6) = (   0.2500110   0.7512475   0.2537610  )
         7           Fe  tau(   7) = (   0.0000000   0.5025043   0.5025037  )
         8           Fe  tau(   8) = (   0.2500110   0.7537474   0.7537473  )
         9           Fe  tau(   9) = (   0.5000043   0.0000000   0.0000000  )
        10           Fe  tau(  10) = (   0.7499974   0.2512611   0.2512611  )
        11           Fe  tau(  11) = (   0.5000043   0.0025000   0.5000037  )
        12           Fe  tau(  12) = (   0.7499974   0.2537610   0.7512474  )
        13           Fe  tau(  13) = (   0.5000043   0.5000043   0.0025000  )
        14           Fe  tau(  14) = (   0.7499974   0.7512475   0.2537610  )
        15           Fe  tau(  15) = (   0.5000043   0.5025043   0.5025037  )
        16           Fe  tau(  16) = (   0.7499974   0.7537474   0.7537473  )

     number of k points=   125  Marzari-Vanderbilt smearing, width (Ry)=  0.0400

     Number of k-points >= 100: set verbosity='high' to print them.

     Dense  grid:   169093 G-vectors     FFT dimensions: (  72,  72,  72)

     Smooth grid:    90723 G-vectors     FFT dimensions: (  60,  60,  60)

     Estimated max dynamical RAM per process >     116.52 MB

     Estimated total dynamical RAM >       4.55 GB

     Check: negative/imaginary core charge=   -0.000006    0.000000

     Initial potential from superposition of free atoms

     starting charge  255.99300, renormalised to  256.00000
     Starting wfcs are  160 randomized atomic wfcs
     Checking if some PAW data can be deallocated... 

     total cpu time spent up to now is       12.0 secs

     Self-consistent Calculation

     iteration #  1     ecut=    71.00 Ry     beta= 0.10
     Davidson diagonalization with overlap
     ethr =  1.00E-02,  avg # of iterations =  3.4

     Threshold (ethr) on eigenvalues was too large:
     Diagonalizing with lowered threshold

     Davidson diagonalization with overlap
     ethr =  2.52E-04,  avg # of iterations =  3.2

     total cpu time spent up to now is      103.4 secs

     total energy              =   -5267.75186431 Ry
     Harris-Foulkes estimate   =   -5267.86729766 Ry
     estimated scf accuracy    <       0.73064436 Ry

     iteration #  2     ecut=    71.00 Ry     beta= 0.10
     Davidson diagonalization with overlap
     ethr =  2.85E-04,  avg # of iterations =  1.0

     total cpu time spent up to now is      131.0 secs

     total energy              =   -5267.61908652 Ry
     Harris-Foulkes estimate   =   -5267.76703472 Ry
     estimated scf accuracy    <       0.36337704 Ry

     iteration #  3     ecut=    71.00 Ry     beta= 0.10
     Davidson diagonalization with overlap
     ethr =  1.42E-04,  avg # of iterations =  3.4

     total cpu time spent up to now is      183.1 secs

     total energy              =   -5267.69601737 Ry
     Harris-Foulkes estimate   =   -5267.72182050 Ry
     estimated scf accuracy    <       0.61225518 Ry

     iteration #  4     ecut=    71.00 Ry     beta= 0.10
     Davidson diagonalization with overlap
     ethr =  1.42E-04,  avg # of iterations =  1.0

     total cpu time spent up to now is      210.4 secs

     total energy              =   -5267.70402294 Ry
     Harris-Foulkes estimate   =   -5267.70999344 Ry
     estimated scf accuracy    <       0.02864758 Ry

     iteration #  5     ecut=    71.00 Ry     beta= 0.10
     Davidson diagonalization with overlap
     ethr =  1.12E-05,  avg # of iterations =  2.2

     total cpu time spent up to now is      246.1 secs

     total energy              =   -5267.70420115 Ry
     Harris-Foulkes estimate   =   -5267.70626347 Ry
     estimated scf accuracy    <       0.02158700 Ry

     iteration #  6     ecut=    71.00 Ry     beta= 0.10
     Davidson diagonalization with overlap
     ethr =  8.43E-06,  avg # of iterations =  2.7

     total cpu time spent up to now is      286.5 secs

     total energy              =   -5267.70678665 Ry
     Harris-Foulkes estimate   =   -5267.70622053 Ry
     estimated scf accuracy    <       0.01140474 Ry

     iteration #  7     ecut=    71.00 Ry     beta= 0.10
     Davidson diagonalization with overlap
     ethr =  4.45E-06,  avg # of iterations =  2.0

     total cpu time spent up to now is      320.3 secs

     total energy              =   -5267.70573371 Ry
     Harris-Foulkes estimate   =   -5267.70723679 Ry
     estimated scf accuracy    <       0.01364496 Ry

     iteration #  8     ecut=    71.00 Ry     beta= 0.10
     Davidson diagonalization with overlap
     ethr =  4.45E-06,  avg # of iterations =  1.3

     total cpu time spent up to now is      348.9 secs

     total energy              =   -5267.70613364 Ry
     Harris-Foulkes estimate   =   -5267.70663616 Ry
     estimated scf accuracy    <       0.00935747 Ry

     iteration #  9     ecut=    71.00 Ry     beta= 0.10
     Davidson diagonalization with overlap
     ethr =  3.66E-06,  avg # of iterations =  2.2

     total cpu time spent up to now is      383.2 secs

     total energy              =   -5267.70655523 Ry
     Harris-Foulkes estimate   =   -5267.70661361 Ry
     estimated scf accuracy    <       0.00066136 Ry

     iteration # 10     ecut=    71.00 Ry     beta= 0.10
     Davidson diagonalization with overlap
     ethr =  2.58E-07,  avg # of iterations =  2.1

     total cpu time spent up to now is      416.9 secs

     total energy              =   -5267.70656466 Ry
     Harris-Foulkes estimate   =   -5267.70659223 Ry
     estimated scf accuracy    <       0.00029983 Ry

     iteration # 11     ecut=    71.00 Ry     beta= 0.10
     Davidson diagonalization with overlap
     ethr =  1.17E-07,  avg # of iterations =  1.0

     total cpu time spent up to now is      444.5 secs

     total energy              =   -5267.70655094 Ry
     Harris-Foulkes estimate   =   -5267.70658034 Ry
     estimated scf accuracy    <       0.00043164 Ry

     iteration # 12     ecut=    71.00 Ry     beta= 0.10
     Davidson diagonalization with overlap
     ethr =  1.17E-07,  avg # of iterations =  1.0

     total cpu time spent up to now is      471.8 secs

     total energy              =   -5267.70655181 Ry
     Harris-Foulkes estimate   =   -5267.70656596 Ry
     estimated scf accuracy    <       0.00037030 Ry

     iteration # 13     ecut=    71.00 Ry     beta= 0.10
     Davidson diagonalization with overlap
     ethr =  1.17E-07,  avg # of iterations =  1.0

     total cpu time spent up to now is      499.0 secs

     End of self-consistent calculation

     Number of k-points >= 100: set verbosity='high' to print the bands.

     the Fermi energy is    20.5166 ev

!    total energy              =   -5267.70654471 Ry
     Harris-Foulkes estimate   =   -5267.70655942 Ry
     estimated scf accuracy    <       0.00001749 Ry

     total all-electron energy =    -40728.451074 Ry

     The total energy is the sum of the following terms:

     one-electron contribution =   -1620.10524340 Ry
     hartree contribution      =     989.19451860 Ry
     xc contribution           =    -442.98419399 Ry
     ewald contribution        =   -2868.92099175 Ry
     one-center paw contrib.   =   -1324.75982417 Ry
     smearing contrib. (-TS)   =      -0.13081000 Ry

     convergence has been achieved in  13 iterations

     Forces acting on atoms (cartesian axes, Ry/au):

     atom    1 type  1   force =     0.00000000    0.00000000    0.00000000
     atom    2 type  1   force =    -0.00020436   -0.00025383   -0.00025383
     atom    3 type  1   force =     0.00000000    0.00000000    0.00000000
     atom    4 type  1   force =     0.00050121    0.00012007   -0.00012007
     atom    5 type  1   force =     0.00000000    0.00000000    0.00000000
     atom    6 type  1   force =     0.00050121   -0.00012007    0.00012007
     atom    7 type  1   force =     0.00000000    0.00000000    0.00000000
     atom    8 type  1   force =    -0.00020436    0.00025383    0.00025383
     atom    9 type  1   force =     0.00000000    0.00000000    0.00000000
     atom   10 type  1   force =     0.00020436   -0.00025383   -0.00025383
     atom   11 type  1   force =     0.00000000    0.00000000    0.00000000
     atom   12 type  1   force =    -0.00050121    0.00012007   -0.00012007
     atom   13 type  1   force =     0.00000000    0.00000000    0.00000000
     atom   14 type  1   force =    -0.00050121   -0.00012007    0.00012007
     atom   15 type  1   force =     0.00000000    0.00000000    0.00000000
     atom   16 type  1   force =     0.00020436    0.00025383    0.00025383

     Total force =     0.001343     Total SCF correction =     0.010476
     SCF correction compared to forces is large: reduce conv_thr to get better values


     Computing stress (Cartesian axis) and pressure

          total   stress  (Ry/bohr**3)                   (kbar)     P=    3.73
   0.00002342   0.00000000   0.00000000          3.45      0.00      0.00
   0.00000000   0.00002630  -0.00011985          0.00      3.87    -17.63
   0.00000000  -0.00011985   0.00002630          0.00    -17.63      3.87


     Writing output data file pIqkiiBJtYnWaieK.save/
 
     init_run     :     10.84s CPU     11.35s WALL (       1 calls)
     electrons    :    471.06s CPU    486.94s WALL (       1 calls)
     forces       :      3.76s CPU      4.12s WALL (       1 calls)
     stress       :      9.97s CPU     10.08s WALL (       1 calls)

     Called by init_run:
     wfcinit      :     10.54s CPU     10.95s WALL (       1 calls)
     potinit      :      0.10s CPU      0.13s WALL (       1 calls)
     hinit0       :      0.13s CPU      0.17s WALL (       1 calls)

     Called by electrons:
     c_bands      :    422.47s CPU    435.40s WALL (      14 calls)
     sum_band     :     47.24s CPU     49.87s WALL (      14 calls)
     v_of_rho     :      0.13s CPU      0.26s WALL (      14 calls)
     newd         :      0.19s CPU      0.25s WALL (      14 calls)
     PAW_pot      :      1.04s CPU      1.11s WALL (      14 calls)
     mix_rho      :      0.04s CPU      0.07s WALL (      14 calls)

     Called by c_bands:
     init_us_2    :      2.46s CPU      2.51s WALL (    3875 calls)
     cegterg      :    410.40s CPU    423.17s WALL (    1750 calls)

     Called by sum_band:
     sum_band:bec :      0.73s CPU      0.74s WALL (    1750 calls)
     addusdens    :      0.20s CPU      0.25s WALL (      14 calls)

     Called by *egterg:
     h_psi        :    186.12s CPU    194.08s WALL (    5314 calls)
     s_psi        :     10.11s CPU     10.17s WALL (    5314 calls)
     g_psi        :      0.41s CPU      0.41s WALL (    3439 calls)
     cdiaghg      :    176.07s CPU    176.63s WALL (    5064 calls)

     Called by h_psi:
     h_psi:pot    :    185.01s CPU    192.96s WALL (    5314 calls)
     h_psi:calbec :     15.10s CPU     17.62s WALL (    5314 calls)
     vloc_psi     :    159.64s CPU    165.00s WALL (    5314 calls)
     add_vuspsi   :     10.22s CPU     10.30s WALL (    5314 calls)

     General routines
     calbec       :     24.38s CPU     28.49s WALL (    7689 calls)
     fft          :      0.16s CPU      0.39s WALL (     207 calls)
     ffts         :      0.02s CPU      0.07s WALL (      28 calls)
     fftw         :    186.08s CPU    192.38s WALL ( 1450254 calls)
     interpolate  :      0.02s CPU      0.04s WALL (      14 calls)
 
     Parallel routines
     fft_scatt_xy :     12.56s CPU     12.95s WALL ( 1450489 calls)
     fft_scatt_yz :    124.15s CPU    128.67s WALL ( 1450489 calls)
 
     PWSCF        :  8m23.86s CPU     8m58.82s WALL

 
   This run was terminated on:   9:42:14   5Sep2020            

=------------------------------------------------------------------------------=
   JOB DONE.
=------------------------------------------------------------------------------=
