--------------------------------------------------------------------------
WARNING: There was an error initializing an OpenFabrics device.

  Local host:   bear-pg0211u07b
  Local device: mlx5_0
--------------------------------------------------------------------------

     Program PWSCF v.6.3 starts on  5Sep2020 at  8:57:11 

     This program is part of the open-source Quantum ESPRESSO suite
     for quantum simulation of materials; please cite
         "P. Giannozzi et al., J. Phys.:Condens. Matter 21 395502 (2009);
         "P. Giannozzi et al., J. Phys.:Condens. Matter 29 465901 (2017);
          URL http://www.quantum-espresso.org", 
     in publications or presentations arising from this work. More details at
     http://www.quantum-espresso.org/quote

     Parallel version (MPI & OpenMP), running on      40 processor cores
     Number of MPI processes:                40
     Threads/MPI process:                     1

     MPI processes distributed on     1 nodes
     R & G space division:  proc/nbgrp/npool/nimage =      40
     Reading input from wd/ec/ec_4_005.in
Warning: card &IONS ignored
Warning: card ION_DYNAMICS = 'BFGS', ignored
Warning: card / ignored
Warning: card &CELL ignored
Warning: card CELL_DYNAMICS = 'BFGS', ignored
Warning: card CELL_FACTOR = 2.0, ignored
Warning: card PRESS = 0.0, ignored
Warning: card / ignored

     Current dimensions of program PWSCF are:
     Max number of different atomic species (ntypx) = 10
     Max number of k-points (npk) =  40000
     Max angular momentum in pseudopotentials (lmaxx) =  3
               file Fe.pbe-spn-kjpaw_psl.1.0.0.UPF: wavefunction(s)  3P 3D renormalized

     Subspace diagonalization in iterative solution of the eigenvalue problem:
     a serial algorithm will be used

 
     Parallelization info
     --------------------
     sticks:   dense  smooth     PW     G-vecs:    dense   smooth      PW
     Min          92      60     17                 4225     2266     336
     Max          93      62     18                 4230     2270     341
     Sum        3705    2441    681               169109    90735   13565
 


     bravais-lattice index     =            0
     lattice parameter (alat)  =      10.3915  a.u.
     unit-cell volume          =    1122.0973 (a.u.)^3
     number of atoms/cell      =           16
     number of atomic types    =            1
     number of electrons       =       256.00
     number of Kohn-Sham states=          154
     kinetic-energy cutoff     =      71.0000  Ry
     charge density cutoff     =     430.0000  Ry
     convergence threshold     =      5.0E-05
     mixing beta               =       0.1000
     number of iterations used =           10  plain     mixing
     Exchange-correlation      = SLA PW PBX PBC ( 1  4  3  4 0 0)

     celldm(1)=  10.391466  celldm(2)=   0.000000  celldm(3)=   0.000000
     celldm(4)=   0.000000  celldm(5)=   0.000000  celldm(6)=   0.000000

     crystal axes: (cart. coord. in units of alat)
               a(1) = (   1.000002   0.000000   0.000000 )  
               a(2) = (   0.000000   1.000002   0.002500 )  
               a(3) = (   0.000000   0.002500   1.000002 )  

     reciprocal axes: (cart. coord. in units 2 pi/alat)
               b(1) = (  0.999998  0.000000  0.000000 )  
               b(2) = (  0.000000  1.000004 -0.002500 )  
               b(3) = (  0.000000 -0.002500  1.000004 )  


     PseudoPot. # 1 for Fe read from file:
     /rds/homes/b/bxp912/pp/Fe.pbe-spn-kjpaw_psl.1.0.0.UPF
     MD5 check sum: 42f43b795421b414b0dc916aa790dbcb
     Pseudo is Projector augmented-wave + core cor, Zval = 16.0
     Generated using "atomic" code by A. Dal Corso v.6.3
     Shape of augmentation charge: PSQ
     Using radial grid of 1191 points,  6 beta functions with: 
                l(1) =   0
                l(2) =   0
                l(3) =   1
                l(4) =   1
                l(5) =   2
                l(6) =   2
     Q(r) pseudized with 0 coefficients 


     atomic species   valence    mass     pseudopotential
        Fe            16.00    55.84500     Fe( 1.00)

      8 Sym. Ops., with inversion, found



   Cartesian axes

     site n.     atom                  positions (alat units)
         1           Fe  tau(   1) = (   0.0000000   0.0000000   0.0000000  )
         2           Fe  tau(   2) = (   0.2500094   0.2506345   0.2506345  )
         3           Fe  tau(   3) = (   0.0000000   0.0012500   0.5000005  )
         4           Fe  tau(   4) = (   0.2500094   0.2518844   0.7506177  )
         5           Fe  tau(   5) = (   0.0000000   0.5000011   0.0012500  )
         6           Fe  tau(   6) = (   0.2500094   0.7506178   0.2518844  )
         7           Fe  tau(   7) = (   0.0000000   0.5012511   0.5012505  )
         8           Fe  tau(   8) = (   0.2500094   0.7518677   0.7518676  )
         9           Fe  tau(   9) = (   0.5000011   0.0000000   0.0000000  )
        10           Fe  tau(  10) = (   0.7499928   0.2506345   0.2506345  )
        11           Fe  tau(  11) = (   0.5000011   0.0012500   0.5000005  )
        12           Fe  tau(  12) = (   0.7499928   0.2518844   0.7506177  )
        13           Fe  tau(  13) = (   0.5000011   0.5000011   0.0012500  )
        14           Fe  tau(  14) = (   0.7499928   0.7506178   0.2518844  )
        15           Fe  tau(  15) = (   0.5000011   0.5012511   0.5012505  )
        16           Fe  tau(  16) = (   0.7499928   0.7518677   0.7518676  )

     number of k points=   125  Marzari-Vanderbilt smearing, width (Ry)=  0.0400

     Number of k-points >= 100: set verbosity='high' to print them.

     Dense  grid:   169109 G-vectors     FFT dimensions: (  72,  72,  72)

     Smooth grid:    90735 G-vectors     FFT dimensions: (  60,  60,  60)

     Estimated max dynamical RAM per process >     116.53 MB

     Estimated total dynamical RAM >       4.55 GB

     Check: negative/imaginary core charge=   -0.000006    0.000000

     Initial potential from superposition of free atoms

     starting charge  255.99300, renormalised to  256.00000
     Starting wfcs are  160 randomized atomic wfcs
     Checking if some PAW data can be deallocated... 

     total cpu time spent up to now is       11.8 secs

     Self-consistent Calculation

     iteration #  1     ecut=    71.00 Ry     beta= 0.10
     Davidson diagonalization with overlap
     ethr =  1.00E-02,  avg # of iterations =  3.4

     Threshold (ethr) on eigenvalues was too large:
     Diagonalizing with lowered threshold

     Davidson diagonalization with overlap
     ethr =  2.54E-04,  avg # of iterations =  3.2

     total cpu time spent up to now is      103.0 secs

     total energy              =   -5267.75232385 Ry
     Harris-Foulkes estimate   =   -5267.86784454 Ry
     estimated scf accuracy    <       0.73115008 Ry

     iteration #  2     ecut=    71.00 Ry     beta= 0.10
     Davidson diagonalization with overlap
     ethr =  2.86E-04,  avg # of iterations =  1.0

     total cpu time spent up to now is      130.7 secs

     total energy              =   -5267.61938466 Ry
     Harris-Foulkes estimate   =   -5267.76753556 Ry
     estimated scf accuracy    <       0.36356421 Ry

     iteration #  3     ecut=    71.00 Ry     beta= 0.10
     Davidson diagonalization with overlap
     ethr =  1.42E-04,  avg # of iterations =  3.3

     total cpu time spent up to now is      182.1 secs

     total energy              =   -5267.69664804 Ry
     Harris-Foulkes estimate   =   -5267.72219319 Ry
     estimated scf accuracy    <       0.60452193 Ry

     iteration #  4     ecut=    71.00 Ry     beta= 0.10
     Davidson diagonalization with overlap
     ethr =  1.42E-04,  avg # of iterations =  1.0

     total cpu time spent up to now is      209.4 secs

     total energy              =   -5267.70455380 Ry
     Harris-Foulkes estimate   =   -5267.71047888 Ry
     estimated scf accuracy    <       0.02876202 Ry

     iteration #  5     ecut=    71.00 Ry     beta= 0.10
     Davidson diagonalization with overlap
     ethr =  1.12E-05,  avg # of iterations =  2.2

     total cpu time spent up to now is      244.7 secs

     total energy              =   -5267.70463414 Ry
     Harris-Foulkes estimate   =   -5267.70676135 Ry
     estimated scf accuracy    <       0.02171572 Ry

     iteration #  6     ecut=    71.00 Ry     beta= 0.10
     Davidson diagonalization with overlap
     ethr =  8.48E-06,  avg # of iterations =  2.7

     total cpu time spent up to now is      285.6 secs

     total energy              =   -5267.70729492 Ry
     Harris-Foulkes estimate   =   -5267.70670877 Ry
     estimated scf accuracy    <       0.01140251 Ry

     iteration #  7     ecut=    71.00 Ry     beta= 0.10
     Davidson diagonalization with overlap
     ethr =  4.45E-06,  avg # of iterations =  1.8

     total cpu time spent up to now is      318.0 secs

     total energy              =   -5267.70616579 Ry
     Harris-Foulkes estimate   =   -5267.70772825 Ry
     estimated scf accuracy    <       0.01336690 Ry

     iteration #  8     ecut=    71.00 Ry     beta= 0.10
     Davidson diagonalization with overlap
     ethr =  4.45E-06,  avg # of iterations =  1.3

     total cpu time spent up to now is      347.1 secs

     total energy              =   -5267.70665681 Ry
     Harris-Foulkes estimate   =   -5267.70709595 Ry
     estimated scf accuracy    <       0.00863704 Ry

     iteration #  9     ecut=    71.00 Ry     beta= 0.10
     Davidson diagonalization with overlap
     ethr =  3.37E-06,  avg # of iterations =  2.2

     total cpu time spent up to now is      381.6 secs

     total energy              =   -5267.70703665 Ry
     Harris-Foulkes estimate   =   -5267.70709977 Ry
     estimated scf accuracy    <       0.00065404 Ry

     iteration # 10     ecut=    71.00 Ry     beta= 0.10
     Davidson diagonalization with overlap
     ethr =  2.55E-07,  avg # of iterations =  2.2

     total cpu time spent up to now is      416.0 secs

     total energy              =   -5267.70705405 Ry
     Harris-Foulkes estimate   =   -5267.70707649 Ry
     estimated scf accuracy    <       0.00032561 Ry

     iteration # 11     ecut=    71.00 Ry     beta= 0.10
     Davidson diagonalization with overlap
     ethr =  1.27E-07,  avg # of iterations =  1.0

     total cpu time spent up to now is      443.4 secs

     total energy              =   -5267.70703534 Ry
     Harris-Foulkes estimate   =   -5267.70706726 Ry
     estimated scf accuracy    <       0.00046223 Ry

     iteration # 12     ecut=    71.00 Ry     beta= 0.10
     Davidson diagonalization with overlap
     ethr =  1.27E-07,  avg # of iterations =  1.0

     total cpu time spent up to now is      470.8 secs

     total energy              =   -5267.70703780 Ry
     Harris-Foulkes estimate   =   -5267.70705097 Ry
     estimated scf accuracy    <       0.00033670 Ry

     iteration # 13     ecut=    71.00 Ry     beta= 0.10
     Davidson diagonalization with overlap
     ethr =  1.27E-07,  avg # of iterations =  1.0

     total cpu time spent up to now is      498.3 secs

     End of self-consistent calculation

     Number of k-points >= 100: set verbosity='high' to print the bands.

     the Fermi energy is    20.5174 ev

!    total energy              =   -5267.70703259 Ry
     Harris-Foulkes estimate   =   -5267.70704526 Ry
     estimated scf accuracy    <       0.00001554 Ry

     total all-electron energy =    -40728.451562 Ry

     The total energy is the sum of the following terms:

     one-electron contribution =   -1620.02123446 Ry
     hartree contribution      =     989.12393187 Ry
     xc contribution           =    -442.97652753 Ry
     ewald contribution        =   -2868.94294005 Ry
     one-center paw contrib.   =   -1324.75946825 Ry
     smearing contrib. (-TS)   =      -0.13079417 Ry

     convergence has been achieved in  13 iterations

     Forces acting on atoms (cartesian axes, Ry/au):

     atom    1 type  1   force =     0.00000000    0.00000000    0.00000000
     atom    2 type  1   force =    -0.00019804   -0.00019659   -0.00019659
     atom    3 type  1   force =     0.00000000    0.00000000    0.00000000
     atom    4 type  1   force =     0.00066864    0.00017421   -0.00017421
     atom    5 type  1   force =     0.00000000    0.00000000    0.00000000
     atom    6 type  1   force =     0.00066864   -0.00017421    0.00017421
     atom    7 type  1   force =     0.00000000    0.00000000    0.00000000
     atom    8 type  1   force =    -0.00019804    0.00019659    0.00019659
     atom    9 type  1   force =     0.00000000    0.00000000    0.00000000
     atom   10 type  1   force =     0.00019804   -0.00019659   -0.00019659
     atom   11 type  1   force =     0.00000000    0.00000000    0.00000000
     atom   12 type  1   force =    -0.00066864    0.00017421   -0.00017421
     atom   13 type  1   force =     0.00000000    0.00000000    0.00000000
     atom   14 type  1   force =    -0.00066864   -0.00017421    0.00017421
     atom   15 type  1   force =     0.00000000    0.00000000    0.00000000
     atom   16 type  1   force =     0.00019804    0.00019659    0.00019659

     Total force =     0.001580     Total SCF correction =     0.009801
     SCF correction compared to forces is large: reduce conv_thr to get better values


     Computing stress (Cartesian axis) and pressure

          total   stress  (Ry/bohr**3)                   (kbar)     P=   -5.33
  -0.00003890   0.00000000   0.00000000         -5.72      0.00      0.00
   0.00000000  -0.00003493  -0.00006096          0.00     -5.14     -8.97
   0.00000000  -0.00006096  -0.00003493          0.00     -8.97     -5.14


     Writing output data file eluXYkEtljuypbEe.save/
 
     init_run     :     10.62s CPU     11.15s WALL (       1 calls)
     electrons    :    470.91s CPU    486.45s WALL (       1 calls)
     forces       :      3.75s CPU      4.10s WALL (       1 calls)
     stress       :      9.90s CPU     10.01s WALL (       1 calls)

     Called by init_run:
     wfcinit      :     10.30s CPU     10.74s WALL (       1 calls)
     potinit      :      0.12s CPU      0.15s WALL (       1 calls)
     hinit0       :      0.12s CPU      0.17s WALL (       1 calls)

     Called by electrons:
     c_bands      :    422.12s CPU    434.93s WALL (      14 calls)
     sum_band     :     47.46s CPU     49.91s WALL (      14 calls)
     v_of_rho     :      0.14s CPU      0.26s WALL (      14 calls)
     newd         :      0.20s CPU      0.25s WALL (      14 calls)
     PAW_pot      :      0.99s CPU      1.04s WALL (      14 calls)
     mix_rho      :      0.04s CPU      0.07s WALL (      14 calls)

     Called by c_bands:
     init_us_2    :      2.44s CPU      2.47s WALL (    3875 calls)
     cegterg      :    410.10s CPU    422.79s WALL (    1750 calls)

     Called by sum_band:
     sum_band:bec :      0.72s CPU      0.74s WALL (    1750 calls)
     addusdens    :      0.20s CPU      0.27s WALL (      14 calls)

     Called by *egterg:
     h_psi        :    188.02s CPU    195.92s WALL (    5278 calls)
     s_psi        :      9.97s CPU     10.03s WALL (    5278 calls)
     g_psi        :      0.39s CPU      0.40s WALL (    3403 calls)
     cdiaghg      :    173.76s CPU    174.36s WALL (    5028 calls)

     Called by h_psi:
     h_psi:pot    :    187.00s CPU    194.88s WALL (    5278 calls)
     h_psi:calbec :     15.13s CPU     17.57s WALL (    5278 calls)
     vloc_psi     :    161.93s CPU    167.32s WALL (    5278 calls)
     add_vuspsi   :      9.89s CPU      9.96s WALL (    5278 calls)

     General routines
     calbec       :     24.32s CPU     28.31s WALL (    7653 calls)
     fft          :      0.15s CPU      0.37s WALL (     207 calls)
     ffts         :      0.02s CPU      0.07s WALL (      28 calls)
     fftw         :    188.72s CPU    194.92s WALL ( 1449936 calls)
     interpolate  :      0.02s CPU      0.04s WALL (      14 calls)
 
     Parallel routines
     fft_scatt_xy :     12.61s CPU     13.02s WALL ( 1450171 calls)
     fft_scatt_yz :    126.54s CPU    131.01s WALL ( 1450171 calls)
 
     PWSCF        :  8m23.45s CPU     8m57.90s WALL

 
   This run was terminated on:   9: 6: 9   5Sep2020            

=------------------------------------------------------------------------------=
   JOB DONE.
=------------------------------------------------------------------------------=
