
     Program PWSCF v.6.3 starts on  5Sep2020 at  9:24:14 

     This program is part of the open-source Quantum ESPRESSO suite
     for quantum simulation of materials; please cite
         "P. Giannozzi et al., J. Phys.:Condens. Matter 21 395502 (2009);
         "P. Giannozzi et al., J. Phys.:Condens. Matter 29 465901 (2017);
          URL http://www.quantum-espresso.org", 
     in publications or presentations arising from this work. More details at
     http://www.quantum-espresso.org/quote

     Parallel version (MPI & OpenMP), running on      40 processor cores
     Number of MPI processes:                40
     Threads/MPI process:                     1

     MPI processes distributed on     1 nodes
     R & G space division:  proc/nbgrp/npool/nimage =      40
     Reading input from wd/ec/ec_4_008.in
Warning: card &IONS ignored
Warning: card ION_DYNAMICS = 'BFGS', ignored
Warning: card / ignored
Warning: card &CELL ignored
Warning: card CELL_DYNAMICS = 'BFGS', ignored
Warning: card CELL_FACTOR = 2.0, ignored
Warning: card PRESS = 0.0, ignored
Warning: card / ignored

     Current dimensions of program PWSCF are:
     Max number of different atomic species (ntypx) = 10
     Max number of k-points (npk) =  40000
     Max angular momentum in pseudopotentials (lmaxx) =  3
               file Fe.pbe-spn-kjpaw_psl.1.0.0.UPF: wavefunction(s)  3P 3D renormalized

     Subspace diagonalization in iterative solution of the eigenvalue problem:
     a serial algorithm will be used

 
     Parallelization info
     --------------------
     sticks:   dense  smooth     PW     G-vecs:    dense   smooth      PW
     Min          92      61     17                 4225     2265     335
     Max          93      62     18                 4230     2270     341
     Sum        3705    2441    681               169117    90715   13537
 


     bravais-lattice index     =            0
     lattice parameter (alat)  =      10.3915  a.u.
     unit-cell volume          =    1122.0973 (a.u.)^3
     number of atoms/cell      =           16
     number of atomic types    =            1
     number of electrons       =       256.00
     number of Kohn-Sham states=          154
     kinetic-energy cutoff     =      71.0000  Ry
     charge density cutoff     =     430.0000  Ry
     convergence threshold     =      5.0E-05
     mixing beta               =       0.1000
     number of iterations used =           10  plain     mixing
     Exchange-correlation      = SLA PW PBX PBC ( 1  4  3  4 0 0)

     celldm(1)=  10.391466  celldm(2)=   0.000000  celldm(3)=   0.000000
     celldm(4)=   0.000000  celldm(5)=   0.000000  celldm(6)=   0.000000

     crystal axes: (cart. coord. in units of alat)
               a(1) = (   1.000006   0.000000   0.000000 )  
               a(2) = (   0.000000   1.000006   0.004375 )  
               a(3) = (   0.000000   0.004375   1.000006 )  

     reciprocal axes: (cart. coord. in units 2 pi/alat)
               b(1) = (  0.999994  0.000000  0.000000 )  
               b(2) = (  0.000000  1.000013 -0.004375 )  
               b(3) = (  0.000000 -0.004375  1.000013 )  


     PseudoPot. # 1 for Fe read from file:
     /rds/homes/b/bxp912/pp/Fe.pbe-spn-kjpaw_psl.1.0.0.UPF
     MD5 check sum: 42f43b795421b414b0dc916aa790dbcb
     Pseudo is Projector augmented-wave + core cor, Zval = 16.0
     Generated using "atomic" code by A. Dal Corso v.6.3
     Shape of augmentation charge: PSQ
     Using radial grid of 1191 points,  6 beta functions with: 
                l(1) =   0
                l(2) =   0
                l(3) =   1
                l(4) =   1
                l(5) =   2
                l(6) =   2
     Q(r) pseudized with 0 coefficients 


     atomic species   valence    mass     pseudopotential
        Fe            16.00    55.84500     Fe( 1.00)

      8 Sym. Ops., with inversion, found



   Cartesian axes

     site n.     atom                  positions (alat units)
         1           Fe  tau(   1) = (   0.0000000   0.0000000   0.0000000  )
         2           Fe  tau(   2) = (   0.2500105   0.2511043   0.2511043  )
         3           Fe  tau(   3) = (   0.0000000   0.0021875   0.5000027  )
         4           Fe  tau(   4) = (   0.2500105   0.2532917   0.7510897  )
         5           Fe  tau(   5) = (   0.0000000   0.5000033   0.0021875  )
         6           Fe  tau(   6) = (   0.2500105   0.7510898   0.2532917  )
         7           Fe  tau(   7) = (   0.0000000   0.5021908   0.5021902  )
         8           Fe  tau(   8) = (   0.2500105   0.7532772   0.7532771  )
         9           Fe  tau(   9) = (   0.5000033   0.0000000   0.0000000  )
        10           Fe  tau(  10) = (   0.7499960   0.2511043   0.2511043  )
        11           Fe  tau(  11) = (   0.5000033   0.0021875   0.5000027  )
        12           Fe  tau(  12) = (   0.7499960   0.2532917   0.7510897  )
        13           Fe  tau(  13) = (   0.5000033   0.5000033   0.0021875  )
        14           Fe  tau(  14) = (   0.7499960   0.7510898   0.2532917  )
        15           Fe  tau(  15) = (   0.5000033   0.5021908   0.5021902  )
        16           Fe  tau(  16) = (   0.7499960   0.7532772   0.7532771  )

     number of k points=   125  Marzari-Vanderbilt smearing, width (Ry)=  0.0400

     Number of k-points >= 100: set verbosity='high' to print them.

     Dense  grid:   169117 G-vectors     FFT dimensions: (  72,  72,  72)

     Smooth grid:    90715 G-vectors     FFT dimensions: (  60,  60,  60)

     Estimated max dynamical RAM per process >     116.52 MB

     Estimated total dynamical RAM >       4.55 GB

     Check: negative/imaginary core charge=   -0.000006    0.000000

     Initial potential from superposition of free atoms

     starting charge  255.99300, renormalised to  256.00000
     Starting wfcs are  160 randomized atomic wfcs
     Checking if some PAW data can be deallocated... 

     total cpu time spent up to now is       11.9 secs

     Self-consistent Calculation

     iteration #  1     ecut=    71.00 Ry     beta= 0.10
     Davidson diagonalization with overlap
     ethr =  1.00E-02,  avg # of iterations =  3.4

     Threshold (ethr) on eigenvalues was too large:
     Diagonalizing with lowered threshold

     Davidson diagonalization with overlap
     ethr =  2.52E-04,  avg # of iterations =  3.2

     total cpu time spent up to now is      103.8 secs

     total energy              =   -5267.75205956 Ry
     Harris-Foulkes estimate   =   -5267.86746530 Ry
     estimated scf accuracy    <       0.73046368 Ry

     iteration #  2     ecut=    71.00 Ry     beta= 0.10
     Davidson diagonalization with overlap
     ethr =  2.85E-04,  avg # of iterations =  1.0

     total cpu time spent up to now is      131.8 secs

     total energy              =   -5267.61923215 Ry
     Harris-Foulkes estimate   =   -5267.76721329 Ry
     estimated scf accuracy    <       0.36336421 Ry

     iteration #  3     ecut=    71.00 Ry     beta= 0.10
     Davidson diagonalization with overlap
     ethr =  1.42E-04,  avg # of iterations =  3.3

     total cpu time spent up to now is      183.7 secs

     total energy              =   -5267.69617655 Ry
     Harris-Foulkes estimate   =   -5267.72194852 Ry
     estimated scf accuracy    <       0.61120241 Ry

     iteration #  4     ecut=    71.00 Ry     beta= 0.10
     Davidson diagonalization with overlap
     ethr =  1.42E-04,  avg # of iterations =  1.0

     total cpu time spent up to now is      211.0 secs

     total energy              =   -5267.70418039 Ry
     Harris-Foulkes estimate   =   -5267.71013513 Ry
     estimated scf accuracy    <       0.02868613 Ry

     iteration #  5     ecut=    71.00 Ry     beta= 0.10
     Davidson diagonalization with overlap
     ethr =  1.12E-05,  avg # of iterations =  2.2

     total cpu time spent up to now is      246.2 secs

     total energy              =   -5267.70432448 Ry
     Harris-Foulkes estimate   =   -5267.70640984 Ry
     estimated scf accuracy    <       0.02162318 Ry

     iteration #  6     ecut=    71.00 Ry     beta= 0.10
     Davidson diagonalization with overlap
     ethr =  8.45E-06,  avg # of iterations =  2.8

     total cpu time spent up to now is      287.1 secs

     total energy              =   -5267.70693543 Ry
     Harris-Foulkes estimate   =   -5267.70636304 Ry
     estimated scf accuracy    <       0.01140996 Ry

     iteration #  7     ecut=    71.00 Ry     beta= 0.10
     Davidson diagonalization with overlap
     ethr =  4.46E-06,  avg # of iterations =  2.0

     total cpu time spent up to now is      320.2 secs

     total energy              =   -5267.70586389 Ry
     Harris-Foulkes estimate   =   -5267.70738025 Ry
     estimated scf accuracy    <       0.01358209 Ry

     iteration #  8     ecut=    71.00 Ry     beta= 0.10
     Davidson diagonalization with overlap
     ethr =  4.46E-06,  avg # of iterations =  1.3

     total cpu time spent up to now is      349.2 secs

     total energy              =   -5267.70628165 Ry
     Harris-Foulkes estimate   =   -5267.70677173 Ry
     estimated scf accuracy    <       0.00921958 Ry

     iteration #  9     ecut=    71.00 Ry     beta= 0.10
     Davidson diagonalization with overlap
     ethr =  3.60E-06,  avg # of iterations =  2.2

     total cpu time spent up to now is      383.6 secs

     total energy              =   -5267.70669436 Ry
     Harris-Foulkes estimate   =   -5267.70675489 Ry
     estimated scf accuracy    <       0.00066271 Ry

     iteration # 10     ecut=    71.00 Ry     beta= 0.10
     Davidson diagonalization with overlap
     ethr =  2.59E-07,  avg # of iterations =  2.1

     total cpu time spent up to now is      417.5 secs

     total energy              =   -5267.70670648 Ry
     Harris-Foulkes estimate   =   -5267.70673231 Ry
     estimated scf accuracy    <       0.00030157 Ry

     iteration # 11     ecut=    71.00 Ry     beta= 0.10
     Davidson diagonalization with overlap
     ethr =  1.18E-07,  avg # of iterations =  1.1

     total cpu time spent up to now is      445.1 secs

     total energy              =   -5267.70669153 Ry
     Harris-Foulkes estimate   =   -5267.70672144 Ry
     estimated scf accuracy    <       0.00044271 Ry

     iteration # 12     ecut=    71.00 Ry     beta= 0.10
     Davidson diagonalization with overlap
     ethr =  1.18E-07,  avg # of iterations =  1.0

     total cpu time spent up to now is      472.2 secs

     total energy              =   -5267.70669291 Ry
     Harris-Foulkes estimate   =   -5267.70670657 Ry
     estimated scf accuracy    <       0.00035841 Ry

     iteration # 13     ecut=    71.00 Ry     beta= 0.10
     Davidson diagonalization with overlap
     ethr =  1.18E-07,  avg # of iterations =  1.0

     total cpu time spent up to now is      499.9 secs

     End of self-consistent calculation

     Number of k-points >= 100: set verbosity='high' to print the bands.

     the Fermi energy is    20.5167 ev

!    total energy              =   -5267.70668568 Ry
     Harris-Foulkes estimate   =   -5267.70670033 Ry
     estimated scf accuracy    <       0.00001745 Ry

     total all-electron energy =    -40728.451215 Ry

     The total energy is the sum of the following terms:

     one-electron contribution =   -1620.08387312 Ry
     hartree contribution      =     989.17821059 Ry
     xc contribution           =    -442.98260917 Ry
     ewald contribution        =   -2868.92785069 Ry
     one-center paw contrib.   =   -1324.75975730 Ry
     smearing contrib. (-TS)   =      -0.13080598 Ry

     convergence has been achieved in  13 iterations

     Forces acting on atoms (cartesian axes, Ry/au):

     atom    1 type  1   force =     0.00000000    0.00000000    0.00000000
     atom    2 type  1   force =    -0.00020053   -0.00023414   -0.00023414
     atom    3 type  1   force =     0.00000000    0.00000000    0.00000000
     atom    4 type  1   force =     0.00049673    0.00012669   -0.00012669
     atom    5 type  1   force =     0.00000000    0.00000000    0.00000000
     atom    6 type  1   force =     0.00049673   -0.00012669    0.00012669
     atom    7 type  1   force =     0.00000000    0.00000000    0.00000000
     atom    8 type  1   force =    -0.00020053    0.00023414    0.00023414
     atom    9 type  1   force =     0.00000000    0.00000000    0.00000000
     atom   10 type  1   force =     0.00020053   -0.00023414   -0.00023414
     atom   11 type  1   force =     0.00000000    0.00000000    0.00000000
     atom   12 type  1   force =    -0.00049673    0.00012669   -0.00012669
     atom   13 type  1   force =     0.00000000    0.00000000    0.00000000
     atom   14 type  1   force =    -0.00049673   -0.00012669    0.00012669
     atom   15 type  1   force =     0.00000000    0.00000000    0.00000000
     atom   16 type  1   force =     0.00020053    0.00023414    0.00023414

     Total force =     0.001309     Total SCF correction =     0.010563
     SCF correction compared to forces is large: reduce conv_thr to get better values


     Computing stress (Cartesian axis) and pressure

          total   stress  (Ry/bohr**3)                   (kbar)     P=    1.94
   0.00001105   0.00000000   0.00000000          1.63      0.00      0.00
   0.00000000   0.00001422  -0.00010511          0.00      2.09    -15.46
   0.00000000  -0.00010511   0.00001422          0.00    -15.46      2.09


     Writing output data file brDKAlqDScDJRIbc.save/
 
     init_run     :     10.67s CPU     11.25s WALL (       1 calls)
     electrons    :    472.04s CPU    488.00s WALL (       1 calls)
     forces       :      3.86s CPU      4.22s WALL (       1 calls)
     stress       :     10.09s CPU     10.21s WALL (       1 calls)

     Called by init_run:
     wfcinit      :     10.40s CPU     10.84s WALL (       1 calls)
     potinit      :      0.10s CPU      0.13s WALL (       1 calls)
     hinit0       :      0.09s CPU      0.11s WALL (       1 calls)

     Called by electrons:
     c_bands      :    423.35s CPU    436.49s WALL (      14 calls)
     sum_band     :     47.38s CPU     49.89s WALL (      14 calls)
     v_of_rho     :      0.14s CPU      0.27s WALL (      14 calls)
     newd         :      0.20s CPU      0.26s WALL (      14 calls)
     PAW_pot      :      0.98s CPU      1.05s WALL (      14 calls)
     mix_rho      :      0.04s CPU      0.07s WALL (      14 calls)

     Called by c_bands:
     init_us_2    :      2.53s CPU      2.58s WALL (    3875 calls)
     cegterg      :    411.24s CPU    424.20s WALL (    1750 calls)

     Called by sum_band:
     sum_band:bec :      0.70s CPU      0.71s WALL (    1750 calls)
     addusdens    :      0.19s CPU      0.25s WALL (      14 calls)

     Called by *egterg:
     h_psi        :    186.42s CPU    194.58s WALL (    5317 calls)
     s_psi        :     10.21s CPU     10.27s WALL (    5317 calls)
     g_psi        :      0.40s CPU      0.41s WALL (    3442 calls)
     cdiaghg      :    176.38s CPU    177.01s WALL (    5067 calls)

     Called by h_psi:
     h_psi:pot    :    185.43s CPU    193.58s WALL (    5317 calls)
     h_psi:calbec :     15.02s CPU     17.51s WALL (    5317 calls)
     vloc_psi     :    160.04s CPU    165.63s WALL (    5317 calls)
     add_vuspsi   :     10.33s CPU     10.42s WALL (    5317 calls)

     General routines
     calbec       :     24.21s CPU     28.27s WALL (    7692 calls)
     fft          :      0.16s CPU      0.41s WALL (     207 calls)
     ffts         :      0.03s CPU      0.08s WALL (      28 calls)
     fftw         :    186.71s CPU    193.15s WALL ( 1450182 calls)
     interpolate  :      0.03s CPU      0.05s WALL (      14 calls)
 
     Parallel routines
     fft_scatt_xy :     12.59s CPU     13.01s WALL ( 1450417 calls)
     fft_scatt_yz :    124.41s CPU    129.06s WALL ( 1450417 calls)
 
     PWSCF        :  8m24.87s CPU     8m59.92s WALL

 
   This run was terminated on:   9:33:14   5Sep2020            

=------------------------------------------------------------------------------=
   JOB DONE.
=------------------------------------------------------------------------------=
