--------------------------------------------------------------------------
WARNING: There was an error initializing an OpenFabrics device.

  Local host:   bear-pg0211u07b
  Local device: mlx5_0
--------------------------------------------------------------------------

     Program PWSCF v.6.3 starts on  5Sep2020 at 10:35:36 

     This program is part of the open-source Quantum ESPRESSO suite
     for quantum simulation of materials; please cite
         "P. Giannozzi et al., J. Phys.:Condens. Matter 21 395502 (2009);
         "P. Giannozzi et al., J. Phys.:Condens. Matter 29 465901 (2017);
          URL http://www.quantum-espresso.org", 
     in publications or presentations arising from this work. More details at
     http://www.quantum-espresso.org/quote

     Parallel version (MPI & OpenMP), running on      40 processor cores
     Number of MPI processes:                40
     Threads/MPI process:                     1

     MPI processes distributed on     1 nodes
     R & G space division:  proc/nbgrp/npool/nimage =      40
     Reading input from wd/ec/ec_5_008.in
Warning: card &IONS ignored
Warning: card ION_DYNAMICS = 'BFGS', ignored
Warning: card / ignored
Warning: card &CELL ignored
Warning: card CELL_DYNAMICS = 'BFGS', ignored
Warning: card CELL_FACTOR = 2.0, ignored
Warning: card PRESS = 0.0, ignored
Warning: card / ignored

     Current dimensions of program PWSCF are:
     Max number of different atomic species (ntypx) = 10
     Max number of k-points (npk) =  40000
     Max angular momentum in pseudopotentials (lmaxx) =  3
               file Fe.pbe-spn-kjpaw_psl.1.0.0.UPF: wavefunction(s)  3P 3D renormalized

     Subspace diagonalization in iterative solution of the eigenvalue problem:
     a serial algorithm will be used

 
     Parallelization info
     --------------------
     sticks:   dense  smooth     PW     G-vecs:    dense   smooth      PW
     Min          92      61     17                 4225     2265     335
     Max          93      62     18                 4230     2270     341
     Sum        3705    2441    681               169117    90715   13537
 


     bravais-lattice index     =            0
     lattice parameter (alat)  =      10.3915  a.u.
     unit-cell volume          =    1122.0973 (a.u.)^3
     number of atoms/cell      =           16
     number of atomic types    =            1
     number of electrons       =       256.00
     number of Kohn-Sham states=          154
     kinetic-energy cutoff     =      71.0000  Ry
     charge density cutoff     =     430.0000  Ry
     convergence threshold     =      5.0E-05
     mixing beta               =       0.1000
     number of iterations used =           10  plain     mixing
     Exchange-correlation      = SLA PW PBX PBC ( 1  4  3  4 0 0)

     celldm(1)=  10.391466  celldm(2)=   0.000000  celldm(3)=   0.000000
     celldm(4)=   0.000000  celldm(5)=   0.000000  celldm(6)=   0.000000

     crystal axes: (cart. coord. in units of alat)
               a(1) = (   1.000006   0.000000   0.004375 )  
               a(2) = (   0.000000   1.000006   0.000000 )  
               a(3) = (   0.004375   0.000000   1.000006 )  

     reciprocal axes: (cart. coord. in units 2 pi/alat)
               b(1) = (  1.000013  0.000000 -0.004375 )  
               b(2) = (  0.000000  0.999994  0.000000 )  
               b(3) = ( -0.004375  0.000000  1.000013 )  


     PseudoPot. # 1 for Fe read from file:
     /rds/homes/b/bxp912/pp/Fe.pbe-spn-kjpaw_psl.1.0.0.UPF
     MD5 check sum: 42f43b795421b414b0dc916aa790dbcb
     Pseudo is Projector augmented-wave + core cor, Zval = 16.0
     Generated using "atomic" code by A. Dal Corso v.6.3
     Shape of augmentation charge: PSQ
     Using radial grid of 1191 points,  6 beta functions with: 
                l(1) =   0
                l(2) =   0
                l(3) =   1
                l(4) =   1
                l(5) =   2
                l(6) =   2
     Q(r) pseudized with 0 coefficients 


     atomic species   valence    mass     pseudopotential
        Fe            16.00    55.84500     Fe( 1.00)

      8 Sym. Ops., with inversion, found



   Cartesian axes

     site n.     atom                  positions (alat units)
         1           Fe  tau(   1) = (   0.0000000   0.0000000   0.0000000  )
         2           Fe  tau(   2) = (   0.2511043   0.2500105   0.2511043  )
         3           Fe  tau(   3) = (   0.0021875   0.0000000   0.5000027  )
         4           Fe  tau(   4) = (   0.2532917   0.2500105   0.7510897  )
         5           Fe  tau(   5) = (   0.0000000   0.5000033   0.0000000  )
         6           Fe  tau(   6) = (   0.2511043   0.7499960   0.2511043  )
         7           Fe  tau(   7) = (   0.0021875   0.5000033   0.5000027  )
         8           Fe  tau(   8) = (   0.2532917   0.7499960   0.7510897  )
         9           Fe  tau(   9) = (   0.5000033   0.0000000   0.0021875  )
        10           Fe  tau(  10) = (   0.7510898   0.2500105   0.2532917  )
        11           Fe  tau(  11) = (   0.5021908   0.0000000   0.5021902  )
        12           Fe  tau(  12) = (   0.7532772   0.2500105   0.7532771  )
        13           Fe  tau(  13) = (   0.5000033   0.5000033   0.0021875  )
        14           Fe  tau(  14) = (   0.7510898   0.7499960   0.2532917  )
        15           Fe  tau(  15) = (   0.5021908   0.5000033   0.5021902  )
        16           Fe  tau(  16) = (   0.7532772   0.7499960   0.7532771  )

     number of k points=   125  Marzari-Vanderbilt smearing, width (Ry)=  0.0400

     Number of k-points >= 100: set verbosity='high' to print them.

     Dense  grid:   169117 G-vectors     FFT dimensions: (  72,  72,  72)

     Smooth grid:    90715 G-vectors     FFT dimensions: (  60,  60,  60)

     Estimated max dynamical RAM per process >     116.52 MB

     Estimated total dynamical RAM >       4.55 GB

     Check: negative/imaginary core charge=   -0.000006    0.000000

     Initial potential from superposition of free atoms

     starting charge  255.99300, renormalised to  256.00000
     Starting wfcs are  160 randomized atomic wfcs
     Checking if some PAW data can be deallocated... 

     total cpu time spent up to now is       11.8 secs

     Self-consistent Calculation

     iteration #  1     ecut=    71.00 Ry     beta= 0.10
     Davidson diagonalization with overlap
     ethr =  1.00E-02,  avg # of iterations =  3.4

     Threshold (ethr) on eigenvalues was too large:
     Diagonalizing with lowered threshold

     Davidson diagonalization with overlap
     ethr =  2.53E-04,  avg # of iterations =  3.2

     total cpu time spent up to now is      102.7 secs

     total energy              =   -5267.75330503 Ry
     Harris-Foulkes estimate   =   -5267.86914982 Ry
     estimated scf accuracy    <       0.73157383 Ry

     iteration #  2     ecut=    71.00 Ry     beta= 0.10
     Davidson diagonalization with overlap
     ethr =  2.86E-04,  avg # of iterations =  1.1

     total cpu time spent up to now is      130.4 secs

     total energy              =   -5267.61835498 Ry
     Harris-Foulkes estimate   =   -5267.76845313 Ry
     estimated scf accuracy    <       0.36314208 Ry

     iteration #  3     ecut=    71.00 Ry     beta= 0.10
     Davidson diagonalization with overlap
     ethr =  1.42E-04,  avg # of iterations =  3.4

     total cpu time spent up to now is      183.0 secs

     total energy              =   -5267.69845243 Ry
     Harris-Foulkes estimate   =   -5267.72178127 Ry
     estimated scf accuracy    <       0.55128792 Ry

     iteration #  4     ecut=    71.00 Ry     beta= 0.10
     Davidson diagonalization with overlap
     ethr =  1.42E-04,  avg # of iterations =  1.0

     total cpu time spent up to now is      210.4 secs

     total energy              =   -5267.70463390 Ry
     Harris-Foulkes estimate   =   -5267.71089952 Ry
     estimated scf accuracy    <       0.02899512 Ry

     iteration #  5     ecut=    71.00 Ry     beta= 0.10
     Davidson diagonalization with overlap
     ethr =  1.13E-05,  avg # of iterations =  2.2

     total cpu time spent up to now is      246.5 secs

     total energy              =   -5267.70495364 Ry
     Harris-Foulkes estimate   =   -5267.70704556 Ry
     estimated scf accuracy    <       0.02293560 Ry

     iteration #  6     ecut=    71.00 Ry     beta= 0.10
     Davidson diagonalization with overlap
     ethr =  8.96E-06,  avg # of iterations =  2.9

     total cpu time spent up to now is      288.8 secs

     total energy              =   -5267.70641795 Ry
     Harris-Foulkes estimate   =   -5267.70728028 Ry
     estimated scf accuracy    <       0.01201201 Ry

     iteration #  7     ecut=    71.00 Ry     beta= 0.10
     Davidson diagonalization with overlap
     ethr =  4.69E-06,  avg # of iterations =  1.0

     total cpu time spent up to now is      316.5 secs

     total energy              =   -5267.70602365 Ry
     Harris-Foulkes estimate   =   -5267.70708804 Ry
     estimated scf accuracy    <       0.01707375 Ry

     iteration #  8     ecut=    71.00 Ry     beta= 0.10
     Davidson diagonalization with overlap
     ethr =  4.69E-06,  avg # of iterations =  1.7

     total cpu time spent up to now is      348.0 secs

     total energy              =   -5267.70665841 Ry
     Harris-Foulkes estimate   =   -5267.70672707 Ry
     estimated scf accuracy    <       0.00227406 Ry

     iteration #  9     ecut=    71.00 Ry     beta= 0.10
     Davidson diagonalization with overlap
     ethr =  8.88E-07,  avg # of iterations =  2.0

     total cpu time spent up to now is      381.1 secs

     total energy              =   -5267.70670989 Ry
     Harris-Foulkes estimate   =   -5267.70674332 Ry
     estimated scf accuracy    <       0.00055825 Ry

     iteration # 10     ecut=    71.00 Ry     beta= 0.10
     Davidson diagonalization with overlap
     ethr =  2.18E-07,  avg # of iterations =  1.3

     total cpu time spent up to now is      410.1 secs

     total energy              =   -5267.70670390 Ry
     Harris-Foulkes estimate   =   -5267.70673238 Ry
     estimated scf accuracy    <       0.00036415 Ry

     iteration # 11     ecut=    71.00 Ry     beta= 0.10
     Davidson diagonalization with overlap
     ethr =  1.42E-07,  avg # of iterations =  1.0

     total cpu time spent up to now is      437.4 secs

     total energy              =   -5267.70670132 Ry
     Harris-Foulkes estimate   =   -5267.70672000 Ry
     estimated scf accuracy    <       0.00037947 Ry

     iteration # 12     ecut=    71.00 Ry     beta= 0.10
     Davidson diagonalization with overlap
     ethr =  1.42E-07,  avg # of iterations =  1.0

     total cpu time spent up to now is      464.8 secs

     total energy              =   -5267.70668846 Ry
     Harris-Foulkes estimate   =   -5267.70671022 Ry
     estimated scf accuracy    <       0.00041537 Ry

     iteration # 13     ecut=    71.00 Ry     beta= 0.10
     Davidson diagonalization with overlap
     ethr =  1.42E-07,  avg # of iterations =  1.1

     total cpu time spent up to now is      492.9 secs

     End of self-consistent calculation

     Number of k-points >= 100: set verbosity='high' to print the bands.

     the Fermi energy is    20.5187 ev

!    total energy              =   -5267.70669568 Ry
     Harris-Foulkes estimate   =   -5267.70670150 Ry
     estimated scf accuracy    <       0.00000877 Ry

     total all-electron energy =    -40728.451225 Ry

     The total energy is the sum of the following terms:

     one-electron contribution =   -1620.00392737 Ry
     hartree contribution      =     989.08360393 Ry
     xc contribution           =    -442.96911233 Ry
     ewald contribution        =   -2868.92785069 Ry
     one-center paw contrib.   =   -1324.75862387 Ry
     smearing contrib. (-TS)   =      -0.13078535 Ry

     convergence has been achieved in  13 iterations

     Forces acting on atoms (cartesian axes, Ry/au):

     atom    1 type  1   force =     0.00000000    0.00000000    0.00000000
     atom    2 type  1   force =     0.00004154    0.00006661    0.00004154
     atom    3 type  1   force =     0.00000000    0.00000000    0.00000000
     atom    4 type  1   force =     0.00014730   -0.00081983   -0.00014730
     atom    5 type  1   force =     0.00000000    0.00000000    0.00000000
     atom    6 type  1   force =     0.00004154   -0.00006661    0.00004154
     atom    7 type  1   force =     0.00000000    0.00000000    0.00000000
     atom    8 type  1   force =     0.00014730    0.00081983   -0.00014730
     atom    9 type  1   force =     0.00000000    0.00000000    0.00000000
     atom   10 type  1   force =    -0.00014730   -0.00081983    0.00014730
     atom   11 type  1   force =     0.00000000    0.00000000    0.00000000
     atom   12 type  1   force =    -0.00004154    0.00006661   -0.00004154
     atom   13 type  1   force =     0.00000000    0.00000000    0.00000000
     atom   14 type  1   force =    -0.00014730    0.00081983    0.00014730
     atom   15 type  1   force =     0.00000000    0.00000000    0.00000000
     atom   16 type  1   force =    -0.00004154   -0.00006661   -0.00004154

     Total force =     0.001701     Total SCF correction =     0.005690
     SCF correction compared to forces is large: reduce conv_thr to get better values


     Computing stress (Cartesian axis) and pressure

          total   stress  (Ry/bohr**3)                   (kbar)     P=  -16.51
  -0.00011402   0.00000000  -0.00010291        -16.77      0.00    -15.14
   0.00000000  -0.00010864   0.00000000          0.00    -15.98      0.00
  -0.00010291   0.00000000  -0.00011402        -15.14      0.00    -16.77


     Writing output data file JjglORMjUhBmYbSA.save/
 
     init_run     :     10.60s CPU     11.09s WALL (       1 calls)
     electrons    :    465.24s CPU    481.07s WALL (       1 calls)
     forces       :      3.82s CPU      4.20s WALL (       1 calls)
     stress       :     10.21s CPU     10.35s WALL (       1 calls)

     Called by init_run:
     wfcinit      :     10.25s CPU     10.68s WALL (       1 calls)
     potinit      :      0.13s CPU      0.16s WALL (       1 calls)
     hinit0       :      0.15s CPU      0.16s WALL (       1 calls)

     Called by electrons:
     c_bands      :    416.74s CPU    429.77s WALL (      14 calls)
     sum_band     :     47.22s CPU     49.72s WALL (      14 calls)
     v_of_rho     :      0.12s CPU      0.25s WALL (      14 calls)
     newd         :      0.19s CPU      0.25s WALL (      14 calls)
     PAW_pot      :      1.00s CPU      1.06s WALL (      14 calls)
     mix_rho      :      0.04s CPU      0.08s WALL (      14 calls)

     Called by c_bands:
     init_us_2    :      2.52s CPU      2.55s WALL (    3875 calls)
     cegterg      :    404.69s CPU    417.60s WALL (    1750 calls)

     Called by sum_band:
     sum_band:bec :      0.72s CPU      0.73s WALL (    1750 calls)
     addusdens    :      0.19s CPU      0.24s WALL (      14 calls)

     Called by *egterg:
     h_psi        :    185.00s CPU    193.06s WALL (    5182 calls)
     s_psi        :     10.11s CPU     10.17s WALL (    5182 calls)
     g_psi        :      0.41s CPU      0.41s WALL (    3307 calls)
     cdiaghg      :    171.44s CPU    172.02s WALL (    4932 calls)

     Called by h_psi:
     h_psi:pot    :    183.96s CPU    192.01s WALL (    5182 calls)
     h_psi:calbec :     14.94s CPU     17.49s WALL (    5182 calls)
     vloc_psi     :    158.84s CPU    164.27s WALL (    5182 calls)
     add_vuspsi   :     10.14s CPU     10.22s WALL (    5182 calls)

     General routines
     calbec       :     23.96s CPU     28.09s WALL (    7557 calls)
     fft          :      0.15s CPU      0.40s WALL (     207 calls)
     ffts         :      0.02s CPU      0.07s WALL (      28 calls)
     fftw         :    185.40s CPU    191.69s WALL ( 1451942 calls)
     interpolate  :      0.02s CPU      0.04s WALL (      14 calls)
 
     Parallel routines
     fft_scatt_xy :     12.64s CPU     13.03s WALL ( 1452177 calls)
     fft_scatt_yz :    123.63s CPU    128.23s WALL ( 1452177 calls)
 
     PWSCF        :  8m18.07s CPU     8m52.67s WALL

 
   This run was terminated on:  10:44:29   5Sep2020            

=------------------------------------------------------------------------------=
   JOB DONE.
=------------------------------------------------------------------------------=
