--------------------------------------------------------------------------
WARNING: There was an error initializing an OpenFabrics device.

  Local host:   bear-pg0211u07b
  Local device: mlx5_0
--------------------------------------------------------------------------

     Program PWSCF v.6.3 starts on  5Sep2020 at  9:51: 7 

     This program is part of the open-source Quantum ESPRESSO suite
     for quantum simulation of materials; please cite
         "P. Giannozzi et al., J. Phys.:Condens. Matter 21 395502 (2009);
         "P. Giannozzi et al., J. Phys.:Condens. Matter 29 465901 (2017);
          URL http://www.quantum-espresso.org", 
     in publications or presentations arising from this work. More details at
     http://www.quantum-espresso.org/quote

     Parallel version (MPI & OpenMP), running on      40 processor cores
     Number of MPI processes:                40
     Threads/MPI process:                     1

     MPI processes distributed on     1 nodes
     R & G space division:  proc/nbgrp/npool/nimage =      40
     Reading input from wd/ec/ec_5_003.in
Warning: card &IONS ignored
Warning: card ION_DYNAMICS = 'BFGS', ignored
Warning: card / ignored
Warning: card &CELL ignored
Warning: card CELL_DYNAMICS = 'BFGS', ignored
Warning: card CELL_FACTOR = 2.0, ignored
Warning: card PRESS = 0.0, ignored
Warning: card / ignored

     Current dimensions of program PWSCF are:
     Max number of different atomic species (ntypx) = 10
     Max number of k-points (npk) =  40000
     Max angular momentum in pseudopotentials (lmaxx) =  3
               file Fe.pbe-spn-kjpaw_psl.1.0.0.UPF: wavefunction(s)  3P 3D renormalized

     Subspace diagonalization in iterative solution of the eigenvalue problem:
     a serial algorithm will be used

 
     Parallelization info
     --------------------
     sticks:   dense  smooth     PW     G-vecs:    dense   smooth      PW
     Min          92      61     17                 4224     2265     337
     Max          93      62     18                 4229     2270     342
     Sum        3705    2441    681               169057    90723   13581
 


     bravais-lattice index     =            0
     lattice parameter (alat)  =      10.3915  a.u.
     unit-cell volume          =    1122.0973 (a.u.)^3
     number of atoms/cell      =           16
     number of atomic types    =            1
     number of electrons       =       256.00
     number of Kohn-Sham states=          154
     kinetic-energy cutoff     =      71.0000  Ry
     charge density cutoff     =     430.0000  Ry
     convergence threshold     =      5.0E-05
     mixing beta               =       0.1000
     number of iterations used =           10  plain     mixing
     Exchange-correlation      = SLA PW PBX PBC ( 1  4  3  4 0 0)

     celldm(1)=  10.391466  celldm(2)=   0.000000  celldm(3)=   0.000000
     celldm(4)=   0.000000  celldm(5)=   0.000000  celldm(6)=   0.000000

     crystal axes: (cart. coord. in units of alat)
               a(1) = (   1.000001   0.000000   0.001250 )  
               a(2) = (   0.000000   1.000001   0.000000 )  
               a(3) = (   0.001250   0.000000   1.000001 )  

     reciprocal axes: (cart. coord. in units 2 pi/alat)
               b(1) = (  1.000001  0.000000 -0.001250 )  
               b(2) = (  0.000000  0.999999  0.000000 )  
               b(3) = ( -0.001250  0.000000  1.000001 )  


     PseudoPot. # 1 for Fe read from file:
     /rds/homes/b/bxp912/pp/Fe.pbe-spn-kjpaw_psl.1.0.0.UPF
     MD5 check sum: 42f43b795421b414b0dc916aa790dbcb
     Pseudo is Projector augmented-wave + core cor, Zval = 16.0
     Generated using "atomic" code by A. Dal Corso v.6.3
     Shape of augmentation charge: PSQ
     Using radial grid of 1191 points,  6 beta functions with: 
                l(1) =   0
                l(2) =   0
                l(3) =   1
                l(4) =   1
                l(5) =   2
                l(6) =   2
     Q(r) pseudized with 0 coefficients 


     atomic species   valence    mass     pseudopotential
        Fe            16.00    55.84500     Fe( 1.00)

      8 Sym. Ops., with inversion, found



   Cartesian axes

     site n.     atom                  positions (alat units)
         1           Fe  tau(   1) = (   0.0000000   0.0000000   0.0000000  )
         2           Fe  tau(   2) = (   0.2503216   0.2500090   0.2503216  )
         3           Fe  tau(   3) = (   0.0006250   0.0000000   0.4999998  )
         4           Fe  tau(   4) = (   0.2509465   0.2500090   0.7503040  )
         5           Fe  tau(   5) = (   0.0000000   0.5000004   0.0000000  )
         6           Fe  tau(   6) = (   0.2503216   0.7499916   0.2503216  )
         7           Fe  tau(   7) = (   0.0006250   0.5000004   0.4999998  )
         8           Fe  tau(   8) = (   0.2509465   0.7499916   0.7503040  )
         9           Fe  tau(   9) = (   0.5000004   0.0000000   0.0006250  )
        10           Fe  tau(  10) = (   0.7503041   0.2500090   0.2509465  )
        11           Fe  tau(  11) = (   0.5006254   0.0000000   0.5006248  )
        12           Fe  tau(  12) = (   0.7509291   0.2500090   0.7509290  )
        13           Fe  tau(  13) = (   0.5000004   0.5000004   0.0006250  )
        14           Fe  tau(  14) = (   0.7503041   0.7499916   0.2509465  )
        15           Fe  tau(  15) = (   0.5006254   0.5000004   0.5006248  )
        16           Fe  tau(  16) = (   0.7509291   0.7499916   0.7509290  )

     number of k points=   125  Marzari-Vanderbilt smearing, width (Ry)=  0.0400

     Number of k-points >= 100: set verbosity='high' to print them.

     Dense  grid:   169057 G-vectors     FFT dimensions: (  72,  72,  72)

     Smooth grid:    90723 G-vectors     FFT dimensions: (  60,  60,  60)

     Estimated max dynamical RAM per process >     116.53 MB

     Estimated total dynamical RAM >       4.55 GB

     Check: negative/imaginary core charge=   -0.000006    0.000000

     Initial potential from superposition of free atoms

     starting charge  255.99300, renormalised to  256.00000
     Starting wfcs are  160 randomized atomic wfcs
     Checking if some PAW data can be deallocated... 

     total cpu time spent up to now is       11.7 secs

     Self-consistent Calculation

     iteration #  1     ecut=    71.00 Ry     beta= 0.10
     Davidson diagonalization with overlap
     ethr =  1.00E-02,  avg # of iterations =  3.4

     Threshold (ethr) on eigenvalues was too large:
     Diagonalizing with lowered threshold

     Davidson diagonalization with overlap
     ethr =  2.54E-04,  avg # of iterations =  3.2

     total cpu time spent up to now is      103.0 secs

     total energy              =   -5267.75370705 Ry
     Harris-Foulkes estimate   =   -5267.86964636 Ry
     estimated scf accuracy    <       0.73213372 Ry

     iteration #  2     ecut=    71.00 Ry     beta= 0.10
     Davidson diagonalization with overlap
     ethr =  2.86E-04,  avg # of iterations =  1.0

     total cpu time spent up to now is      130.1 secs

     total energy              =   -5267.61865895 Ry
     Harris-Foulkes estimate   =   -5267.76893997 Ry
     estimated scf accuracy    <       0.36342686 Ry

     iteration #  3     ecut=    71.00 Ry     beta= 0.10
     Davidson diagonalization with overlap
     ethr =  1.42E-04,  avg # of iterations =  3.2

     total cpu time spent up to now is      181.7 secs

     total energy              =   -5267.69903239 Ry
     Harris-Foulkes estimate   =   -5267.72218612 Ry
     estimated scf accuracy    <       0.54497960 Ry

     iteration #  4     ecut=    71.00 Ry     beta= 0.10
     Davidson diagonalization with overlap
     ethr =  1.42E-04,  avg # of iterations =  1.0

     total cpu time spent up to now is      208.9 secs

     total energy              =   -5267.70512780 Ry
     Harris-Foulkes estimate   =   -5267.71138180 Ry
     estimated scf accuracy    <       0.02904190 Ry

     iteration #  5     ecut=    71.00 Ry     beta= 0.10
     Davidson diagonalization with overlap
     ethr =  1.13E-05,  avg # of iterations =  2.2

     total cpu time spent up to now is      244.9 secs

     total energy              =   -5267.70541382 Ry
     Harris-Foulkes estimate   =   -5267.70753154 Ry
     estimated scf accuracy    <       0.02303770 Ry

     iteration #  6     ecut=    71.00 Ry     beta= 0.10
     Davidson diagonalization with overlap
     ethr =  9.00E-06,  avg # of iterations =  2.9

     total cpu time spent up to now is      287.8 secs

     total energy              =   -5267.70683636 Ry
     Harris-Foulkes estimate   =   -5267.70776025 Ry
     estimated scf accuracy    <       0.01198450 Ry

     iteration #  7     ecut=    71.00 Ry     beta= 0.10
     Davidson diagonalization with overlap
     ethr =  4.68E-06,  avg # of iterations =  1.0

     total cpu time spent up to now is      315.7 secs

     total energy              =   -5267.70657119 Ry
     Harris-Foulkes estimate   =   -5267.70751020 Ry
     estimated scf accuracy    <       0.01525913 Ry

     iteration #  8     ecut=    71.00 Ry     beta= 0.10
     Davidson diagonalization with overlap
     ethr =  4.68E-06,  avg # of iterations =  1.7

     total cpu time spent up to now is      346.9 secs

     total energy              =   -5267.70714674 Ry
     Harris-Foulkes estimate   =   -5267.70721416 Ry
     estimated scf accuracy    <       0.00225642 Ry

     iteration #  9     ecut=    71.00 Ry     beta= 0.10
     Davidson diagonalization with overlap
     ethr =  8.81E-07,  avg # of iterations =  1.9

     total cpu time spent up to now is      379.8 secs

     total energy              =   -5267.70719232 Ry
     Harris-Foulkes estimate   =   -5267.70722621 Ry
     estimated scf accuracy    <       0.00056463 Ry

     iteration # 10     ecut=    71.00 Ry     beta= 0.10
     Davidson diagonalization with overlap
     ethr =  2.21E-07,  avg # of iterations =  1.3

     total cpu time spent up to now is      409.0 secs

     total energy              =   -5267.70718599 Ry
     Harris-Foulkes estimate   =   -5267.70721507 Ry
     estimated scf accuracy    <       0.00039177 Ry

     iteration # 11     ecut=    71.00 Ry     beta= 0.10
     Davidson diagonalization with overlap
     ethr =  1.53E-07,  avg # of iterations =  1.0

     total cpu time spent up to now is      436.1 secs

     total energy              =   -5267.70717780 Ry
     Harris-Foulkes estimate   =   -5267.70720249 Ry
     estimated scf accuracy    <       0.00038776 Ry

     iteration # 12     ecut=    71.00 Ry     beta= 0.10
     Davidson diagonalization with overlap
     ethr =  1.51E-07,  avg # of iterations =  1.0

     total cpu time spent up to now is      463.6 secs

     total energy              =   -5267.70717445 Ry
     Harris-Foulkes estimate   =   -5267.70718904 Ry
     estimated scf accuracy    <       0.00032075 Ry

     iteration # 13     ecut=    71.00 Ry     beta= 0.10
     Davidson diagonalization with overlap
     ethr =  1.25E-07,  avg # of iterations =  1.0

     total cpu time spent up to now is      490.7 secs

     End of self-consistent calculation

     Number of k-points >= 100: set verbosity='high' to print the bands.

     the Fermi energy is    20.5182 ev

!    total energy              =   -5267.70717904 Ry
     Harris-Foulkes estimate   =   -5267.70718367 Ry
     estimated scf accuracy    <       0.00000748 Ry

     total all-electron energy =    -40728.451708 Ry

     The total energy is the sum of the following terms:

     one-electron contribution =   -1619.97457575 Ry
     hartree contribution      =     989.07585359 Ry
     xc contribution           =    -442.97026815 Ry
     ewald contribution        =   -2868.94842697 Ry
     one-center paw contrib.   =   -1324.75897843 Ry
     smearing contrib. (-TS)   =      -0.13078331 Ry

     convergence has been achieved in  13 iterations

     Forces acting on atoms (cartesian axes, Ry/au):

     atom    1 type  1   force =     0.00000000    0.00000000    0.00000000
     atom    2 type  1   force =    -0.00002884    0.00007856   -0.00002884
     atom    3 type  1   force =     0.00000000    0.00000000    0.00000000
     atom    4 type  1   force =     0.00009331   -0.00091356   -0.00009331
     atom    5 type  1   force =     0.00000000    0.00000000    0.00000000
     atom    6 type  1   force =    -0.00002884   -0.00007856   -0.00002884
     atom    7 type  1   force =     0.00000000    0.00000000    0.00000000
     atom    8 type  1   force =     0.00009331    0.00091356   -0.00009331
     atom    9 type  1   force =     0.00000000    0.00000000    0.00000000
     atom   10 type  1   force =    -0.00009331   -0.00091356    0.00009331
     atom   11 type  1   force =     0.00000000    0.00000000    0.00000000
     atom   12 type  1   force =     0.00002884    0.00007856    0.00002884
     atom   13 type  1   force =     0.00000000    0.00000000    0.00000000
     atom   14 type  1   force =    -0.00009331    0.00091356    0.00009331
     atom   15 type  1   force =     0.00000000    0.00000000    0.00000000
     atom   16 type  1   force =     0.00002884   -0.00007856    0.00002884

     Total force =     0.001855     Total SCF correction =     0.004960
     SCF correction compared to forces is large: reduce conv_thr to get better values


     Computing stress (Cartesian axis) and pressure

          total   stress  (Ry/bohr**3)                   (kbar)     P=  -13.66
  -0.00009444   0.00000000  -0.00002955        -13.89      0.00     -4.35
   0.00000000  -0.00008968   0.00000000          0.00    -13.19      0.00
  -0.00002955   0.00000000  -0.00009444         -4.35      0.00    -13.89


     Writing output data file gluuXDcHHOUehJXh.save/
 
     init_run     :     10.48s CPU     11.00s WALL (       1 calls)
     electrons    :    463.40s CPU    479.06s WALL (       1 calls)
     forces       :      3.88s CPU      4.24s WALL (       1 calls)
     stress       :     10.15s CPU     10.27s WALL (       1 calls)

     Called by init_run:
     wfcinit      :     10.13s CPU     10.59s WALL (       1 calls)
     potinit      :      0.11s CPU      0.14s WALL (       1 calls)
     hinit0       :      0.16s CPU      0.17s WALL (       1 calls)

     Called by electrons:
     c_bands      :    414.01s CPU    426.85s WALL (      14 calls)
     sum_band     :     48.08s CPU     50.58s WALL (      14 calls)
     v_of_rho     :      0.10s CPU      0.23s WALL (      14 calls)
     newd         :      0.23s CPU      0.29s WALL (      14 calls)
     PAW_pot      :      0.99s CPU      1.07s WALL (      14 calls)
     mix_rho      :      0.03s CPU      0.07s WALL (      14 calls)

     Called by c_bands:
     init_us_2    :      2.51s CPU      2.55s WALL (    3875 calls)
     cegterg      :    402.04s CPU    414.73s WALL (    1750 calls)

     Called by sum_band:
     sum_band:bec :      0.69s CPU      0.70s WALL (    1750 calls)
     addusdens    :      0.21s CPU      0.27s WALL (      14 calls)

     Called by *egterg:
     h_psi        :    185.71s CPU    193.76s WALL (    5126 calls)
     s_psi        :     10.05s CPU     10.11s WALL (    5126 calls)
     g_psi        :      0.40s CPU      0.41s WALL (    3251 calls)
     cdiaghg      :    168.03s CPU    168.58s WALL (    4876 calls)

     Called by h_psi:
     h_psi:pot    :    184.61s CPU    192.64s WALL (    5126 calls)
     h_psi:calbec :     14.89s CPU     17.37s WALL (    5126 calls)
     vloc_psi     :    159.70s CPU    165.20s WALL (    5126 calls)
     add_vuspsi   :      9.97s CPU     10.04s WALL (    5126 calls)

     General routines
     calbec       :     24.21s CPU     28.26s WALL (    7501 calls)
     fft          :      0.15s CPU      0.39s WALL (     207 calls)
     ffts         :      0.03s CPU      0.08s WALL (      28 calls)
     fftw         :    187.23s CPU    193.57s WALL ( 1451336 calls)
     interpolate  :      0.03s CPU      0.06s WALL (      14 calls)
 
     Parallel routines
     fft_scatt_xy :     12.72s CPU     13.15s WALL ( 1451571 calls)
     fft_scatt_yz :    124.85s CPU    129.41s WALL ( 1451571 calls)
 
     PWSCF        :  8m16.17s CPU     8m50.85s WALL

 
   This run was terminated on:   9:59:58   5Sep2020            

=------------------------------------------------------------------------------=
   JOB DONE.
=------------------------------------------------------------------------------=
