
     Program PWSCF v.6.3 starts on  5Sep2020 at  9:42:15 

     This program is part of the open-source Quantum ESPRESSO suite
     for quantum simulation of materials; please cite
         "P. Giannozzi et al., J. Phys.:Condens. Matter 21 395502 (2009);
         "P. Giannozzi et al., J. Phys.:Condens. Matter 29 465901 (2017);
          URL http://www.quantum-espresso.org", 
     in publications or presentations arising from this work. More details at
     http://www.quantum-espresso.org/quote

     Parallel version (MPI & OpenMP), running on      40 processor cores
     Number of MPI processes:                40
     Threads/MPI process:                     1

     MPI processes distributed on     1 nodes
     R & G space division:  proc/nbgrp/npool/nimage =      40
     Reading input from wd/ec/ec_5_002.in
Warning: card &IONS ignored
Warning: card ION_DYNAMICS = 'BFGS', ignored
Warning: card / ignored
Warning: card &CELL ignored
Warning: card CELL_DYNAMICS = 'BFGS', ignored
Warning: card CELL_FACTOR = 2.0, ignored
Warning: card PRESS = 0.0, ignored
Warning: card / ignored

     Current dimensions of program PWSCF are:
     Max number of different atomic species (ntypx) = 10
     Max number of k-points (npk) =  40000
     Max angular momentum in pseudopotentials (lmaxx) =  3
               file Fe.pbe-spn-kjpaw_psl.1.0.0.UPF: wavefunction(s)  3P 3D renormalized

     Subspace diagonalization in iterative solution of the eigenvalue problem:
     a serial algorithm will be used

 
     Parallelization info
     --------------------
     sticks:   dense  smooth     PW     G-vecs:    dense   smooth      PW
     Min          92      60     17                 4224     2265     337
     Max          93      62     18                 4228     2270     342
     Sum        3705    2441    681               169053    90727   13585
 


     bravais-lattice index     =            0
     lattice parameter (alat)  =      10.3915  a.u.
     unit-cell volume          =    1122.0973 (a.u.)^3
     number of atoms/cell      =           16
     number of atomic types    =            1
     number of electrons       =       256.00
     number of Kohn-Sham states=          154
     kinetic-energy cutoff     =      71.0000  Ry
     charge density cutoff     =     430.0000  Ry
     convergence threshold     =      5.0E-05
     mixing beta               =       0.1000
     number of iterations used =           10  plain     mixing
     Exchange-correlation      = SLA PW PBX PBC ( 1  4  3  4 0 0)

     celldm(1)=  10.391466  celldm(2)=   0.000000  celldm(3)=   0.000000
     celldm(4)=   0.000000  celldm(5)=   0.000000  celldm(6)=   0.000000

     crystal axes: (cart. coord. in units of alat)
               a(1) = (   1.000000   0.000000   0.000625 )  
               a(2) = (   0.000000   1.000000   0.000000 )  
               a(3) = (   0.000625   0.000000   1.000000 )  

     reciprocal axes: (cart. coord. in units 2 pi/alat)
               b(1) = (  1.000000  0.000000 -0.000625 )  
               b(2) = (  0.000000  1.000000  0.000000 )  
               b(3) = ( -0.000625  0.000000  1.000000 )  


     PseudoPot. # 1 for Fe read from file:
     /rds/homes/b/bxp912/pp/Fe.pbe-spn-kjpaw_psl.1.0.0.UPF
     MD5 check sum: 42f43b795421b414b0dc916aa790dbcb
     Pseudo is Projector augmented-wave + core cor, Zval = 16.0
     Generated using "atomic" code by A. Dal Corso v.6.3
     Shape of augmentation charge: PSQ
     Using radial grid of 1191 points,  6 beta functions with: 
                l(1) =   0
                l(2) =   0
                l(3) =   1
                l(4) =   1
                l(5) =   2
                l(6) =   2
     Q(r) pseudized with 0 coefficients 


     atomic species   valence    mass     pseudopotential
        Fe            16.00    55.84500     Fe( 1.00)

      8 Sym. Ops., with inversion, found



   Cartesian axes

     site n.     atom                  positions (alat units)
         1           Fe  tau(   1) = (   0.0000000   0.0000000   0.0000000  )
         2           Fe  tau(   2) = (   0.2501652   0.2500089   0.2501652  )
         3           Fe  tau(   3) = (   0.0003125   0.0000000   0.4999996  )
         4           Fe  tau(   4) = (   0.2504777   0.2500089   0.7501474  )
         5           Fe  tau(   5) = (   0.0000000   0.5000002   0.0000000  )
         6           Fe  tau(   6) = (   0.2501652   0.7499913   0.2501652  )
         7           Fe  tau(   7) = (   0.0003125   0.5000002   0.4999996  )
         8           Fe  tau(   8) = (   0.2504777   0.7499913   0.7501474  )
         9           Fe  tau(   9) = (   0.5000002   0.0000000   0.0003125  )
        10           Fe  tau(  10) = (   0.7501475   0.2500089   0.2504777  )
        11           Fe  tau(  11) = (   0.5003127   0.0000000   0.5003121  )
        12           Fe  tau(  12) = (   0.7504600   0.2500089   0.7504599  )
        13           Fe  tau(  13) = (   0.5000002   0.5000002   0.0003125  )
        14           Fe  tau(  14) = (   0.7501475   0.7499913   0.2504777  )
        15           Fe  tau(  15) = (   0.5003127   0.5000002   0.5003121  )
        16           Fe  tau(  16) = (   0.7504600   0.7499913   0.7504599  )

     number of k points=   125  Marzari-Vanderbilt smearing, width (Ry)=  0.0400

     Number of k-points >= 100: set verbosity='high' to print them.

     Dense  grid:   169053 G-vectors     FFT dimensions: (  72,  72,  72)

     Smooth grid:    90727 G-vectors     FFT dimensions: (  60,  60,  60)

     Estimated max dynamical RAM per process >     116.52 MB

     Estimated total dynamical RAM >       4.55 GB

     Check: negative/imaginary core charge=   -0.000006    0.000000

     Initial potential from superposition of free atoms

     starting charge  255.99300, renormalised to  256.00000
     Starting wfcs are  160 randomized atomic wfcs
     Checking if some PAW data can be deallocated... 

     total cpu time spent up to now is       11.9 secs

     Self-consistent Calculation

     iteration #  1     ecut=    71.00 Ry     beta= 0.10
     Davidson diagonalization with overlap
     ethr =  1.00E-02,  avg # of iterations =  3.4

     Threshold (ethr) on eigenvalues was too large:
     Diagonalizing with lowered threshold

     Davidson diagonalization with overlap
     ethr =  2.54E-04,  avg # of iterations =  3.1

     total cpu time spent up to now is      102.8 secs

     total energy              =   -5267.75376113 Ry
     Harris-Foulkes estimate   =   -5267.86969575 Ry
     estimated scf accuracy    <       0.73209204 Ry

     iteration #  2     ecut=    71.00 Ry     beta= 0.10
     Davidson diagonalization with overlap
     ethr =  2.86E-04,  avg # of iterations =  1.0

     total cpu time spent up to now is      130.5 secs

     total energy              =   -5267.61861021 Ry
     Harris-Foulkes estimate   =   -5267.76897635 Ry
     estimated scf accuracy    <       0.36348191 Ry

     iteration #  3     ecut=    71.00 Ry     beta= 0.10
     Davidson diagonalization with overlap
     ethr =  1.42E-04,  avg # of iterations =  3.2

     total cpu time spent up to now is      181.6 secs

     total energy              =   -5267.69910622 Ry
     Harris-Foulkes estimate   =   -5267.72220222 Ry
     estimated scf accuracy    <       0.54317480 Ry

     iteration #  4     ecut=    71.00 Ry     beta= 0.10
     Davidson diagonalization with overlap
     ethr =  1.42E-04,  avg # of iterations =  1.0

     total cpu time spent up to now is      209.1 secs

     total energy              =   -5267.70516820 Ry
     Harris-Foulkes estimate   =   -5267.71142166 Ry
     estimated scf accuracy    <       0.02911989 Ry

     iteration #  5     ecut=    71.00 Ry     beta= 0.10
     Davidson diagonalization with overlap
     ethr =  1.14E-05,  avg # of iterations =  2.2

     total cpu time spent up to now is      245.0 secs

     total energy              =   -5267.70542547 Ry
     Harris-Foulkes estimate   =   -5267.70756556 Ry
     estimated scf accuracy    <       0.02305824 Ry

     iteration #  6     ecut=    71.00 Ry     beta= 0.10
     Davidson diagonalization with overlap
     ethr =  9.01E-06,  avg # of iterations =  2.9

     total cpu time spent up to now is      287.4 secs

     total energy              =   -5267.70684636 Ry
     Harris-Foulkes estimate   =   -5267.70779277 Ry
     estimated scf accuracy    <       0.01199548 Ry

     iteration #  7     ecut=    71.00 Ry     beta= 0.10
     Davidson diagonalization with overlap
     ethr =  4.69E-06,  avg # of iterations =  1.0

     total cpu time spent up to now is      314.7 secs

     total energy              =   -5267.70661305 Ry
     Harris-Foulkes estimate   =   -5267.70752920 Ry
     estimated scf accuracy    <       0.01510830 Ry

     iteration #  8     ecut=    71.00 Ry     beta= 0.10
     Davidson diagonalization with overlap
     ethr =  4.69E-06,  avg # of iterations =  1.6

     total cpu time spent up to now is      345.7 secs

     total energy              =   -5267.70717841 Ry
     Harris-Foulkes estimate   =   -5267.70724375 Ry
     estimated scf accuracy    <       0.00219894 Ry

     iteration #  9     ecut=    71.00 Ry     beta= 0.10
     Davidson diagonalization with overlap
     ethr =  8.59E-07,  avg # of iterations =  2.0

     total cpu time spent up to now is      378.8 secs

     total energy              =   -5267.70722145 Ry
     Harris-Foulkes estimate   =   -5267.70725571 Ry
     estimated scf accuracy    <       0.00056495 Ry

     iteration # 10     ecut=    71.00 Ry     beta= 0.10
     Davidson diagonalization with overlap
     ethr =  2.21E-07,  avg # of iterations =  1.4

     total cpu time spent up to now is      408.0 secs

     total energy              =   -5267.70721531 Ry
     Harris-Foulkes estimate   =   -5267.70724434 Ry
     estimated scf accuracy    <       0.00039795 Ry

     iteration # 11     ecut=    71.00 Ry     beta= 0.10
     Davidson diagonalization with overlap
     ethr =  1.55E-07,  avg # of iterations =  1.0

     total cpu time spent up to now is      435.5 secs

     total energy              =   -5267.70720476 Ry
     Harris-Foulkes estimate   =   -5267.70723187 Ry
     estimated scf accuracy    <       0.00039372 Ry

     iteration # 12     ecut=    71.00 Ry     beta= 0.10
     Davidson diagonalization with overlap
     ethr =  1.54E-07,  avg # of iterations =  1.0

     total cpu time spent up to now is      462.7 secs

     total energy              =   -5267.70720496 Ry
     Harris-Foulkes estimate   =   -5267.70721701 Ry
     estimated scf accuracy    <       0.00027819 Ry

     iteration # 13     ecut=    71.00 Ry     beta= 0.10
     Davidson diagonalization with overlap
     ethr =  1.09E-07,  avg # of iterations =  1.0

     total cpu time spent up to now is      490.6 secs

     End of self-consistent calculation

     Number of k-points >= 100: set verbosity='high' to print the bands.

     the Fermi energy is    20.5181 ev

!    total energy              =   -5267.70720864 Ry
     Harris-Foulkes estimate   =   -5267.70721284 Ry
     estimated scf accuracy    <       0.00000700 Ry

     total all-electron energy =    -40728.451738 Ry

     The total energy is the sum of the following terms:

     one-electron contribution =   -1619.97747291 Ry
     hartree contribution      =     989.08110354 Ry
     xc contribution           =    -442.97116887 Ry
     ewald contribution        =   -2868.94979868 Ry
     one-center paw contrib.   =   -1324.75908798 Ry
     smearing contrib. (-TS)   =      -0.13078373 Ry

     convergence has been achieved in  13 iterations

     Forces acting on atoms (cartesian axes, Ry/au):

     atom    1 type  1   force =     0.00000000    0.00000000    0.00000000
     atom    2 type  1   force =    -0.00005034    0.00008542   -0.00005034
     atom    3 type  1   force =     0.00000000    0.00000000    0.00000000
     atom    4 type  1   force =     0.00007989   -0.00091612   -0.00007989
     atom    5 type  1   force =     0.00000000    0.00000000    0.00000000
     atom    6 type  1   force =    -0.00005034   -0.00008542   -0.00005034
     atom    7 type  1   force =     0.00000000    0.00000000    0.00000000
     atom    8 type  1   force =     0.00007989    0.00091612   -0.00007989
     atom    9 type  1   force =     0.00000000    0.00000000    0.00000000
     atom   10 type  1   force =    -0.00007989   -0.00091612    0.00007989
     atom   11 type  1   force =     0.00000000    0.00000000    0.00000000
     atom   12 type  1   force =     0.00005034    0.00008542    0.00005034
     atom   13 type  1   force =     0.00000000    0.00000000    0.00000000
     atom   14 type  1   force =    -0.00007989    0.00091612    0.00007989
     atom   15 type  1   force =     0.00000000    0.00000000    0.00000000
     atom   16 type  1   force =     0.00005034   -0.00008542    0.00005034

     Total force =     0.001859     Total SCF correction =     0.004859
     SCF correction compared to forces is large: reduce conv_thr to get better values


     Computing stress (Cartesian axis) and pressure

          total   stress  (Ry/bohr**3)                   (kbar)     P=  -12.27
  -0.00008502   0.00000000  -0.00001484        -12.51      0.00     -2.18
   0.00000000  -0.00008024   0.00000000          0.00    -11.80      0.00
  -0.00001484   0.00000000  -0.00008502         -2.18      0.00    -12.51


     Writing output data file rCVyGwJnpJlzlYxd.save/
 
     init_run     :     10.65s CPU     11.12s WALL (       1 calls)
     electrons    :    462.89s CPU    478.81s WALL (       1 calls)
     forces       :      3.79s CPU      4.21s WALL (       1 calls)
     stress       :      9.92s CPU     10.15s WALL (       1 calls)

     Called by init_run:
     wfcinit      :     10.32s CPU     10.72s WALL (       1 calls)
     potinit      :      0.12s CPU      0.15s WALL (       1 calls)
     hinit0       :      0.14s CPU      0.16s WALL (       1 calls)

     Called by electrons:
     c_bands      :    413.96s CPU    427.01s WALL (      14 calls)
     sum_band     :     47.64s CPU     50.18s WALL (      14 calls)
     v_of_rho     :      0.12s CPU      0.25s WALL (      14 calls)
     newd         :      0.18s CPU      0.26s WALL (      14 calls)
     PAW_pot      :      0.98s CPU      1.04s WALL (      14 calls)
     mix_rho      :      0.06s CPU      0.09s WALL (      14 calls)

     Called by c_bands:
     init_us_2    :      2.50s CPU      2.54s WALL (    3875 calls)
     cegterg      :    402.00s CPU    414.87s WALL (    1750 calls)

     Called by sum_band:
     sum_band:bec :      0.71s CPU      0.72s WALL (    1750 calls)
     addusdens    :      0.19s CPU      0.24s WALL (      14 calls)

     Called by *egterg:
     h_psi        :    186.26s CPU    194.28s WALL (    5120 calls)
     s_psi        :     10.09s CPU     10.15s WALL (    5120 calls)
     g_psi        :      0.40s CPU      0.41s WALL (    3245 calls)
     cdiaghg      :    167.98s CPU    168.60s WALL (    4870 calls)

     Called by h_psi:
     h_psi:pot    :    185.13s CPU    193.15s WALL (    5120 calls)
     h_psi:calbec :     14.81s CPU     17.42s WALL (    5120 calls)
     vloc_psi     :    160.14s CPU    165.48s WALL (    5120 calls)
     add_vuspsi   :     10.13s CPU     10.21s WALL (    5120 calls)

     General routines
     calbec       :     23.56s CPU     27.84s WALL (    7495 calls)
     fft          :      0.16s CPU      0.40s WALL (     207 calls)
     ffts         :      0.02s CPU      0.07s WALL (      28 calls)
     fftw         :    187.21s CPU    193.37s WALL ( 1451362 calls)
     interpolate  :      0.02s CPU      0.04s WALL (      14 calls)
 
     Parallel routines
     fft_scatt_xy :     12.68s CPU     13.12s WALL ( 1451597 calls)
     fft_scatt_yz :    124.59s CPU    129.01s WALL ( 1451597 calls)
 
     PWSCF        :  8m15.51s CPU     8m50.68s WALL

 
   This run was terminated on:   9:51: 6   5Sep2020            

=------------------------------------------------------------------------------=
   JOB DONE.
=------------------------------------------------------------------------------=
