--------------------------------------------------------------------------
WARNING: There was an error initializing an OpenFabrics device.

  Local host:   bear-pg0211u07b
  Local device: mlx5_0
--------------------------------------------------------------------------

     Program PWSCF v.6.3 starts on  5Sep2020 at 11:38:41 

     This program is part of the open-source Quantum ESPRESSO suite
     for quantum simulation of materials; please cite
         "P. Giannozzi et al., J. Phys.:Condens. Matter 21 395502 (2009);
         "P. Giannozzi et al., J. Phys.:Condens. Matter 29 465901 (2017);
          URL http://www.quantum-espresso.org", 
     in publications or presentations arising from this work. More details at
     http://www.quantum-espresso.org/quote

     Parallel version (MPI & OpenMP), running on      40 processor cores
     Number of MPI processes:                40
     Threads/MPI process:                     1

     MPI processes distributed on     1 nodes
     R & G space division:  proc/nbgrp/npool/nimage =      40
     Reading input from wd/ec/ec_6_007.in
Warning: card &IONS ignored
Warning: card ION_DYNAMICS = 'BFGS', ignored
Warning: card / ignored
Warning: card &CELL ignored
Warning: card CELL_DYNAMICS = 'BFGS', ignored
Warning: card CELL_FACTOR = 2.0, ignored
Warning: card PRESS = 0.0, ignored
Warning: card / ignored

     Current dimensions of program PWSCF are:
     Max number of different atomic species (ntypx) = 10
     Max number of k-points (npk) =  40000
     Max angular momentum in pseudopotentials (lmaxx) =  3
               file Fe.pbe-spn-kjpaw_psl.1.0.0.UPF: wavefunction(s)  3P 3D renormalized

     Subspace diagonalization in iterative solution of the eigenvalue problem:
     a serial algorithm will be used

 
     Parallelization info
     --------------------
     sticks:   dense  smooth     PW     G-vecs:    dense   smooth      PW
     Min          92      60     16                 4226     2264     334
     Max          93      61     17                 4231     2271     341
     Sum        3705    2433    677               169113    90743   13545
 


     bravais-lattice index     =            0
     lattice parameter (alat)  =      10.3915  a.u.
     unit-cell volume          =    1122.0973 (a.u.)^3
     number of atoms/cell      =           16
     number of atomic types    =            1
     number of electrons       =       256.00
     number of Kohn-Sham states=          154
     kinetic-energy cutoff     =      71.0000  Ry
     charge density cutoff     =     430.0000  Ry
     convergence threshold     =      5.0E-05
     mixing beta               =       0.1000
     number of iterations used =           10  plain     mixing
     Exchange-correlation      = SLA PW PBX PBC ( 1  4  3  4 0 0)

     celldm(1)=  10.391466  celldm(2)=   0.000000  celldm(3)=   0.000000
     celldm(4)=   0.000000  celldm(5)=   0.000000  celldm(6)=   0.000000

     crystal axes: (cart. coord. in units of alat)
               a(1) = (   1.000005   0.003750   0.000000 )  
               a(2) = (   0.003750   1.000005   0.000000 )  
               a(3) = (   0.000000   0.000000   1.000005 )  

     reciprocal axes: (cart. coord. in units 2 pi/alat)
               b(1) = (  1.000009 -0.003750  0.000000 )  
               b(2) = ( -0.003750  1.000009  0.000000 )  
               b(3) = (  0.000000  0.000000  0.999995 )  


     PseudoPot. # 1 for Fe read from file:
     /rds/homes/b/bxp912/pp/Fe.pbe-spn-kjpaw_psl.1.0.0.UPF
     MD5 check sum: 42f43b795421b414b0dc916aa790dbcb
     Pseudo is Projector augmented-wave + core cor, Zval = 16.0
     Generated using "atomic" code by A. Dal Corso v.6.3
     Shape of augmentation charge: PSQ
     Using radial grid of 1191 points,  6 beta functions with: 
                l(1) =   0
                l(2) =   0
                l(3) =   1
                l(4) =   1
                l(5) =   2
                l(6) =   2
     Q(r) pseudized with 0 coefficients 


     atomic species   valence    mass     pseudopotential
        Fe            16.00    55.84500     Fe( 1.00)

      8 Sym. Ops., with inversion, found



   Cartesian axes

     site n.     atom                  positions (alat units)
         1           Fe  tau(   1) = (   0.0000000   0.0000000   0.0000000  )
         2           Fe  tau(   2) = (   0.2509476   0.2509476   0.2500101  )
         3           Fe  tau(   3) = (   0.0000000   0.0000000   0.5000018  )
         4           Fe  tau(   4) = (   0.2509476   0.2509476   0.7499946  )
         5           Fe  tau(   5) = (   0.0018750   0.5000024   0.0000000  )
         6           Fe  tau(   6) = (   0.2528226   0.7509322   0.2500101  )
         7           Fe  tau(   7) = (   0.0018750   0.5000024   0.5000018  )
         8           Fe  tau(   8) = (   0.2528226   0.7509322   0.7499946  )
         9           Fe  tau(   9) = (   0.5000024   0.0018750   0.0000000  )
        10           Fe  tau(  10) = (   0.7509322   0.2528226   0.2500101  )
        11           Fe  tau(  11) = (   0.5000024   0.0018750   0.5000018  )
        12           Fe  tau(  12) = (   0.7509322   0.2528226   0.7499946  )
        13           Fe  tau(  13) = (   0.5018775   0.5018775   0.0000000  )
        14           Fe  tau(  14) = (   0.7528072   0.7528072   0.2500101  )
        15           Fe  tau(  15) = (   0.5018775   0.5018775   0.5000018  )
        16           Fe  tau(  16) = (   0.7528072   0.7528072   0.7499946  )

     number of k points=   125  Marzari-Vanderbilt smearing, width (Ry)=  0.0400

     Number of k-points >= 100: set verbosity='high' to print them.

     Dense  grid:   169113 G-vectors     FFT dimensions: (  72,  72,  72)

     Smooth grid:    90743 G-vectors     FFT dimensions: (  60,  60,  60)

     Estimated max dynamical RAM per process >     116.53 MB

     Estimated total dynamical RAM >       4.55 GB

     Check: negative/imaginary core charge=   -0.000006    0.000000

     Initial potential from superposition of free atoms

     starting charge  255.99300, renormalised to  256.00000
     Starting wfcs are  160 randomized atomic wfcs
     Checking if some PAW data can be deallocated... 

     total cpu time spent up to now is       11.9 secs

     Self-consistent Calculation

     iteration #  1     ecut=    71.00 Ry     beta= 0.10
     Davidson diagonalization with overlap
     ethr =  1.00E-02,  avg # of iterations =  3.4

     Threshold (ethr) on eigenvalues was too large:
     Diagonalizing with lowered threshold

     Davidson diagonalization with overlap
     ethr =  2.54E-04,  avg # of iterations =  3.2

     total cpu time spent up to now is      103.0 secs

     total energy              =   -5267.75231611 Ry
     Harris-Foulkes estimate   =   -5267.86806003 Ry
     estimated scf accuracy    <       0.73280916 Ry

     iteration #  2     ecut=    71.00 Ry     beta= 0.10
     Davidson diagonalization with overlap
     ethr =  2.86E-04,  avg # of iterations =  1.0

     total cpu time spent up to now is      130.1 secs

     total energy              =   -5267.61876345 Ry
     Harris-Foulkes estimate   =   -5267.76757663 Ry
     estimated scf accuracy    <       0.36404723 Ry

     iteration #  3     ecut=    71.00 Ry     beta= 0.10
     Davidson diagonalization with overlap
     ethr =  1.42E-04,  avg # of iterations =  3.3

     total cpu time spent up to now is      182.0 secs

     total energy              =   -5267.69720219 Ry
     Harris-Foulkes estimate   =   -5267.72233551 Ry
     estimated scf accuracy    <       0.60090212 Ry

     iteration #  4     ecut=    71.00 Ry     beta= 0.10
     Davidson diagonalization with overlap
     ethr =  1.42E-04,  avg # of iterations =  1.0

     total cpu time spent up to now is      209.2 secs

     total energy              =   -5267.70512123 Ry
     Harris-Foulkes estimate   =   -5267.71075786 Ry
     estimated scf accuracy    <       0.03003215 Ry

     iteration #  5     ecut=    71.00 Ry     beta= 0.10
     Davidson diagonalization with overlap
     ethr =  1.17E-05,  avg # of iterations =  2.0

     total cpu time spent up to now is      242.4 secs

     total energy              =   -5267.70432037 Ry
     Harris-Foulkes estimate   =   -5267.70711871 Ry
     estimated scf accuracy    <       0.02267695 Ry

     iteration #  6     ecut=    71.00 Ry     beta= 0.10
     Davidson diagonalization with overlap
     ethr =  8.86E-06,  avg # of iterations =  3.2

     total cpu time spent up to now is      287.8 secs

     total energy              =   -5267.70712838 Ry
     Harris-Foulkes estimate   =   -5267.70710376 Ry
     estimated scf accuracy    <       0.01180524 Ry

     iteration #  7     ecut=    71.00 Ry     beta= 0.10
     Davidson diagonalization with overlap
     ethr =  4.61E-06,  avg # of iterations =  1.1

     total cpu time spent up to now is      315.5 secs

     total energy              =   -5267.70616321 Ry
     Harris-Foulkes estimate   =   -5267.70749485 Ry
     estimated scf accuracy    <       0.01374329 Ry

     iteration #  8     ecut=    71.00 Ry     beta= 0.10
     Davidson diagonalization with overlap
     ethr =  4.61E-06,  avg # of iterations =  1.0

     total cpu time spent up to now is      342.5 secs

     total energy              =   -5267.70661338 Ry
     Harris-Foulkes estimate   =   -5267.70687734 Ry
     estimated scf accuracy    <       0.00476467 Ry

     iteration #  9     ecut=    71.00 Ry     beta= 0.10
     Davidson diagonalization with overlap
     ethr =  1.86E-06,  avg # of iterations =  2.6

     total cpu time spent up to now is      379.2 secs

     total energy              =   -5267.70684163 Ry
     Harris-Foulkes estimate   =   -5267.70685717 Ry
     estimated scf accuracy    <       0.00049918 Ry

     iteration # 10     ecut=    71.00 Ry     beta= 0.10
     Davidson diagonalization with overlap
     ethr =  1.95E-07,  avg # of iterations =  2.2

     total cpu time spent up to now is      414.4 secs

     total energy              =   -5267.70684426 Ry
     Harris-Foulkes estimate   =   -5267.70686229 Ry
     estimated scf accuracy    <       0.00026485 Ry

     iteration # 11     ecut=    71.00 Ry     beta= 0.10
     Davidson diagonalization with overlap
     ethr =  1.03E-07,  avg # of iterations =  1.0

     total cpu time spent up to now is      441.3 secs

     total energy              =   -5267.70683829 Ry
     Harris-Foulkes estimate   =   -5267.70685585 Ry
     estimated scf accuracy    <       0.00015418 Ry

     iteration # 12     ecut=    71.00 Ry     beta= 0.10
     Davidson diagonalization with overlap
     ethr =  6.02E-08,  avg # of iterations =  1.0

     total cpu time spent up to now is      468.3 secs

     total energy              =   -5267.70683466 Ry
     Harris-Foulkes estimate   =   -5267.70684418 Ry
     estimated scf accuracy    <       0.00012577 Ry

     iteration # 13     ecut=    71.00 Ry     beta= 0.10
     Davidson diagonalization with overlap
     ethr =  4.91E-08,  avg # of iterations =  1.9

     total cpu time spent up to now is      500.5 secs

     End of self-consistent calculation

     Number of k-points >= 100: set verbosity='high' to print the bands.

     the Fermi energy is    20.5177 ev

!    total energy              =   -5267.70683531 Ry
     Harris-Foulkes estimate   =   -5267.70684080 Ry
     estimated scf accuracy    <       0.00000787 Ry

     total all-electron energy =    -40728.451364 Ry

     The total energy is the sum of the following terms:

     one-electron contribution =   -1620.02695684 Ry
     hartree contribution      =     989.11852542 Ry
     xc contribution           =    -442.97475288 Ry
     ewald contribution        =   -2868.93379505 Ry
     one-center paw contrib.   =   -1324.75906203 Ry
     smearing contrib. (-TS)   =      -0.13079393 Ry

     convergence has been achieved in  13 iterations

     Forces acting on atoms (cartesian axes, Ry/au):

     atom    1 type  1   force =     0.00000000    0.00000000    0.00000000
     atom    2 type  1   force =    -0.00034702   -0.00034702   -0.00010476
     atom    3 type  1   force =     0.00000000    0.00000000    0.00000000
     atom    4 type  1   force =    -0.00034702   -0.00034702    0.00010476
     atom    5 type  1   force =     0.00000000    0.00000000    0.00000000
     atom    6 type  1   force =     0.00025275   -0.00025275    0.00023931
     atom    7 type  1   force =     0.00000000    0.00000000    0.00000000
     atom    8 type  1   force =     0.00025275   -0.00025275   -0.00023931
     atom    9 type  1   force =     0.00000000    0.00000000    0.00000000
     atom   10 type  1   force =    -0.00025275    0.00025275    0.00023931
     atom   11 type  1   force =     0.00000000    0.00000000    0.00000000
     atom   12 type  1   force =    -0.00025275    0.00025275   -0.00023931
     atom   13 type  1   force =     0.00000000    0.00000000    0.00000000
     atom   14 type  1   force =     0.00034702    0.00034702   -0.00010476
     atom   15 type  1   force =     0.00000000    0.00000000    0.00000000
     atom   16 type  1   force =     0.00034702    0.00034702    0.00010476

     Total force =     0.001322     Total SCF correction =     0.004528
     SCF correction compared to forces is large: reduce conv_thr to get better values


     Computing stress (Cartesian axis) and pressure

          total   stress  (Ry/bohr**3)                   (kbar)     P=   -8.77
  -0.00006004  -0.00008951   0.00000000         -8.83    -13.17      0.00
  -0.00008951  -0.00006004   0.00000000        -13.17     -8.83      0.00
   0.00000000   0.00000000  -0.00005880          0.00      0.00     -8.65


     Writing output data file bWdTveVgyxgfszVu.save/
 
     init_run     :     10.59s CPU     11.08s WALL (       1 calls)
     electrons    :    472.91s CPU    488.64s WALL (       1 calls)
     forces       :      3.90s CPU      4.27s WALL (       1 calls)
     stress       :      9.82s CPU      9.95s WALL (       1 calls)

     Called by init_run:
     wfcinit      :     10.31s CPU     10.73s WALL (       1 calls)
     potinit      :      0.09s CPU      0.12s WALL (       1 calls)
     hinit0       :      0.12s CPU      0.14s WALL (       1 calls)

     Called by electrons:
     c_bands      :    424.46s CPU    437.33s WALL (      14 calls)
     sum_band     :     47.18s CPU     49.70s WALL (      14 calls)
     v_of_rho     :      0.10s CPU      0.23s WALL (      14 calls)
     newd         :      0.18s CPU      0.26s WALL (      14 calls)
     PAW_pot      :      0.96s CPU      1.05s WALL (      14 calls)
     mix_rho      :      0.03s CPU      0.07s WALL (      14 calls)

     Called by c_bands:
     init_us_2    :      2.54s CPU      2.57s WALL (    3875 calls)
     cegterg      :    412.18s CPU    424.91s WALL (    1750 calls)

     Called by sum_band:
     sum_band:bec :      0.72s CPU      0.74s WALL (    1750 calls)
     addusdens    :      0.21s CPU      0.26s WALL (      14 calls)

     Called by *egterg:
     h_psi        :    184.29s CPU    192.38s WALL (    5353 calls)
     s_psi        :     10.21s CPU     10.27s WALL (    5353 calls)
     g_psi        :      0.41s CPU      0.42s WALL (    3478 calls)
     cdiaghg      :    179.23s CPU    179.78s WALL (    5103 calls)

     Called by h_psi:
     h_psi:pot    :    183.22s CPU    191.29s WALL (    5353 calls)
     h_psi:calbec :     15.18s CPU     17.67s WALL (    5353 calls)
     vloc_psi     :    157.76s CPU    163.23s WALL (    5353 calls)
     add_vuspsi   :     10.23s CPU     10.36s WALL (    5353 calls)

     General routines
     calbec       :     24.14s CPU     28.23s WALL (    7728 calls)
     fft          :      0.11s CPU      0.36s WALL (     207 calls)
     ffts         :      0.01s CPU      0.07s WALL (      28 calls)
     fftw         :    184.31s CPU    190.62s WALL ( 1452446 calls)
     interpolate  :      0.01s CPU      0.04s WALL (      14 calls)
 
     Parallel routines
     fft_scatt_xy :     12.55s CPU     12.97s WALL ( 1452681 calls)
     fft_scatt_yz :    122.51s CPU    127.07s WALL ( 1452681 calls)
 
     PWSCF        :  8m25.34s CPU     9m 0.09s WALL

 
   This run was terminated on:  11:47:41   5Sep2020            

=------------------------------------------------------------------------------=
   JOB DONE.
=------------------------------------------------------------------------------=
