--------------------------------------------------------------------------
WARNING: There was an error initializing an OpenFabrics device.

  Local host:   bear-pg0211u07b
  Local device: mlx5_0
--------------------------------------------------------------------------

     Program PWSCF v.6.3 starts on  5Sep2020 at 11:29:40 

     This program is part of the open-source Quantum ESPRESSO suite
     for quantum simulation of materials; please cite
         "P. Giannozzi et al., J. Phys.:Condens. Matter 21 395502 (2009);
         "P. Giannozzi et al., J. Phys.:Condens. Matter 29 465901 (2017);
          URL http://www.quantum-espresso.org", 
     in publications or presentations arising from this work. More details at
     http://www.quantum-espresso.org/quote

     Parallel version (MPI & OpenMP), running on      40 processor cores
     Number of MPI processes:                40
     Threads/MPI process:                     1

     MPI processes distributed on     1 nodes
     R & G space division:  proc/nbgrp/npool/nimage =      40
     Reading input from wd/ec/ec_6_006.in
Warning: card &IONS ignored
Warning: card ION_DYNAMICS = 'BFGS', ignored
Warning: card / ignored
Warning: card &CELL ignored
Warning: card CELL_DYNAMICS = 'BFGS', ignored
Warning: card CELL_FACTOR = 2.0, ignored
Warning: card PRESS = 0.0, ignored
Warning: card / ignored

     Current dimensions of program PWSCF are:
     Max number of different atomic species (ntypx) = 10
     Max number of k-points (npk) =  40000
     Max angular momentum in pseudopotentials (lmaxx) =  3
               file Fe.pbe-spn-kjpaw_psl.1.0.0.UPF: wavefunction(s)  3P 3D renormalized

     Subspace diagonalization in iterative solution of the eigenvalue problem:
     a serial algorithm will be used

 
     Parallelization info
     --------------------
     sticks:   dense  smooth     PW     G-vecs:    dense   smooth      PW
     Min          92      60     16                 4226     2264     334
     Max          93      61     17                 4229     2269     341
     Sum        3701    2437    677               169085    90719   13545
 


     bravais-lattice index     =            0
     lattice parameter (alat)  =      10.3915  a.u.
     unit-cell volume          =    1122.0973 (a.u.)^3
     number of atoms/cell      =           16
     number of atomic types    =            1
     number of electrons       =       256.00
     number of Kohn-Sham states=          154
     kinetic-energy cutoff     =      71.0000  Ry
     charge density cutoff     =     430.0000  Ry
     convergence threshold     =      5.0E-05
     mixing beta               =       0.1000
     number of iterations used =           10  plain     mixing
     Exchange-correlation      = SLA PW PBX PBC ( 1  4  3  4 0 0)

     celldm(1)=  10.391466  celldm(2)=   0.000000  celldm(3)=   0.000000
     celldm(4)=   0.000000  celldm(5)=   0.000000  celldm(6)=   0.000000

     crystal axes: (cart. coord. in units of alat)
               a(1) = (   1.000003   0.003125   0.000000 )  
               a(2) = (   0.003125   1.000003   0.000000 )  
               a(3) = (   0.000000   0.000000   1.000003 )  

     reciprocal axes: (cart. coord. in units 2 pi/alat)
               b(1) = (  1.000007 -0.003125  0.000000 )  
               b(2) = ( -0.003125  1.000007  0.000000 )  
               b(3) = (  0.000000  0.000000  0.999997 )  


     PseudoPot. # 1 for Fe read from file:
     /rds/homes/b/bxp912/pp/Fe.pbe-spn-kjpaw_psl.1.0.0.UPF
     MD5 check sum: 42f43b795421b414b0dc916aa790dbcb
     Pseudo is Projector augmented-wave + core cor, Zval = 16.0
     Generated using "atomic" code by A. Dal Corso v.6.3
     Shape of augmentation charge: PSQ
     Using radial grid of 1191 points,  6 beta functions with: 
                l(1) =   0
                l(2) =   0
                l(3) =   1
                l(4) =   1
                l(5) =   2
                l(6) =   2
     Q(r) pseudized with 0 coefficients 


     atomic species   valence    mass     pseudopotential
        Fe            16.00    55.84500     Fe( 1.00)

      8 Sym. Ops., with inversion, found



   Cartesian axes

     site n.     atom                  positions (alat units)
         1           Fe  tau(   1) = (   0.0000000   0.0000000   0.0000000  )
         2           Fe  tau(   2) = (   0.2507910   0.2507910   0.2500097  )
         3           Fe  tau(   3) = (   0.0000000   0.0000000   0.5000011  )
         4           Fe  tau(   4) = (   0.2507910   0.2507910   0.7499935  )
         5           Fe  tau(   5) = (   0.0015625   0.5000017   0.0000000  )
         6           Fe  tau(   6) = (   0.2523535   0.7507749   0.2500097  )
         7           Fe  tau(   7) = (   0.0015625   0.5000017   0.5000011  )
         8           Fe  tau(   8) = (   0.2523535   0.7507749   0.7499935  )
         9           Fe  tau(   9) = (   0.5000017   0.0015625   0.0000000  )
        10           Fe  tau(  10) = (   0.7507749   0.2523535   0.2500097  )
        11           Fe  tau(  11) = (   0.5000017   0.0015625   0.5000011  )
        12           Fe  tau(  12) = (   0.7507749   0.2523535   0.7499935  )
        13           Fe  tau(  13) = (   0.5015642   0.5015642   0.0000000  )
        14           Fe  tau(  14) = (   0.7523374   0.7523374   0.2500097  )
        15           Fe  tau(  15) = (   0.5015642   0.5015642   0.5000011  )
        16           Fe  tau(  16) = (   0.7523374   0.7523374   0.7499935  )

     number of k points=   125  Marzari-Vanderbilt smearing, width (Ry)=  0.0400

     Number of k-points >= 100: set verbosity='high' to print them.

     Dense  grid:   169085 G-vectors     FFT dimensions: (  72,  72,  72)

     Smooth grid:    90719 G-vectors     FFT dimensions: (  60,  60,  60)

     Estimated max dynamical RAM per process >     116.53 MB

     Estimated total dynamical RAM >       4.55 GB

     Check: negative/imaginary core charge=   -0.000006    0.000000

     Initial potential from superposition of free atoms

     starting charge  255.99300, renormalised to  256.00000
     Starting wfcs are  160 randomized atomic wfcs
     Checking if some PAW data can be deallocated... 

     total cpu time spent up to now is       11.6 secs

     Self-consistent Calculation

     iteration #  1     ecut=    71.00 Ry     beta= 0.10
     Davidson diagonalization with overlap
     ethr =  1.00E-02,  avg # of iterations =  3.4

     Threshold (ethr) on eigenvalues was too large:
     Diagonalizing with lowered threshold

     Davidson diagonalization with overlap
     ethr =  2.54E-04,  avg # of iterations =  3.2

     total cpu time spent up to now is      102.4 secs

     total energy              =   -5267.75241714 Ry
     Harris-Foulkes estimate   =   -5267.86822304 Ry
     estimated scf accuracy    <       0.73317931 Ry

     iteration #  2     ecut=    71.00 Ry     beta= 0.10
     Davidson diagonalization with overlap
     ethr =  2.86E-04,  avg # of iterations =  1.0

     total cpu time spent up to now is      129.6 secs

     total energy              =   -5267.61887865 Ry
     Harris-Foulkes estimate   =   -5267.76768244 Ry
     estimated scf accuracy    <       0.36419509 Ry

     iteration #  3     ecut=    71.00 Ry     beta= 0.10
     Davidson diagonalization with overlap
     ethr =  1.42E-04,  avg # of iterations =  3.3

     total cpu time spent up to now is      181.0 secs

     total energy              =   -5267.69725713 Ry
     Harris-Foulkes estimate   =   -5267.72249346 Ry
     estimated scf accuracy    <       0.60357372 Ry

     iteration #  4     ecut=    71.00 Ry     beta= 0.10
     Davidson diagonalization with overlap
     ethr =  1.42E-04,  avg # of iterations =  1.0

     total cpu time spent up to now is      208.3 secs

     total energy              =   -5267.70526019 Ry
     Harris-Foulkes estimate   =   -5267.71087651 Ry
     estimated scf accuracy    <       0.03009553 Ry

     iteration #  5     ecut=    71.00 Ry     beta= 0.10
     Davidson diagonalization with overlap
     ethr =  1.18E-05,  avg # of iterations =  2.0

     total cpu time spent up to now is      242.2 secs

     total energy              =   -5267.70441475 Ry
     Harris-Foulkes estimate   =   -5267.70724689 Ry
     estimated scf accuracy    <       0.02271109 Ry

     iteration #  6     ecut=    71.00 Ry     beta= 0.10
     Davidson diagonalization with overlap
     ethr =  8.87E-06,  avg # of iterations =  3.2

     total cpu time spent up to now is      287.5 secs

     total energy              =   -5267.70724583 Ry
     Harris-Foulkes estimate   =   -5267.70722651 Ry
     estimated scf accuracy    <       0.01182136 Ry

     iteration #  7     ecut=    71.00 Ry     beta= 0.10
     Davidson diagonalization with overlap
     ethr =  4.62E-06,  avg # of iterations =  1.1

     total cpu time spent up to now is      315.3 secs

     total energy              =   -5267.70628138 Ry
     Harris-Foulkes estimate   =   -5267.70761150 Ry
     estimated scf accuracy    <       0.01368912 Ry

     iteration #  8     ecut=    71.00 Ry     beta= 0.10
     Davidson diagonalization with overlap
     ethr =  4.62E-06,  avg # of iterations =  1.0

     total cpu time spent up to now is      342.3 secs

     total energy              =   -5267.70673306 Ry
     Harris-Foulkes estimate   =   -5267.70699477 Ry
     estimated scf accuracy    <       0.00474117 Ry

     iteration #  9     ecut=    71.00 Ry     beta= 0.10
     Davidson diagonalization with overlap
     ethr =  1.85E-06,  avg # of iterations =  2.4

     total cpu time spent up to now is      378.2 secs

     total energy              =   -5267.70696003 Ry
     Harris-Foulkes estimate   =   -5267.70697556 Ry
     estimated scf accuracy    <       0.00050375 Ry

     iteration # 10     ecut=    71.00 Ry     beta= 0.10
     Davidson diagonalization with overlap
     ethr =  1.97E-07,  avg # of iterations =  2.3

     total cpu time spent up to now is      413.3 secs

     total energy              =   -5267.70696256 Ry
     Harris-Foulkes estimate   =   -5267.70698079 Ry
     estimated scf accuracy    <       0.00026558 Ry

     iteration # 11     ecut=    71.00 Ry     beta= 0.10
     Davidson diagonalization with overlap
     ethr =  1.04E-07,  avg # of iterations =  1.0

     total cpu time spent up to now is      440.1 secs

     total energy              =   -5267.70695461 Ry
     Harris-Foulkes estimate   =   -5267.70697426 Ry
     estimated scf accuracy    <       0.00015472 Ry

     iteration # 12     ecut=    71.00 Ry     beta= 0.10
     Davidson diagonalization with overlap
     ethr =  6.04E-08,  avg # of iterations =  1.0

     total cpu time spent up to now is      467.0 secs

     total energy              =   -5267.70695382 Ry
     Harris-Foulkes estimate   =   -5267.70696146 Ry
     estimated scf accuracy    <       0.00011250 Ry

     iteration # 13     ecut=    71.00 Ry     beta= 0.10
     Davidson diagonalization with overlap
     ethr =  4.39E-08,  avg # of iterations =  1.9

     total cpu time spent up to now is      499.8 secs

     End of self-consistent calculation

     Number of k-points >= 100: set verbosity='high' to print the bands.

     the Fermi energy is    20.5177 ev

!    total energy              =   -5267.70695372 Ry
     Harris-Foulkes estimate   =   -5267.70695921 Ry
     estimated scf accuracy    <       0.00000785 Ry

     total all-electron energy =    -40728.451483 Ry

     The total energy is the sum of the following terms:

     one-electron contribution =   -1620.01631217 Ry
     hartree contribution      =     989.11259402 Ry
     xc contribution           =    -442.97446490 Ry
     ewald contribution        =   -2868.93882481 Ry
     one-center paw contrib.   =   -1324.75915285 Ry
     smearing contrib. (-TS)   =      -0.13079302 Ry

     convergence has been achieved in  13 iterations

     Forces acting on atoms (cartesian axes, Ry/au):

     atom    1 type  1   force =     0.00000000    0.00000000    0.00000000
     atom    2 type  1   force =    -0.00034477   -0.00034477   -0.00010326
     atom    3 type  1   force =     0.00000000    0.00000000    0.00000000
     atom    4 type  1   force =    -0.00034477   -0.00034477    0.00010326
     atom    5 type  1   force =     0.00000000    0.00000000    0.00000000
     atom    6 type  1   force =     0.00032250   -0.00032250    0.00023554
     atom    7 type  1   force =     0.00000000    0.00000000    0.00000000
     atom    8 type  1   force =     0.00032250   -0.00032250   -0.00023554
     atom    9 type  1   force =     0.00000000    0.00000000    0.00000000
     atom   10 type  1   force =    -0.00032250    0.00032250    0.00023554
     atom   11 type  1   force =     0.00000000    0.00000000    0.00000000
     atom   12 type  1   force =    -0.00032250    0.00032250   -0.00023554
     atom   13 type  1   force =     0.00000000    0.00000000    0.00000000
     atom   14 type  1   force =     0.00034477    0.00034477   -0.00010326
     atom   15 type  1   force =     0.00000000    0.00000000    0.00000000
     atom   16 type  1   force =     0.00034477    0.00034477    0.00010326

     Total force =     0.001431     Total SCF correction =     0.004705
     SCF correction compared to forces is large: reduce conv_thr to get better values


     Computing stress (Cartesian axis) and pressure

          total   stress  (Ry/bohr**3)                   (kbar)     P=   -8.70
  -0.00005953  -0.00007463   0.00000000         -8.76    -10.98      0.00
  -0.00007463  -0.00005953   0.00000000        -10.98     -8.76      0.00
   0.00000000   0.00000000  -0.00005836          0.00      0.00     -8.58


     Writing output data file sWOCfoOFgijLvJYn.save/
 
     init_run     :     10.36s CPU     10.83s WALL (       1 calls)
     electrons    :    472.71s CPU    488.20s WALL (       1 calls)
     forces       :      3.87s CPU      4.25s WALL (       1 calls)
     stress       :     10.15s CPU     10.27s WALL (       1 calls)

     Called by init_run:
     wfcinit      :     10.01s CPU     10.43s WALL (       1 calls)
     potinit      :      0.10s CPU      0.12s WALL (       1 calls)
     hinit0       :      0.16s CPU      0.18s WALL (       1 calls)

     Called by electrons:
     c_bands      :    424.49s CPU    437.18s WALL (      14 calls)
     sum_band     :     46.86s CPU     49.32s WALL (      14 calls)
     v_of_rho     :      0.12s CPU      0.26s WALL (      14 calls)
     newd         :      0.18s CPU      0.26s WALL (      14 calls)
     PAW_pot      :      1.04s CPU      1.11s WALL (      14 calls)
     mix_rho      :      0.04s CPU      0.07s WALL (      14 calls)

     Called by c_bands:
     init_us_2    :      2.49s CPU      2.51s WALL (    3875 calls)
     cegterg      :    412.39s CPU    424.95s WALL (    1750 calls)

     Called by sum_band:
     sum_band:bec :      0.72s CPU      0.73s WALL (    1750 calls)
     addusdens    :      0.21s CPU      0.26s WALL (      14 calls)

     Called by *egterg:
     h_psi        :    184.32s CPU    192.23s WALL (    5352 calls)
     s_psi        :     10.14s CPU     10.20s WALL (    5352 calls)
     g_psi        :      0.41s CPU      0.42s WALL (    3477 calls)
     cdiaghg      :    178.92s CPU    179.42s WALL (    5102 calls)

     Called by h_psi:
     h_psi:pot    :    183.24s CPU    191.14s WALL (    5352 calls)
     h_psi:calbec :     14.97s CPU     17.56s WALL (    5352 calls)
     vloc_psi     :    158.11s CPU    163.32s WALL (    5352 calls)
     add_vuspsi   :     10.11s CPU     10.22s WALL (    5352 calls)

     General routines
     calbec       :     23.97s CPU     28.17s WALL (    7727 calls)
     fft          :      0.15s CPU      0.39s WALL (     207 calls)
     ffts         :      0.03s CPU      0.08s WALL (      28 calls)
     fftw         :    184.41s CPU    190.39s WALL ( 1452464 calls)
     interpolate  :      0.03s CPU      0.05s WALL (      14 calls)
 
     Parallel routines
     fft_scatt_xy :     12.63s CPU     13.04s WALL ( 1452699 calls)
     fft_scatt_yz :    122.73s CPU    127.05s WALL ( 1452699 calls)
 
     PWSCF        :  8m25.15s CPU     8m59.88s WALL

 
   This run was terminated on:  11:38:40   5Sep2020            

=------------------------------------------------------------------------------=
   JOB DONE.
=------------------------------------------------------------------------------=
