
     Program PWSCF v.6.3 starts on  5Sep2020 at 10:53:26 

     This program is part of the open-source Quantum ESPRESSO suite
     for quantum simulation of materials; please cite
         "P. Giannozzi et al., J. Phys.:Condens. Matter 21 395502 (2009);
         "P. Giannozzi et al., J. Phys.:Condens. Matter 29 465901 (2017);
          URL http://www.quantum-espresso.org", 
     in publications or presentations arising from this work. More details at
     http://www.quantum-espresso.org/quote

     Parallel version (MPI & OpenMP), running on      40 processor cores
     Number of MPI processes:                40
     Threads/MPI process:                     1

     MPI processes distributed on     1 nodes
     R & G space division:  proc/nbgrp/npool/nimage =      40
     Reading input from wd/ec/ec_6_002.in
Warning: card &IONS ignored
Warning: card ION_DYNAMICS = 'BFGS', ignored
Warning: card / ignored
Warning: card &CELL ignored
Warning: card CELL_DYNAMICS = 'BFGS', ignored
Warning: card CELL_FACTOR = 2.0, ignored
Warning: card PRESS = 0.0, ignored
Warning: card / ignored

     Current dimensions of program PWSCF are:
     Max number of different atomic species (ntypx) = 10
     Max number of k-points (npk) =  40000
     Max angular momentum in pseudopotentials (lmaxx) =  3
               file Fe.pbe-spn-kjpaw_psl.1.0.0.UPF: wavefunction(s)  3P 3D renormalized

     Subspace diagonalization in iterative solution of the eigenvalue problem:
     a serial algorithm will be used

 
     Parallelization info
     --------------------
     sticks:   dense  smooth     PW     G-vecs:    dense   smooth      PW
     Min          92      60     17                 4224     2266     335
     Max          93      62     18                 4229     2269     341
     Sum        3705    2441    681               169053    90727   13585
 


     bravais-lattice index     =            0
     lattice parameter (alat)  =      10.3915  a.u.
     unit-cell volume          =    1122.0973 (a.u.)^3
     number of atoms/cell      =           16
     number of atomic types    =            1
     number of electrons       =       256.00
     number of Kohn-Sham states=          154
     kinetic-energy cutoff     =      71.0000  Ry
     charge density cutoff     =     430.0000  Ry
     convergence threshold     =      5.0E-05
     mixing beta               =       0.1000
     number of iterations used =           10  plain     mixing
     Exchange-correlation      = SLA PW PBX PBC ( 1  4  3  4 0 0)

     celldm(1)=  10.391466  celldm(2)=   0.000000  celldm(3)=   0.000000
     celldm(4)=   0.000000  celldm(5)=   0.000000  celldm(6)=   0.000000

     crystal axes: (cart. coord. in units of alat)
               a(1) = (   1.000000   0.000625   0.000000 )  
               a(2) = (   0.000625   1.000000   0.000000 )  
               a(3) = (   0.000000   0.000000   1.000000 )  

     reciprocal axes: (cart. coord. in units 2 pi/alat)
               b(1) = (  1.000000 -0.000625  0.000000 )  
               b(2) = ( -0.000625  1.000000  0.000000 )  
               b(3) = (  0.000000  0.000000  1.000000 )  


     PseudoPot. # 1 for Fe read from file:
     /rds/homes/b/bxp912/pp/Fe.pbe-spn-kjpaw_psl.1.0.0.UPF
     MD5 check sum: 42f43b795421b414b0dc916aa790dbcb
     Pseudo is Projector augmented-wave + core cor, Zval = 16.0
     Generated using "atomic" code by A. Dal Corso v.6.3
     Shape of augmentation charge: PSQ
     Using radial grid of 1191 points,  6 beta functions with: 
                l(1) =   0
                l(2) =   0
                l(3) =   1
                l(4) =   1
                l(5) =   2
                l(6) =   2
     Q(r) pseudized with 0 coefficients 


     atomic species   valence    mass     pseudopotential
        Fe            16.00    55.84500     Fe( 1.00)

      8 Sym. Ops., with inversion, found



   Cartesian axes

     site n.     atom                  positions (alat units)
         1           Fe  tau(   1) = (   0.0000000   0.0000000   0.0000000  )
         2           Fe  tau(   2) = (   0.2501652   0.2501652   0.2500089  )
         3           Fe  tau(   3) = (   0.0000000   0.0000000   0.4999996  )
         4           Fe  tau(   4) = (   0.2501652   0.2501652   0.7499912  )
         5           Fe  tau(   5) = (   0.0003125   0.5000002   0.0000000  )
         6           Fe  tau(   6) = (   0.2504777   0.7501475   0.2500089  )
         7           Fe  tau(   7) = (   0.0003125   0.5000002   0.4999996  )
         8           Fe  tau(   8) = (   0.2504777   0.7501475   0.7499912  )
         9           Fe  tau(   9) = (   0.5000002   0.0003125   0.0000000  )
        10           Fe  tau(  10) = (   0.7501475   0.2504777   0.2500089  )
        11           Fe  tau(  11) = (   0.5000002   0.0003125   0.4999996  )
        12           Fe  tau(  12) = (   0.7501475   0.2504777   0.7499912  )
        13           Fe  tau(  13) = (   0.5003127   0.5003127   0.0000000  )
        14           Fe  tau(  14) = (   0.7504600   0.7504600   0.2500089  )
        15           Fe  tau(  15) = (   0.5003127   0.5003127   0.4999996  )
        16           Fe  tau(  16) = (   0.7504600   0.7504600   0.7499912  )

     number of k points=   125  Marzari-Vanderbilt smearing, width (Ry)=  0.0400

     Number of k-points >= 100: set verbosity='high' to print them.

     Dense  grid:   169053 G-vectors     FFT dimensions: (  72,  72,  72)

     Smooth grid:    90727 G-vectors     FFT dimensions: (  60,  60,  60)

     Estimated max dynamical RAM per process >     116.53 MB

     Estimated total dynamical RAM >       4.55 GB

     Check: negative/imaginary core charge=   -0.000006    0.000000

     Initial potential from superposition of free atoms

     starting charge  255.99300, renormalised to  256.00000
     Starting wfcs are  160 randomized atomic wfcs
     Checking if some PAW data can be deallocated... 

     total cpu time spent up to now is       11.9 secs

     Self-consistent Calculation

     iteration #  1     ecut=    71.00 Ry     beta= 0.10
     Davidson diagonalization with overlap
     ethr =  1.00E-02,  avg # of iterations =  3.5

     Threshold (ethr) on eigenvalues was too large:
     Diagonalizing with lowered threshold

     Davidson diagonalization with overlap
     ethr =  2.55E-04,  avg # of iterations =  3.1

     total cpu time spent up to now is      103.0 secs

     total energy              =   -5267.75265484 Ry
     Harris-Foulkes estimate   =   -5267.86852250 Ry
     estimated scf accuracy    <       0.73353603 Ry

     iteration #  2     ecut=    71.00 Ry     beta= 0.10
     Davidson diagonalization with overlap
     ethr =  2.87E-04,  avg # of iterations =  1.0

     total cpu time spent up to now is      130.4 secs

     total energy              =   -5267.61897769 Ry
     Harris-Foulkes estimate   =   -5267.76794021 Ry
     estimated scf accuracy    <       0.36436582 Ry

     iteration #  3     ecut=    71.00 Ry     beta= 0.10
     Davidson diagonalization with overlap
     ethr =  1.42E-04,  avg # of iterations =  3.2

     total cpu time spent up to now is      181.5 secs

     total energy              =   -5267.69759826 Ry
     Harris-Foulkes estimate   =   -5267.72270125 Ry
     estimated scf accuracy    <       0.59964343 Ry

     iteration #  4     ecut=    71.00 Ry     beta= 0.10
     Davidson diagonalization with overlap
     ethr =  1.42E-04,  avg # of iterations =  1.0

     total cpu time spent up to now is      209.4 secs

     total energy              =   -5267.70550568 Ry
     Harris-Foulkes estimate   =   -5267.71113877 Ry
     estimated scf accuracy    <       0.03014017 Ry

     iteration #  5     ecut=    71.00 Ry     beta= 0.10
     Davidson diagonalization with overlap
     ethr =  1.18E-05,  avg # of iterations =  2.1

     total cpu time spent up to now is      243.1 secs

     total energy              =   -5267.70467095 Ry
     Harris-Foulkes estimate   =   -5267.70749974 Ry
     estimated scf accuracy    <       0.02276016 Ry

     iteration #  6     ecut=    71.00 Ry     beta= 0.10
     Davidson diagonalization with overlap
     ethr =  8.89E-06,  avg # of iterations =  3.0

     total cpu time spent up to now is      287.6 secs

     total energy              =   -5267.70747120 Ry
     Harris-Foulkes estimate   =   -5267.70747285 Ry
     estimated scf accuracy    <       0.01176828 Ry

     iteration #  7     ecut=    71.00 Ry     beta= 0.10
     Davidson diagonalization with overlap
     ethr =  4.60E-06,  avg # of iterations =  1.1

     total cpu time spent up to now is      315.2 secs

     total energy              =   -5267.70654095 Ry
     Harris-Foulkes estimate   =   -5267.70783763 Ry
     estimated scf accuracy    <       0.01340589 Ry

     iteration #  8     ecut=    71.00 Ry     beta= 0.10
     Davidson diagonalization with overlap
     ethr =  4.60E-06,  avg # of iterations =  1.0

     total cpu time spent up to now is      342.4 secs

     total energy              =   -5267.70699836 Ry
     Harris-Foulkes estimate   =   -5267.70724400 Ry
     estimated scf accuracy    <       0.00458640 Ry

     iteration #  9     ecut=    71.00 Ry     beta= 0.10
     Davidson diagonalization with overlap
     ethr =  1.79E-06,  avg # of iterations =  2.4

     total cpu time spent up to now is      378.4 secs

     total energy              =   -5267.70721212 Ry
     Harris-Foulkes estimate   =   -5267.70722764 Ry
     estimated scf accuracy    <       0.00050200 Ry

     iteration # 10     ecut=    71.00 Ry     beta= 0.10
     Davidson diagonalization with overlap
     ethr =  1.96E-07,  avg # of iterations =  2.2

     total cpu time spent up to now is      413.3 secs

     total energy              =   -5267.70721588 Ry
     Harris-Foulkes estimate   =   -5267.70723372 Ry
     estimated scf accuracy    <       0.00026402 Ry

     iteration # 11     ecut=    71.00 Ry     beta= 0.10
     Davidson diagonalization with overlap
     ethr =  1.03E-07,  avg # of iterations =  1.0

     total cpu time spent up to now is      440.6 secs

     total energy              =   -5267.70720664 Ry
     Harris-Foulkes estimate   =   -5267.70722753 Ry
     estimated scf accuracy    <       0.00015396 Ry

     iteration # 12     ecut=    71.00 Ry     beta= 0.10
     Davidson diagonalization with overlap
     ethr =  6.01E-08,  avg # of iterations =  1.0

     total cpu time spent up to now is      467.9 secs

     total energy              =   -5267.70720702 Ry
     Harris-Foulkes estimate   =   -5267.70721405 Ry
     estimated scf accuracy    <       0.00010986 Ry

     iteration # 13     ecut=    71.00 Ry     beta= 0.10
     Davidson diagonalization with overlap
     ethr =  4.29E-08,  avg # of iterations =  2.0

     total cpu time spent up to now is      501.4 secs

     End of self-consistent calculation

     Number of k-points >= 100: set verbosity='high' to print the bands.

     the Fermi energy is    20.5177 ev

!    total energy              =   -5267.70720717 Ry
     Harris-Foulkes estimate   =   -5267.70721234 Ry
     estimated scf accuracy    <       0.00000752 Ry

     total all-electron energy =    -40728.451736 Ry

     The total energy is the sum of the following terms:

     one-electron contribution =   -1619.98936591 Ry
     hartree contribution      =     989.09509079 Ry
     xc contribution           =    -442.97317102 Ry
     ewald contribution        =   -2868.94979868 Ry
     one-center paw contrib.   =   -1324.75917543 Ry
     smearing contrib. (-TS)   =      -0.13078692 Ry

     convergence has been achieved in  13 iterations

     Forces acting on atoms (cartesian axes, Ry/au):

     atom    1 type  1   force =     0.00000000    0.00000000    0.00000000
     atom    2 type  1   force =    -0.00028135   -0.00028135   -0.00013247
     atom    3 type  1   force =     0.00000000    0.00000000    0.00000000
     atom    4 type  1   force =    -0.00028135   -0.00028135    0.00013247
     atom    5 type  1   force =     0.00000000    0.00000000    0.00000000
     atom    6 type  1   force =     0.00025582   -0.00025582    0.00021724
     atom    7 type  1   force =     0.00000000    0.00000000    0.00000000
     atom    8 type  1   force =     0.00025582   -0.00025582   -0.00021724
     atom    9 type  1   force =     0.00000000    0.00000000    0.00000000
     atom   10 type  1   force =    -0.00025582    0.00025582    0.00021724
     atom   11 type  1   force =     0.00000000    0.00000000    0.00000000
     atom   12 type  1   force =    -0.00025582    0.00025582   -0.00021724
     atom   13 type  1   force =     0.00000000    0.00000000    0.00000000
     atom   14 type  1   force =     0.00028135    0.00028135   -0.00013247
     atom   15 type  1   force =     0.00000000    0.00000000    0.00000000
     atom   16 type  1   force =     0.00028135    0.00028135    0.00013247

     Total force =     0.001190     Total SCF correction =     0.004797
     SCF correction compared to forces is large: reduce conv_thr to get better values


     Computing stress (Cartesian axis) and pressure

          total   stress  (Ry/bohr**3)                   (kbar)     P=   -9.86
  -0.00006713  -0.00001549   0.00000000         -9.88     -2.28      0.00
  -0.00001549  -0.00006713   0.00000000         -2.28     -9.88      0.00
   0.00000000   0.00000000  -0.00006678          0.00      0.00     -9.82


     Writing output data file wlAvMvqxefBaoCmq.save/
 
     init_run     :     10.70s CPU     11.16s WALL (       1 calls)
     electrons    :    473.79s CPU    489.55s WALL (       1 calls)
     forces       :      3.74s CPU      4.09s WALL (       1 calls)
     stress       :      9.98s CPU     10.10s WALL (       1 calls)

     Called by init_run:
     wfcinit      :     10.34s CPU     10.74s WALL (       1 calls)
     potinit      :      0.16s CPU      0.18s WALL (       1 calls)
     hinit0       :      0.13s CPU      0.16s WALL (       1 calls)

     Called by electrons:
     c_bands      :    425.07s CPU    438.03s WALL (      14 calls)
     sum_band     :     47.38s CPU     49.90s WALL (      14 calls)
     v_of_rho     :      0.16s CPU      0.28s WALL (      14 calls)
     newd         :      0.22s CPU      0.27s WALL (      14 calls)
     PAW_pot      :      1.01s CPU      1.06s WALL (      14 calls)
     mix_rho      :      0.04s CPU      0.07s WALL (      14 calls)

     Called by c_bands:
     init_us_2    :      2.37s CPU      2.40s WALL (    3875 calls)
     cegterg      :    412.96s CPU    425.78s WALL (    1750 calls)

     Called by sum_band:
     sum_band:bec :      0.71s CPU      0.74s WALL (    1750 calls)
     addusdens    :      0.20s CPU      0.26s WALL (      14 calls)

     Called by *egterg:
     h_psi        :    186.54s CPU    194.45s WALL (    5339 calls)
     s_psi        :     10.08s CPU     10.16s WALL (    5339 calls)
     g_psi        :      0.40s CPU      0.41s WALL (    3464 calls)
     cdiaghg      :    177.50s CPU    178.29s WALL (    5089 calls)

     Called by h_psi:
     h_psi:pot    :    185.52s CPU    193.42s WALL (    5339 calls)
     h_psi:calbec :     14.92s CPU     17.41s WALL (    5339 calls)
     vloc_psi     :    160.47s CPU    165.81s WALL (    5339 calls)
     add_vuspsi   :     10.09s CPU     10.16s WALL (    5339 calls)

     General routines
     calbec       :     23.97s CPU     27.99s WALL (    7714 calls)
     fft          :      0.21s CPU      0.43s WALL (     207 calls)
     ffts         :      0.03s CPU      0.09s WALL (      28 calls)
     fftw         :    187.37s CPU    193.59s WALL ( 1452474 calls)
     interpolate  :      0.04s CPU      0.07s WALL (      14 calls)
 
     Parallel routines
     fft_scatt_xy :     12.64s CPU     13.03s WALL ( 1452709 calls)
     fft_scatt_yz :    125.81s CPU    130.31s WALL ( 1452709 calls)
 
     PWSCF        :  8m26.26s CPU     9m 1.01s WALL

 
   This run was terminated on:  11: 2:27   5Sep2020            

=------------------------------------------------------------------------------=
   JOB DONE.
=------------------------------------------------------------------------------=
