
     Program PWSCF v.6.3 starts on  5Sep2020 at 12:39:34 

     This program is part of the open-source Quantum ESPRESSO suite
     for quantum simulation of materials; please cite
         "P. Giannozzi et al., J. Phys.:Condens. Matter 21 395502 (2009);
         "P. Giannozzi et al., J. Phys.:Condens. Matter 29 465901 (2017);
          URL http://www.quantum-espresso.org", 
     in publications or presentations arising from this work. More details at
     http://www.quantum-espresso.org/quote

     Parallel version (MPI & OpenMP), running on      40 processor cores
     Number of MPI processes:                40
     Threads/MPI process:                     1

     MPI processes distributed on     1 nodes
     R & G space division:  proc/nbgrp/npool/nimage =      40
     Reading input from wd/ec/ec_7_006.in
Warning: card &IONS ignored
Warning: card ION_DYNAMICS = 'BFGS', ignored
Warning: card / ignored
Warning: card &CELL ignored
Warning: card CELL_DYNAMICS = 'BFGS', ignored
Warning: card CELL_FACTOR = 2.0, ignored
Warning: card PRESS = 0.0, ignored
Warning: card / ignored

     Current dimensions of program PWSCF are:
     Max number of different atomic species (ntypx) = 10
     Max number of k-points (npk) =  40000
     Max angular momentum in pseudopotentials (lmaxx) =  3
               file Fe.pbe-spn-kjpaw_psl.1.0.0.UPF: wavefunction(s)  3P 3D renormalized

     Subspace diagonalization in iterative solution of the eigenvalue problem:
     a serial algorithm will be used

 
     Parallelization info
     --------------------
     sticks:   dense  smooth     PW     G-vecs:    dense   smooth      PW
     Min          92      61     17                 4224     2267     335
     Max          93      62     18                 4229     2271     341
     Sum        3701    2441    681               169045    90759   13573
 


     bravais-lattice index     =            0
     lattice parameter (alat)  =      10.3915  a.u.
     unit-cell volume          =    1122.0973 (a.u.)^3
     number of atoms/cell      =           16
     number of atomic types    =            1
     number of electrons       =       256.00
     number of Kohn-Sham states=          154
     kinetic-energy cutoff     =      71.0000  Ry
     charge density cutoff     =     430.0000  Ry
     convergence threshold     =      5.0E-05
     mixing beta               =       0.1000
     number of iterations used =           10  plain     mixing
     Exchange-correlation      = SLA PW PBX PBC ( 1  4  3  4 0 0)

     celldm(1)=  10.391466  celldm(2)=   0.000000  celldm(3)=   0.000000
     celldm(4)=   0.000000  celldm(5)=   0.000000  celldm(6)=   0.000000

     crystal axes: (cart. coord. in units of alat)
               a(1) = (   1.003128   0.000000   0.000000 )  
               a(2) = (   0.000000   0.996878   0.000000 )  
               a(3) = (   0.000000   0.000000   1.000003 )  

     reciprocal axes: (cart. coord. in units 2 pi/alat)
               b(1) = (  0.996881  0.000000  0.000000 )  
               b(2) = (  0.000000  1.003132  0.000000 )  
               b(3) = (  0.000000  0.000000  0.999997 )  


     PseudoPot. # 1 for Fe read from file:
     /rds/homes/b/bxp912/pp/Fe.pbe-spn-kjpaw_psl.1.0.0.UPF
     MD5 check sum: 42f43b795421b414b0dc916aa790dbcb
     Pseudo is Projector augmented-wave + core cor, Zval = 16.0
     Generated using "atomic" code by A. Dal Corso v.6.3
     Shape of augmentation charge: PSQ
     Using radial grid of 1191 points,  6 beta functions with: 
                l(1) =   0
                l(2) =   0
                l(3) =   1
                l(4) =   1
                l(5) =   2
                l(6) =   2
     Q(r) pseudized with 0 coefficients 


     atomic species   valence    mass     pseudopotential
        Fe            16.00    55.84500     Fe( 1.00)

      8 Sym. Ops., with inversion, found



   Cartesian axes

     site n.     atom                  positions (alat units)
         1           Fe  tau(   1) = (   0.0000000   0.0000000   0.0000000  )
         2           Fe  tau(   2) = (   0.2507910   0.2492284   0.2500097  )
         3           Fe  tau(   3) = (   0.0000000   0.0000000   0.5000011  )
         4           Fe  tau(   4) = (   0.2507910   0.2492284   0.7499935  )
         5           Fe  tau(   5) = (   0.0000000   0.4984392   0.0000000  )
         6           Fe  tau(   6) = (   0.2507910   0.7476499   0.2500097  )
         7           Fe  tau(   7) = (   0.0000000   0.4984392   0.5000011  )
         8           Fe  tau(   8) = (   0.2507910   0.7476499   0.7499935  )
         9           Fe  tau(   9) = (   0.5015642   0.0000000   0.0000000  )
        10           Fe  tau(  10) = (   0.7523374   0.2492284   0.2500097  )
        11           Fe  tau(  11) = (   0.5015642   0.0000000   0.5000011  )
        12           Fe  tau(  12) = (   0.7523374   0.2492284   0.7499935  )
        13           Fe  tau(  13) = (   0.5015642   0.4984392   0.0000000  )
        14           Fe  tau(  14) = (   0.7523374   0.7476499   0.2500097  )
        15           Fe  tau(  15) = (   0.5015642   0.4984392   0.5000011  )
        16           Fe  tau(  16) = (   0.7523374   0.7476499   0.7499935  )

     number of k points=   125  Marzari-Vanderbilt smearing, width (Ry)=  0.0400

     Number of k-points >= 100: set verbosity='high' to print them.

     Dense  grid:   169045 G-vectors     FFT dimensions: (  72,  72,  72)

     Smooth grid:    90759 G-vectors     FFT dimensions: (  60,  60,  60)

     Estimated max dynamical RAM per process >     116.53 MB

     Estimated total dynamical RAM >       4.55 GB

     Check: negative/imaginary core charge=   -0.000006    0.000000

     Initial potential from superposition of free atoms

     starting charge  255.99300, renormalised to  256.00000
     Starting wfcs are  160 randomized atomic wfcs
     Checking if some PAW data can be deallocated... 

     total cpu time spent up to now is       12.4 secs

     Self-consistent Calculation

     iteration #  1     ecut=    71.00 Ry     beta= 0.10
     Davidson diagonalization with overlap
     ethr =  1.00E-02,  avg # of iterations =  3.4

     Threshold (ethr) on eigenvalues was too large:
     Diagonalizing with lowered threshold

     Davidson diagonalization with overlap
     ethr =  2.52E-04,  avg # of iterations =  3.2

     total cpu time spent up to now is      102.9 secs

     total energy              =   -5267.75224329 Ry
     Harris-Foulkes estimate   =   -5267.86791489 Ry
     estimated scf accuracy    <       0.73338434 Ry

     iteration #  2     ecut=    71.00 Ry     beta= 0.10
     Davidson diagonalization with overlap
     ethr =  2.86E-04,  avg # of iterations =  1.0

     total cpu time spent up to now is      130.2 secs

     total energy              =   -5267.61786735 Ry
     Harris-Foulkes estimate   =   -5267.76746200 Ry
     estimated scf accuracy    <       0.36373109 Ry

     iteration #  3     ecut=    71.00 Ry     beta= 0.10
     Davidson diagonalization with overlap
     ethr =  1.42E-04,  avg # of iterations =  3.2

     total cpu time spent up to now is      181.3 secs

     total energy              =   -5267.69876824 Ry
     Harris-Foulkes estimate   =   -5267.72174165 Ry
     estimated scf accuracy    <       0.54590332 Ry

     iteration #  4     ecut=    71.00 Ry     beta= 0.10
     Davidson diagonalization with overlap
     ethr =  1.42E-04,  avg # of iterations =  1.0

     total cpu time spent up to now is      208.6 secs

     total energy              =   -5267.70533031 Ry
     Harris-Foulkes estimate   =   -5267.71106076 Ry
     estimated scf accuracy    <       0.03035120 Ry

     iteration #  5     ecut=    71.00 Ry     beta= 0.10
     Davidson diagonalization with overlap
     ethr =  1.19E-05,  avg # of iterations =  2.1

     total cpu time spent up to now is      242.6 secs

     total energy              =   -5267.70459874 Ry
     Harris-Foulkes estimate   =   -5267.70736544 Ry
     estimated scf accuracy    <       0.02273099 Ry

     iteration #  6     ecut=    71.00 Ry     beta= 0.10
     Davidson diagonalization with overlap
     ethr =  8.88E-06,  avg # of iterations =  3.0

     total cpu time spent up to now is      287.2 secs

     total energy              =   -5267.70723291 Ry
     Harris-Foulkes estimate   =   -5267.70747191 Ry
     estimated scf accuracy    <       0.01194241 Ry

     iteration #  7     ecut=    71.00 Ry     beta= 0.10
     Davidson diagonalization with overlap
     ethr =  4.67E-06,  avg # of iterations =  1.0

     total cpu time spent up to now is      314.6 secs

     total energy              =   -5267.70680755 Ry
     Harris-Foulkes estimate   =   -5267.70775154 Ry
     estimated scf accuracy    <       0.01432916 Ry

     iteration #  8     ecut=    71.00 Ry     beta= 0.10
     Davidson diagonalization with overlap
     ethr =  4.67E-06,  avg # of iterations =  1.1

     total cpu time spent up to now is      342.5 secs

     total energy              =   -5267.70731494 Ry
     Harris-Foulkes estimate   =   -5267.70742368 Ry
     estimated scf accuracy    <       0.00254524 Ry

     iteration #  9     ecut=    71.00 Ry     beta= 0.10
     Davidson diagonalization with overlap
     ethr =  9.94E-07,  avg # of iterations =  2.3

     total cpu time spent up to now is      377.9 secs

     total energy              =   -5267.70741541 Ry
     Harris-Foulkes estimate   =   -5267.70743217 Ry
     estimated scf accuracy    <       0.00050383 Ry

     iteration # 10     ecut=    71.00 Ry     beta= 0.10
     Davidson diagonalization with overlap
     ethr =  1.97E-07,  avg # of iterations =  1.9

     total cpu time spent up to now is      410.5 secs

     total energy              =   -5267.70741032 Ry
     Harris-Foulkes estimate   =   -5267.70743155 Ry
     estimated scf accuracy    <       0.00024759 Ry

     iteration # 11     ecut=    71.00 Ry     beta= 0.10
     Davidson diagonalization with overlap
     ethr =  9.67E-08,  avg # of iterations =  1.0

     total cpu time spent up to now is      437.6 secs

     total energy              =   -5267.70739551 Ry
     Harris-Foulkes estimate   =   -5267.70742368 Ry
     estimated scf accuracy    <       0.00020438 Ry

     iteration # 12     ecut=    71.00 Ry     beta= 0.10
     Davidson diagonalization with overlap
     ethr =  7.98E-08,  avg # of iterations =  1.0

     total cpu time spent up to now is      464.7 secs

     total energy              =   -5267.70740375 Ry
     Harris-Foulkes estimate   =   -5267.70740659 Ry
     estimated scf accuracy    <       0.00006339 Ry

     iteration # 13     ecut=    71.00 Ry     beta= 0.10
     Davidson diagonalization with overlap
     ethr =  2.48E-08,  avg # of iterations =  1.6

     total cpu time spent up to now is      495.1 secs

     End of self-consistent calculation

     Number of k-points >= 100: set verbosity='high' to print the bands.

     the Fermi energy is    20.5165 ev

!    total energy              =   -5267.70740346 Ry
     Harris-Foulkes estimate   =   -5267.70740624 Ry
     estimated scf accuracy    <       0.00000418 Ry

     total all-electron energy =    -40728.451932 Ry

     The total energy is the sum of the following terms:

     one-electron contribution =   -1620.04482945 Ry
     hartree contribution      =     989.15884291 Ry
     xc contribution           =    -442.98210182 Ry
     ewald contribution        =   -2868.94872392 Ry
     one-center paw contrib.   =   -1324.75994543 Ry
     smearing contrib. (-TS)   =      -0.13064576 Ry

     convergence has been achieved in  13 iterations

     Forces acting on atoms (cartesian axes, Ry/au):

     atom    1 type  1   force =     0.00000000    0.00000000    0.00000000
     atom    2 type  1   force =     0.00015879   -0.00024609    0.00009465
     atom    3 type  1   force =     0.00000000    0.00000000    0.00000000
     atom    4 type  1   force =     0.00015879   -0.00024609   -0.00009465
     atom    5 type  1   force =     0.00000000    0.00000000    0.00000000
     atom    6 type  1   force =     0.00015879    0.00024609    0.00009465
     atom    7 type  1   force =     0.00000000    0.00000000    0.00000000
     atom    8 type  1   force =     0.00015879    0.00024609   -0.00009465
     atom    9 type  1   force =     0.00000000    0.00000000    0.00000000
     atom   10 type  1   force =    -0.00015879   -0.00024609    0.00009465
     atom   11 type  1   force =     0.00000000    0.00000000    0.00000000
     atom   12 type  1   force =    -0.00015879   -0.00024609   -0.00009465
     atom   13 type  1   force =     0.00000000    0.00000000    0.00000000
     atom   14 type  1   force =    -0.00015879    0.00024609    0.00009465
     atom   15 type  1   force =     0.00000000    0.00000000    0.00000000
     atom   16 type  1   force =    -0.00015879    0.00024609   -0.00009465

     Total force =     0.000871     Total SCF correction =     0.003513
     SCF correction compared to forces is large: reduce conv_thr to get better values


     Computing stress (Cartesian axis) and pressure

          total   stress  (Ry/bohr**3)                   (kbar)     P=    2.21
   0.00006315   0.00000000   0.00000000          9.29      0.00      0.00
   0.00000000  -0.00003214   0.00000000          0.00     -4.73      0.00
   0.00000000   0.00000000   0.00001408          0.00      0.00      2.07


     Writing output data file AOqvDYVwLcTBNRQg.save/
 
     init_run     :     11.09s CPU     11.64s WALL (       1 calls)
     electrons    :    467.38s CPU    482.79s WALL (       1 calls)
     forces       :      3.75s CPU      4.13s WALL (       1 calls)
     stress       :      9.97s CPU     10.08s WALL (       1 calls)

     Called by init_run:
     wfcinit      :     10.81s CPU     11.26s WALL (       1 calls)
     potinit      :      0.10s CPU      0.13s WALL (       1 calls)
     hinit0       :      0.10s CPU      0.14s WALL (       1 calls)

     Called by electrons:
     c_bands      :    418.61s CPU    431.29s WALL (      14 calls)
     sum_band     :     47.46s CPU     49.89s WALL (      14 calls)
     v_of_rho     :      0.12s CPU      0.24s WALL (      14 calls)
     newd         :      0.18s CPU      0.25s WALL (      14 calls)
     PAW_pot      :      1.00s CPU      1.05s WALL (      14 calls)
     mix_rho      :      0.05s CPU      0.09s WALL (      14 calls)

     Called by c_bands:
     init_us_2    :      2.47s CPU      2.51s WALL (    3875 calls)
     cegterg      :    406.41s CPU    418.94s WALL (    1750 calls)

     Called by sum_band:
     sum_band:bec :      0.72s CPU      0.73s WALL (    1750 calls)
     addusdens    :      0.21s CPU      0.26s WALL (      14 calls)

     Called by *egterg:
     h_psi        :    186.66s CPU    194.52s WALL (    5225 calls)
     s_psi        :     10.27s CPU     10.33s WALL (    5225 calls)
     g_psi        :      0.41s CPU      0.41s WALL (    3350 calls)
     cdiaghg      :    172.06s CPU    172.66s WALL (    4975 calls)

     Called by h_psi:
     h_psi:pot    :    185.66s CPU    193.51s WALL (    5225 calls)
     h_psi:calbec :     15.17s CPU     17.61s WALL (    5225 calls)
     vloc_psi     :    160.20s CPU    165.54s WALL (    5225 calls)
     add_vuspsi   :     10.25s CPU     10.33s WALL (    5225 calls)

     General routines
     calbec       :     24.24s CPU     28.20s WALL (    7600 calls)
     fft          :      0.15s CPU      0.36s WALL (     207 calls)
     ffts         :      0.02s CPU      0.08s WALL (      28 calls)
     fftw         :    186.94s CPU    193.12s WALL ( 1451248 calls)
     interpolate  :      0.02s CPU      0.05s WALL (      14 calls)
 
     Parallel routines
     fft_scatt_xy :     12.54s CPU     12.98s WALL ( 1451483 calls)
     fft_scatt_yz :    124.72s CPU    129.09s WALL ( 1451483 calls)
 
     PWSCF        :  8m20.39s CPU     8m54.95s WALL

 
   This run was terminated on:  12:48:29   5Sep2020            

=------------------------------------------------------------------------------=
   JOB DONE.
=------------------------------------------------------------------------------=
