
     Program PWSCF v.6.3 starts on  5Sep2020 at 12:57:25 

     This program is part of the open-source Quantum ESPRESSO suite
     for quantum simulation of materials; please cite
         "P. Giannozzi et al., J. Phys.:Condens. Matter 21 395502 (2009);
         "P. Giannozzi et al., J. Phys.:Condens. Matter 29 465901 (2017);
          URL http://www.quantum-espresso.org", 
     in publications or presentations arising from this work. More details at
     http://www.quantum-espresso.org/quote

     Parallel version (MPI & OpenMP), running on      40 processor cores
     Number of MPI processes:                40
     Threads/MPI process:                     1

     MPI processes distributed on     1 nodes
     R & G space division:  proc/nbgrp/npool/nimage =      40
     Reading input from wd/ec/ec_7_008.in
Warning: card &IONS ignored
Warning: card ION_DYNAMICS = 'BFGS', ignored
Warning: card / ignored
Warning: card &CELL ignored
Warning: card CELL_DYNAMICS = 'BFGS', ignored
Warning: card CELL_FACTOR = 2.0, ignored
Warning: card PRESS = 0.0, ignored
Warning: card / ignored

     Current dimensions of program PWSCF are:
     Max number of different atomic species (ntypx) = 10
     Max number of k-points (npk) =  40000
     Max angular momentum in pseudopotentials (lmaxx) =  3
               file Fe.pbe-spn-kjpaw_psl.1.0.0.UPF: wavefunction(s)  3P 3D renormalized

     Subspace diagonalization in iterative solution of the eigenvalue problem:
     a serial algorithm will be used

 
     Parallelization info
     --------------------
     sticks:   dense  smooth     PW     G-vecs:    dense   smooth      PW
     Min          92      61     17                 4224     2269     335
     Max          93      62     18                 4227     2271     341
     Sum        3701    2441    681               169005    90779   13569
 


     bravais-lattice index     =            0
     lattice parameter (alat)  =      10.3915  a.u.
     unit-cell volume          =    1122.0973 (a.u.)^3
     number of atoms/cell      =           16
     number of atomic types    =            1
     number of electrons       =       256.00
     number of Kohn-Sham states=          154
     kinetic-energy cutoff     =      71.0000  Ry
     charge density cutoff     =     430.0000  Ry
     convergence threshold     =      5.0E-05
     mixing beta               =       0.1000
     number of iterations used =           10  plain     mixing
     Exchange-correlation      = SLA PW PBX PBC ( 1  4  3  4 0 0)

     celldm(1)=  10.391466  celldm(2)=   0.000000  celldm(3)=   0.000000
     celldm(4)=   0.000000  celldm(5)=   0.000000  celldm(6)=   0.000000

     crystal axes: (cart. coord. in units of alat)
               a(1) = (   1.004381   0.000000   0.000000 )  
               a(2) = (   0.000000   0.995631   0.000000 )  
               a(3) = (   0.000000   0.000000   1.000006 )  

     reciprocal axes: (cart. coord. in units 2 pi/alat)
               b(1) = (  0.995638  0.000000  0.000000 )  
               b(2) = (  0.000000  1.004388  0.000000 )  
               b(3) = (  0.000000  0.000000  0.999994 )  


     PseudoPot. # 1 for Fe read from file:
     /rds/homes/b/bxp912/pp/Fe.pbe-spn-kjpaw_psl.1.0.0.UPF
     MD5 check sum: 42f43b795421b414b0dc916aa790dbcb
     Pseudo is Projector augmented-wave + core cor, Zval = 16.0
     Generated using "atomic" code by A. Dal Corso v.6.3
     Shape of augmentation charge: PSQ
     Using radial grid of 1191 points,  6 beta functions with: 
                l(1) =   0
                l(2) =   0
                l(3) =   1
                l(4) =   1
                l(5) =   2
                l(6) =   2
     Q(r) pseudized with 0 coefficients 


     atomic species   valence    mass     pseudopotential
        Fe            16.00    55.84500     Fe( 1.00)

      8 Sym. Ops., with inversion, found



   Cartesian axes

     site n.     atom                  positions (alat units)
         1           Fe  tau(   1) = (   0.0000000   0.0000000   0.0000000  )
         2           Fe  tau(   2) = (   0.2511043   0.2489167   0.2500105  )
         3           Fe  tau(   3) = (   0.0000000   0.0000000   0.5000027  )
         4           Fe  tau(   4) = (   0.2511043   0.2489167   0.7499959  )
         5           Fe  tau(   5) = (   0.0000000   0.4978158   0.0000000  )
         6           Fe  tau(   6) = (   0.2511043   0.7467147   0.2500105  )
         7           Fe  tau(   7) = (   0.0000000   0.4978158   0.5000027  )
         8           Fe  tau(   8) = (   0.2511043   0.7467147   0.7499959  )
         9           Fe  tau(   9) = (   0.5021908   0.0000000   0.0000000  )
        10           Fe  tau(  10) = (   0.7532772   0.2489167   0.2500105  )
        11           Fe  tau(  11) = (   0.5021908   0.0000000   0.5000027  )
        12           Fe  tau(  12) = (   0.7532772   0.2489167   0.7499959  )
        13           Fe  tau(  13) = (   0.5021908   0.4978158   0.0000000  )
        14           Fe  tau(  14) = (   0.7532772   0.7467147   0.2500105  )
        15           Fe  tau(  15) = (   0.5021908   0.4978158   0.5000027  )
        16           Fe  tau(  16) = (   0.7532772   0.7467147   0.7499959  )

     number of k points=   125  Marzari-Vanderbilt smearing, width (Ry)=  0.0400

     Number of k-points >= 100: set verbosity='high' to print them.

     Dense  grid:   169005 G-vectors     FFT dimensions: (  72,  72,  72)

     Smooth grid:    90779 G-vectors     FFT dimensions: (  60,  60,  60)

     Estimated max dynamical RAM per process >     116.52 MB

     Estimated total dynamical RAM >       4.55 GB

     Check: negative/imaginary core charge=   -0.000006    0.000000

     Initial potential from superposition of free atoms

     starting charge  255.99300, renormalised to  256.00000
     Starting wfcs are  160 randomized atomic wfcs
     Checking if some PAW data can be deallocated... 

     total cpu time spent up to now is       11.9 secs

     Self-consistent Calculation

     iteration #  1     ecut=    71.00 Ry     beta= 0.10
     Davidson diagonalization with overlap
     ethr =  1.00E-02,  avg # of iterations =  3.3

     Threshold (ethr) on eigenvalues was too large:
     Diagonalizing with lowered threshold

     Davidson diagonalization with overlap
     ethr =  2.51E-04,  avg # of iterations =  3.3

     total cpu time spent up to now is      103.2 secs

     total energy              =   -5267.75243758 Ry
     Harris-Foulkes estimate   =   -5267.86813232 Ry
     estimated scf accuracy    <       0.73352101 Ry

     iteration #  2     ecut=    71.00 Ry     beta= 0.10
     Davidson diagonalization with overlap
     ethr =  2.87E-04,  avg # of iterations =  1.0

     total cpu time spent up to now is      130.3 secs

     total energy              =   -5267.61803700 Ry
     Harris-Foulkes estimate   =   -5267.76762131 Ry
     estimated scf accuracy    <       0.36375958 Ry

     iteration #  3     ecut=    71.00 Ry     beta= 0.10
     Davidson diagonalization with overlap
     ethr =  1.42E-04,  avg # of iterations =  3.2

     total cpu time spent up to now is      181.6 secs

     total energy              =   -5267.69889271 Ry
     Harris-Foulkes estimate   =   -5267.72190299 Ry
     estimated scf accuracy    <       0.54706023 Ry

     iteration #  4     ecut=    71.00 Ry     beta= 0.10
     Davidson diagonalization with overlap
     ethr =  1.42E-04,  avg # of iterations =  1.0

     total cpu time spent up to now is      209.0 secs

     total energy              =   -5267.70550184 Ry
     Harris-Foulkes estimate   =   -5267.71120513 Ry
     estimated scf accuracy    <       0.03037664 Ry

     iteration #  5     ecut=    71.00 Ry     beta= 0.10
     Davidson diagonalization with overlap
     ethr =  1.19E-05,  avg # of iterations =  2.0

     total cpu time spent up to now is      245.4 secs

     total energy              =   -5267.70472532 Ry
     Harris-Foulkes estimate   =   -5267.70752165 Ry
     estimated scf accuracy    <       0.02268225 Ry

     iteration #  6     ecut=    71.00 Ry     beta= 0.10
     Davidson diagonalization with overlap
     ethr =  8.86E-06,  avg # of iterations =  3.0

     total cpu time spent up to now is      290.2 secs

     total energy              =   -5267.70736438 Ry
     Harris-Foulkes estimate   =   -5267.70762451 Ry
     estimated scf accuracy    <       0.01196353 Ry

     iteration #  7     ecut=    71.00 Ry     beta= 0.10
     Davidson diagonalization with overlap
     ethr =  4.67E-06,  avg # of iterations =  1.0

     total cpu time spent up to now is      317.7 secs

     total energy              =   -5267.70695608 Ry
     Harris-Foulkes estimate   =   -5267.70789375 Ry
     estimated scf accuracy    <       0.01445588 Ry

     iteration #  8     ecut=    71.00 Ry     beta= 0.10
     Davidson diagonalization with overlap
     ethr =  4.67E-06,  avg # of iterations =  1.1

     total cpu time spent up to now is      345.9 secs

     total energy              =   -5267.70746583 Ry
     Harris-Foulkes estimate   =   -5267.70756912 Ry
     estimated scf accuracy    <       0.00244543 Ry

     iteration #  9     ecut=    71.00 Ry     beta= 0.10
     Davidson diagonalization with overlap
     ethr =  9.55E-07,  avg # of iterations =  2.3

     total cpu time spent up to now is      380.9 secs

     total energy              =   -5267.70756145 Ry
     Harris-Foulkes estimate   =   -5267.70757817 Ry
     estimated scf accuracy    <       0.00050022 Ry

     iteration # 10     ecut=    71.00 Ry     beta= 0.10
     Davidson diagonalization with overlap
     ethr =  1.95E-07,  avg # of iterations =  1.9

     total cpu time spent up to now is      414.0 secs

     total energy              =   -5267.70755630 Ry
     Harris-Foulkes estimate   =   -5267.70757730 Ry
     estimated scf accuracy    <       0.00024633 Ry

     iteration # 11     ecut=    71.00 Ry     beta= 0.10
     Davidson diagonalization with overlap
     ethr =  9.62E-08,  avg # of iterations =  1.0

     total cpu time spent up to now is      441.2 secs

     total energy              =   -5267.70754398 Ry
     Harris-Foulkes estimate   =   -5267.70756965 Ry
     estimated scf accuracy    <       0.00020703 Ry

     iteration # 12     ecut=    71.00 Ry     beta= 0.10
     Davidson diagonalization with overlap
     ethr =  8.09E-08,  avg # of iterations =  1.0

     total cpu time spent up to now is      468.5 secs

     total energy              =   -5267.70754857 Ry
     Harris-Foulkes estimate   =   -5267.70755363 Ry
     estimated scf accuracy    <       0.00010115 Ry

     iteration # 13     ecut=    71.00 Ry     beta= 0.10
     Davidson diagonalization with overlap
     ethr =  3.95E-08,  avg # of iterations =  1.1

     total cpu time spent up to now is      496.2 secs

     End of self-consistent calculation

     Number of k-points >= 100: set verbosity='high' to print the bands.

     the Fermi energy is    20.5163 ev

!    total energy              =   -5267.70754913 Ry
     Harris-Foulkes estimate   =   -5267.70755203 Ry
     estimated scf accuracy    <       0.00000432 Ry

     total all-electron energy =    -40728.452078 Ry

     The total energy is the sum of the following terms:

     one-electron contribution =   -1620.04815174 Ry
     hartree contribution      =     989.16034626 Ry
     xc contribution           =    -442.98208592 Ry
     ewald contribution        =   -2868.94725241 Ry
     one-center paw contrib.   =   -1324.75990634 Ry
     smearing contrib. (-TS)   =      -0.13049898 Ry

     convergence has been achieved in  13 iterations

     Forces acting on atoms (cartesian axes, Ry/au):

     atom    1 type  1   force =     0.00000000    0.00000000    0.00000000
     atom    2 type  1   force =     0.00007683   -0.00017369    0.00007356
     atom    3 type  1   force =     0.00000000    0.00000000    0.00000000
     atom    4 type  1   force =     0.00007683   -0.00017369   -0.00007356
     atom    5 type  1   force =     0.00000000    0.00000000    0.00000000
     atom    6 type  1   force =     0.00007683    0.00017369    0.00007356
     atom    7 type  1   force =     0.00000000    0.00000000    0.00000000
     atom    8 type  1   force =     0.00007683    0.00017369   -0.00007356
     atom    9 type  1   force =     0.00000000    0.00000000    0.00000000
     atom   10 type  1   force =    -0.00007683   -0.00017369    0.00007356
     atom   11 type  1   force =     0.00000000    0.00000000    0.00000000
     atom   12 type  1   force =    -0.00007683   -0.00017369   -0.00007356
     atom   13 type  1   force =     0.00000000    0.00000000    0.00000000
     atom   14 type  1   force =    -0.00007683    0.00017369    0.00007356
     atom   15 type  1   force =     0.00000000    0.00000000    0.00000000
     atom   16 type  1   force =    -0.00007683    0.00017369   -0.00007356

     Total force =     0.000576     Total SCF correction =     0.003922
     SCF correction compared to forces is large: reduce conv_thr to get better values


     Computing stress (Cartesian axis) and pressure

          total   stress  (Ry/bohr**3)                   (kbar)     P=    2.15
   0.00008345   0.00000000   0.00000000         12.28      0.00      0.00
   0.00000000  -0.00005218   0.00000000          0.00     -7.68      0.00
   0.00000000   0.00000000   0.00001266          0.00      0.00      1.86


     Writing output data file GIadLCWJFunFVJyz.save/
 
     init_run     :     10.76s CPU     11.23s WALL (       1 calls)
     electrons    :    468.82s CPU    484.31s WALL (       1 calls)
     forces       :      3.72s CPU      4.08s WALL (       1 calls)
     stress       :      9.86s CPU      9.98s WALL (       1 calls)

     Called by init_run:
     wfcinit      :     10.45s CPU     10.84s WALL (       1 calls)
     potinit      :      0.12s CPU      0.15s WALL (       1 calls)
     hinit0       :      0.12s CPU      0.14s WALL (       1 calls)

     Called by electrons:
     c_bands      :    419.93s CPU    432.57s WALL (      14 calls)
     sum_band     :     47.63s CPU     50.14s WALL (      14 calls)
     v_of_rho     :      0.13s CPU      0.26s WALL (      14 calls)
     newd         :      0.19s CPU      0.26s WALL (      14 calls)
     PAW_pot      :      0.97s CPU      1.05s WALL (      14 calls)
     mix_rho      :      0.03s CPU      0.07s WALL (      14 calls)

     Called by c_bands:
     init_us_2    :      2.51s CPU      2.56s WALL (    3875 calls)
     cegterg      :    407.85s CPU    420.33s WALL (    1750 calls)

     Called by sum_band:
     sum_band:bec :      0.69s CPU      0.70s WALL (    1750 calls)
     addusdens    :      0.21s CPU      0.26s WALL (      14 calls)

     Called by *egterg:
     h_psi        :    189.45s CPU    197.29s WALL (    5171 calls)
     s_psi        :     10.13s CPU     10.19s WALL (    5171 calls)
     g_psi        :      0.41s CPU      0.41s WALL (    3296 calls)
     cdiaghg      :    170.50s CPU    170.99s WALL (    4921 calls)

     Called by h_psi:
     h_psi:pot    :    188.46s CPU    196.29s WALL (    5171 calls)
     h_psi:calbec :     15.13s CPU     17.68s WALL (    5171 calls)
     vloc_psi     :    163.16s CPU    168.39s WALL (    5171 calls)
     add_vuspsi   :     10.13s CPU     10.20s WALL (    5171 calls)

     General routines
     calbec       :     24.04s CPU     28.19s WALL (    7546 calls)
     fft          :      0.15s CPU      0.39s WALL (     207 calls)
     ffts         :      0.01s CPU      0.07s WALL (      28 calls)
     fftw         :    190.14s CPU    196.20s WALL ( 1451278 calls)
     interpolate  :      0.02s CPU      0.04s WALL (      14 calls)
 
     Parallel routines
     fft_scatt_xy :     12.66s CPU     13.07s WALL ( 1451513 calls)
     fft_scatt_yz :    127.65s CPU    132.03s WALL ( 1451513 calls)
 
     PWSCF        :  8m21.31s CPU     8m55.31s WALL

 
   This run was terminated on:  13: 6:20   5Sep2020            

=------------------------------------------------------------------------------=
   JOB DONE.
=------------------------------------------------------------------------------=
