--------------------------------------------------------------------------
WARNING: There was an error initializing an OpenFabrics device.

  Local host:   bear-pg0211u07b
  Local device: mlx5_0
--------------------------------------------------------------------------

     Program PWSCF v.6.3 starts on  5Sep2020 at 13: 6:22 

     This program is part of the open-source Quantum ESPRESSO suite
     for quantum simulation of materials; please cite
         "P. Giannozzi et al., J. Phys.:Condens. Matter 21 395502 (2009);
         "P. Giannozzi et al., J. Phys.:Condens. Matter 29 465901 (2017);
          URL http://www.quantum-espresso.org", 
     in publications or presentations arising from this work. More details at
     http://www.quantum-espresso.org/quote

     Parallel version (MPI & OpenMP), running on      40 processor cores
     Number of MPI processes:                40
     Threads/MPI process:                     1

     MPI processes distributed on     1 nodes
     R & G space division:  proc/nbgrp/npool/nimage =      40
     Reading input from wd/ec/ec_7_009.in
Warning: card &IONS ignored
Warning: card ION_DYNAMICS = 'BFGS', ignored
Warning: card / ignored
Warning: card &CELL ignored
Warning: card CELL_DYNAMICS = 'BFGS', ignored
Warning: card CELL_FACTOR = 2.0, ignored
Warning: card PRESS = 0.0, ignored
Warning: card / ignored

     Current dimensions of program PWSCF are:
     Max number of different atomic species (ntypx) = 10
     Max number of k-points (npk) =  40000
     Max angular momentum in pseudopotentials (lmaxx) =  3
               file Fe.pbe-spn-kjpaw_psl.1.0.0.UPF: wavefunction(s)  3P 3D renormalized

     Subspace diagonalization in iterative solution of the eigenvalue problem:
     a serial algorithm will be used

 
     Parallelization info
     --------------------
     sticks:   dense  smooth     PW     G-vecs:    dense   smooth      PW
     Min          92      61     16                 4224     2267     334
     Max          93      62     17                 4227     2269     341
     Sum        3693    2443    677               169009    90741   13561
 


     bravais-lattice index     =            0
     lattice parameter (alat)  =      10.3915  a.u.
     unit-cell volume          =    1122.0973 (a.u.)^3
     number of atoms/cell      =           16
     number of atomic types    =            1
     number of electrons       =       256.00
     number of Kohn-Sham states=          154
     kinetic-energy cutoff     =      71.0000  Ry
     charge density cutoff     =     430.0000  Ry
     convergence threshold     =      5.0E-05
     mixing beta               =       0.1000
     number of iterations used =           10  plain     mixing
     Exchange-correlation      = SLA PW PBX PBC ( 1  4  3  4 0 0)

     celldm(1)=  10.391466  celldm(2)=   0.000000  celldm(3)=   0.000000
     celldm(4)=   0.000000  celldm(5)=   0.000000  celldm(6)=   0.000000

     crystal axes: (cart. coord. in units of alat)
               a(1) = (   1.005008   0.000000   0.000000 )  
               a(2) = (   0.000000   0.995008   0.000000 )  
               a(3) = (   0.000000   0.000000   1.000008 )  

     reciprocal axes: (cart. coord. in units 2 pi/alat)
               b(1) = (  0.995017  0.000000  0.000000 )  
               b(2) = (  0.000000  1.005017  0.000000 )  
               b(3) = (  0.000000  0.000000  0.999992 )  


     PseudoPot. # 1 for Fe read from file:
     /rds/homes/b/bxp912/pp/Fe.pbe-spn-kjpaw_psl.1.0.0.UPF
     MD5 check sum: 42f43b795421b414b0dc916aa790dbcb
     Pseudo is Projector augmented-wave + core cor, Zval = 16.0
     Generated using "atomic" code by A. Dal Corso v.6.3
     Shape of augmentation charge: PSQ
     Using radial grid of 1191 points,  6 beta functions with: 
                l(1) =   0
                l(2) =   0
                l(3) =   1
                l(4) =   1
                l(5) =   2
                l(6) =   2
     Q(r) pseudized with 0 coefficients 


     atomic species   valence    mass     pseudopotential
        Fe            16.00    55.84500     Fe( 1.00)

      8 Sym. Ops., with inversion, found



   Cartesian axes

     site n.     atom                  positions (alat units)
         1           Fe  tau(   1) = (   0.0000000   0.0000000   0.0000000  )
         2           Fe  tau(   2) = (   0.2512611   0.2487609   0.2500110  )
         3           Fe  tau(   3) = (   0.0000000   0.0000000   0.5000037  )
         4           Fe  tau(   4) = (   0.2512611   0.2487609   0.7499973  )
         5           Fe  tau(   5) = (   0.0000000   0.4975042   0.0000000  )
         6           Fe  tau(   6) = (   0.2512611   0.7462475   0.2500110  )
         7           Fe  tau(   7) = (   0.0000000   0.4975042   0.5000037  )
         8           Fe  tau(   8) = (   0.2512611   0.7462475   0.7499973  )
         9           Fe  tau(   9) = (   0.5025043   0.0000000   0.0000000  )
        10           Fe  tau(  10) = (   0.7537474   0.2487609   0.2500110  )
        11           Fe  tau(  11) = (   0.5025043   0.0000000   0.5000037  )
        12           Fe  tau(  12) = (   0.7537474   0.2487609   0.7499973  )
        13           Fe  tau(  13) = (   0.5025043   0.4975042   0.0000000  )
        14           Fe  tau(  14) = (   0.7537474   0.7462475   0.2500110  )
        15           Fe  tau(  15) = (   0.5025043   0.4975042   0.5000037  )
        16           Fe  tau(  16) = (   0.7537474   0.7462475   0.7499973  )

     number of k points=   125  Marzari-Vanderbilt smearing, width (Ry)=  0.0400

     Number of k-points >= 100: set verbosity='high' to print them.

     Dense  grid:   169009 G-vectors     FFT dimensions: (  72,  72,  72)

     Smooth grid:    90741 G-vectors     FFT dimensions: (  60,  60,  60)

     Estimated max dynamical RAM per process >     116.52 MB

     Estimated total dynamical RAM >       4.55 GB

     Check: negative/imaginary core charge=   -0.000006    0.000000

     Initial potential from superposition of free atoms

     starting charge  255.99300, renormalised to  256.00000
     Starting wfcs are  160 randomized atomic wfcs
     Checking if some PAW data can be deallocated... 

     total cpu time spent up to now is       11.6 secs

     Self-consistent Calculation

     iteration #  1     ecut=    71.00 Ry     beta= 0.10
     Davidson diagonalization with overlap
     ethr =  1.00E-02,  avg # of iterations =  3.3

     Threshold (ethr) on eigenvalues was too large:
     Diagonalizing with lowered threshold

     Davidson diagonalization with overlap
     ethr =  2.52E-04,  avg # of iterations =  3.3

     total cpu time spent up to now is      102.1 secs

     total energy              =   -5267.75249955 Ry
     Harris-Foulkes estimate   =   -5267.86822119 Ry
     estimated scf accuracy    <       0.73367064 Ry

     iteration #  2     ecut=    71.00 Ry     beta= 0.10
     Davidson diagonalization with overlap
     ethr =  2.87E-04,  avg # of iterations =  1.0

     total cpu time spent up to now is      129.1 secs

     total energy              =   -5267.61813544 Ry
     Harris-Foulkes estimate   =   -5267.76771363 Ry
     estimated scf accuracy    <       0.36376192 Ry

     iteration #  3     ecut=    71.00 Ry     beta= 0.10
     Davidson diagonalization with overlap
     ethr =  1.42E-04,  avg # of iterations =  3.3

     total cpu time spent up to now is      180.7 secs

     total energy              =   -5267.69899811 Ry
     Harris-Foulkes estimate   =   -5267.72198278 Ry
     estimated scf accuracy    <       0.54635206 Ry

     iteration #  4     ecut=    71.00 Ry     beta= 0.10
     Davidson diagonalization with overlap
     ethr =  1.42E-04,  avg # of iterations =  1.0

     total cpu time spent up to now is      207.9 secs

     total energy              =   -5267.70560761 Ry
     Harris-Foulkes estimate   =   -5267.71129764 Ry
     estimated scf accuracy    <       0.03036595 Ry

     iteration #  5     ecut=    71.00 Ry     beta= 0.10
     Davidson diagonalization with overlap
     ethr =  1.19E-05,  avg # of iterations =  2.1

     total cpu time spent up to now is      242.1 secs

     total energy              =   -5267.70482302 Ry
     Harris-Foulkes estimate   =   -5267.70762259 Ry
     estimated scf accuracy    <       0.02266779 Ry

     iteration #  6     ecut=    71.00 Ry     beta= 0.10
     Davidson diagonalization with overlap
     ethr =  8.85E-06,  avg # of iterations =  3.0

     total cpu time spent up to now is      286.8 secs

     total energy              =   -5267.70746454 Ry
     Harris-Foulkes estimate   =   -5267.70771975 Ry
     estimated scf accuracy    <       0.01194971 Ry

     iteration #  7     ecut=    71.00 Ry     beta= 0.10
     Davidson diagonalization with overlap
     ethr =  4.67E-06,  avg # of iterations =  1.0

     total cpu time spent up to now is      313.7 secs

     total energy              =   -5267.70705332 Ry
     Harris-Foulkes estimate   =   -5267.70799252 Ry
     estimated scf accuracy    <       0.01446578 Ry

     iteration #  8     ecut=    71.00 Ry     beta= 0.10
     Davidson diagonalization with overlap
     ethr =  4.67E-06,  avg # of iterations =  1.2

     total cpu time spent up to now is      341.8 secs

     total energy              =   -5267.70756293 Ry
     Harris-Foulkes estimate   =   -5267.70766682 Ry
     estimated scf accuracy    <       0.00245072 Ry

     iteration #  9     ecut=    71.00 Ry     beta= 0.10
     Davidson diagonalization with overlap
     ethr =  9.57E-07,  avg # of iterations =  2.3

     total cpu time spent up to now is      376.8 secs

     total energy              =   -5267.70765874 Ry
     Harris-Foulkes estimate   =   -5267.70767545 Ry
     estimated scf accuracy    <       0.00049716 Ry

     iteration # 10     ecut=    71.00 Ry     beta= 0.10
     Davidson diagonalization with overlap
     ethr =  1.94E-07,  avg # of iterations =  1.9

     total cpu time spent up to now is      409.1 secs

     total energy              =   -5267.70765366 Ry
     Harris-Foulkes estimate   =   -5267.70767454 Ry
     estimated scf accuracy    <       0.00024608 Ry

     iteration # 11     ecut=    71.00 Ry     beta= 0.10
     Davidson diagonalization with overlap
     ethr =  9.61E-08,  avg # of iterations =  1.0

     total cpu time spent up to now is      436.4 secs

     total energy              =   -5267.70764267 Ry
     Harris-Foulkes estimate   =   -5267.70766698 Ry
     estimated scf accuracy    <       0.00020696 Ry

     iteration # 12     ecut=    71.00 Ry     beta= 0.10
     Davidson diagonalization with overlap
     ethr =  8.08E-08,  avg # of iterations =  1.0

     total cpu time spent up to now is      463.3 secs

     total energy              =   -5267.70764522 Ry
     Harris-Foulkes estimate   =   -5267.70765162 Ry
     estimated scf accuracy    <       0.00011999 Ry

     iteration # 13     ecut=    71.00 Ry     beta= 0.10
     Davidson diagonalization with overlap
     ethr =  4.69E-08,  avg # of iterations =  1.0

     total cpu time spent up to now is      490.4 secs

     End of self-consistent calculation

     Number of k-points >= 100: set verbosity='high' to print the bands.

     the Fermi energy is    20.5162 ev

!    total energy              =   -5267.70764641 Ry
     Harris-Foulkes estimate   =   -5267.70764928 Ry
     estimated scf accuracy    <       0.00000431 Ry

     total all-electron energy =    -40728.452175 Ry

     The total energy is the sum of the following terms:

     one-electron contribution =   -1620.04792189 Ry
     hartree contribution      =     989.15858135 Ry
     xc contribution           =    -442.98169991 Ry
     ewald contribution        =   -2868.94633232 Ry
     one-center paw contrib.   =   -1324.75986625 Ry
     smearing contrib. (-TS)   =      -0.13040739 Ry

     convergence has been achieved in  13 iterations

     Forces acting on atoms (cartesian axes, Ry/au):

     atom    1 type  1   force =     0.00000000    0.00000000    0.00000000
     atom    2 type  1   force =     0.00003668   -0.00014301    0.00005839
     atom    3 type  1   force =     0.00000000    0.00000000    0.00000000
     atom    4 type  1   force =     0.00003668   -0.00014301   -0.00005839
     atom    5 type  1   force =     0.00000000    0.00000000    0.00000000
     atom    6 type  1   force =     0.00003668    0.00014301    0.00005839
     atom    7 type  1   force =     0.00000000    0.00000000    0.00000000
     atom    8 type  1   force =     0.00003668    0.00014301   -0.00005839
     atom    9 type  1   force =     0.00000000    0.00000000    0.00000000
     atom   10 type  1   force =    -0.00003668   -0.00014301    0.00005839
     atom   11 type  1   force =     0.00000000    0.00000000    0.00000000
     atom   12 type  1   force =    -0.00003668   -0.00014301   -0.00005839
     atom   13 type  1   force =     0.00000000    0.00000000    0.00000000
     atom   14 type  1   force =    -0.00003668    0.00014301    0.00005839
     atom   15 type  1   force =     0.00000000    0.00000000    0.00000000
     atom   16 type  1   force =    -0.00003668    0.00014301   -0.00005839

     Total force =     0.000449     Total SCF correction =     0.004010
     SCF correction compared to forces is large: reduce conv_thr to get better values


     Computing stress (Cartesian axis) and pressure

          total   stress  (Ry/bohr**3)                   (kbar)     P=    1.66
   0.00009045   0.00000000   0.00000000         13.31      0.00      0.00
   0.00000000  -0.00006528   0.00000000          0.00     -9.60      0.00
   0.00000000   0.00000000   0.00000867          0.00      0.00      1.28


     Writing output data file XsfsOQWXFOvThacT.save/
 
     init_run     :     10.39s CPU     10.87s WALL (       1 calls)
     electrons    :    463.25s CPU    478.77s WALL (       1 calls)
     forces       :      3.83s CPU      4.18s WALL (       1 calls)
     stress       :     10.14s CPU     10.26s WALL (       1 calls)

     Called by init_run:
     wfcinit      :     10.12s CPU     10.52s WALL (       1 calls)
     potinit      :      0.10s CPU      0.13s WALL (       1 calls)
     hinit0       :      0.09s CPU      0.11s WALL (       1 calls)

     Called by electrons:
     c_bands      :    414.16s CPU    426.99s WALL (      14 calls)
     sum_band     :     47.68s CPU     50.05s WALL (      14 calls)
     v_of_rho     :      0.11s CPU      0.24s WALL (      14 calls)
     newd         :      0.21s CPU      0.26s WALL (      14 calls)
     PAW_pot      :      1.10s CPU      1.16s WALL (      14 calls)
     mix_rho      :      0.03s CPU      0.07s WALL (      14 calls)

     Called by c_bands:
     init_us_2    :      2.43s CPU      2.47s WALL (    3875 calls)
     cegterg      :    401.96s CPU    414.62s WALL (    1750 calls)

     Called by sum_band:
     sum_band:bec :      0.73s CPU      0.74s WALL (    1750 calls)
     addusdens    :      0.21s CPU      0.26s WALL (      14 calls)

     Called by *egterg:
     h_psi        :    183.60s CPU    191.49s WALL (    5184 calls)
     s_psi        :      9.98s CPU     10.05s WALL (    5184 calls)
     g_psi        :      0.40s CPU      0.41s WALL (    3309 calls)
     cdiaghg      :    170.58s CPU    171.12s WALL (    4934 calls)

     Called by h_psi:
     h_psi:pot    :    182.65s CPU    190.53s WALL (    5184 calls)
     h_psi:calbec :     14.93s CPU     17.48s WALL (    5184 calls)
     vloc_psi     :    157.64s CPU    162.91s WALL (    5184 calls)
     add_vuspsi   :     10.04s CPU     10.11s WALL (    5184 calls)

     General routines
     calbec       :     24.31s CPU     28.37s WALL (    7559 calls)
     fft          :      0.15s CPU      0.40s WALL (     207 calls)
     ffts         :      0.03s CPU      0.08s WALL (      28 calls)
     fftw         :    184.55s CPU    190.60s WALL ( 1451146 calls)
     interpolate  :      0.03s CPU      0.06s WALL (      14 calls)
 
     Parallel routines
     fft_scatt_xy :     12.57s CPU     12.96s WALL ( 1451381 calls)
     fft_scatt_yz :    122.80s CPU    127.18s WALL ( 1451381 calls)
 
     PWSCF        :  8m15.84s CPU     8m50.26s WALL

 
   This run was terminated on:  13:15:12   5Sep2020            

=------------------------------------------------------------------------------=
   JOB DONE.
=------------------------------------------------------------------------------=
