--------------------------------------------------------------------------
WARNING: There was an error initializing an OpenFabrics device.

  Local host:   bear-pg0211u07b
  Local device: mlx5_0
--------------------------------------------------------------------------

     Program PWSCF v.6.3 starts on  5Sep2020 at 12:48:30 

     This program is part of the open-source Quantum ESPRESSO suite
     for quantum simulation of materials; please cite
         "P. Giannozzi et al., J. Phys.:Condens. Matter 21 395502 (2009);
         "P. Giannozzi et al., J. Phys.:Condens. Matter 29 465901 (2017);
          URL http://www.quantum-espresso.org", 
     in publications or presentations arising from this work. More details at
     http://www.quantum-espresso.org/quote

     Parallel version (MPI & OpenMP), running on      40 processor cores
     Number of MPI processes:                40
     Threads/MPI process:                     1

     MPI processes distributed on     1 nodes
     R & G space division:  proc/nbgrp/npool/nimage =      40
     Reading input from wd/ec/ec_7_007.in
Warning: card &IONS ignored
Warning: card ION_DYNAMICS = 'BFGS', ignored
Warning: card / ignored
Warning: card &CELL ignored
Warning: card CELL_DYNAMICS = 'BFGS', ignored
Warning: card CELL_FACTOR = 2.0, ignored
Warning: card PRESS = 0.0, ignored
Warning: card / ignored

     Current dimensions of program PWSCF are:
     Max number of different atomic species (ntypx) = 10
     Max number of k-points (npk) =  40000
     Max angular momentum in pseudopotentials (lmaxx) =  3
               file Fe.pbe-spn-kjpaw_psl.1.0.0.UPF: wavefunction(s)  3P 3D renormalized

     Subspace diagonalization in iterative solution of the eigenvalue problem:
     a serial algorithm will be used

 
     Parallelization info
     --------------------
     sticks:   dense  smooth     PW     G-vecs:    dense   smooth      PW
     Min          92      61     17                 4224     2267     335
     Max          93      62     18                 4227     2271     341
     Sum        3701    2441    681               169021    90775   13569
 


     bravais-lattice index     =            0
     lattice parameter (alat)  =      10.3915  a.u.
     unit-cell volume          =    1122.0973 (a.u.)^3
     number of atoms/cell      =           16
     number of atomic types    =            1
     number of electrons       =       256.00
     number of Kohn-Sham states=          154
     kinetic-energy cutoff     =      71.0000  Ry
     charge density cutoff     =     430.0000  Ry
     convergence threshold     =      5.0E-05
     mixing beta               =       0.1000
     number of iterations used =           10  plain     mixing
     Exchange-correlation      = SLA PW PBX PBC ( 1  4  3  4 0 0)

     celldm(1)=  10.391466  celldm(2)=   0.000000  celldm(3)=   0.000000
     celldm(4)=   0.000000  celldm(5)=   0.000000  celldm(6)=   0.000000

     crystal axes: (cart. coord. in units of alat)
               a(1) = (   1.003755   0.000000   0.000000 )  
               a(2) = (   0.000000   0.996255   0.000000 )  
               a(3) = (   0.000000   0.000000   1.000005 )  

     reciprocal axes: (cart. coord. in units 2 pi/alat)
               b(1) = (  0.996259  0.000000  0.000000 )  
               b(2) = (  0.000000  1.003759  0.000000 )  
               b(3) = (  0.000000  0.000000  0.999995 )  


     PseudoPot. # 1 for Fe read from file:
     /rds/homes/b/bxp912/pp/Fe.pbe-spn-kjpaw_psl.1.0.0.UPF
     MD5 check sum: 42f43b795421b414b0dc916aa790dbcb
     Pseudo is Projector augmented-wave + core cor, Zval = 16.0
     Generated using "atomic" code by A. Dal Corso v.6.3
     Shape of augmentation charge: PSQ
     Using radial grid of 1191 points,  6 beta functions with: 
                l(1) =   0
                l(2) =   0
                l(3) =   1
                l(4) =   1
                l(5) =   2
                l(6) =   2
     Q(r) pseudized with 0 coefficients 


     atomic species   valence    mass     pseudopotential
        Fe            16.00    55.84500     Fe( 1.00)

      8 Sym. Ops., with inversion, found



   Cartesian axes

     site n.     atom                  positions (alat units)
         1           Fe  tau(   1) = (   0.0000000   0.0000000   0.0000000  )
         2           Fe  tau(   2) = (   0.2509476   0.2490725   0.2500101  )
         3           Fe  tau(   3) = (   0.0000000   0.0000000   0.5000018  )
         4           Fe  tau(   4) = (   0.2509476   0.2490725   0.7499946  )
         5           Fe  tau(   5) = (   0.0000000   0.4981274   0.0000000  )
         6           Fe  tau(   6) = (   0.2509476   0.7471822   0.2500101  )
         7           Fe  tau(   7) = (   0.0000000   0.4981274   0.5000018  )
         8           Fe  tau(   8) = (   0.2509476   0.7471822   0.7499946  )
         9           Fe  tau(   9) = (   0.5018775   0.0000000   0.0000000  )
        10           Fe  tau(  10) = (   0.7528072   0.2490725   0.2500101  )
        11           Fe  tau(  11) = (   0.5018775   0.0000000   0.5000018  )
        12           Fe  tau(  12) = (   0.7528072   0.2490725   0.7499946  )
        13           Fe  tau(  13) = (   0.5018775   0.4981274   0.0000000  )
        14           Fe  tau(  14) = (   0.7528072   0.7471822   0.2500101  )
        15           Fe  tau(  15) = (   0.5018775   0.4981274   0.5000018  )
        16           Fe  tau(  16) = (   0.7528072   0.7471822   0.7499946  )

     number of k points=   125  Marzari-Vanderbilt smearing, width (Ry)=  0.0400

     Number of k-points >= 100: set verbosity='high' to print them.

     Dense  grid:   169021 G-vectors     FFT dimensions: (  72,  72,  72)

     Smooth grid:    90775 G-vectors     FFT dimensions: (  60,  60,  60)

     Estimated max dynamical RAM per process >     116.52 MB

     Estimated total dynamical RAM >       4.55 GB

     Check: negative/imaginary core charge=   -0.000006    0.000000

     Initial potential from superposition of free atoms

     starting charge  255.99300, renormalised to  256.00000
     Starting wfcs are  160 randomized atomic wfcs
     Checking if some PAW data can be deallocated... 

     total cpu time spent up to now is       11.8 secs

     Self-consistent Calculation

     iteration #  1     ecut=    71.00 Ry     beta= 0.10
     Davidson diagonalization with overlap
     ethr =  1.00E-02,  avg # of iterations =  3.4

     Threshold (ethr) on eigenvalues was too large:
     Diagonalizing with lowered threshold

     Davidson diagonalization with overlap
     ethr =  2.52E-04,  avg # of iterations =  3.2

     total cpu time spent up to now is      102.2 secs

     total energy              =   -5267.75235936 Ry
     Harris-Foulkes estimate   =   -5267.86802564 Ry
     estimated scf accuracy    <       0.73335251 Ry

     iteration #  2     ecut=    71.00 Ry     beta= 0.10
     Davidson diagonalization with overlap
     ethr =  2.86E-04,  avg # of iterations =  1.0

     total cpu time spent up to now is      129.7 secs

     total energy              =   -5267.61801349 Ry
     Harris-Foulkes estimate   =   -5267.76754885 Ry
     estimated scf accuracy    <       0.36368201 Ry

     iteration #  3     ecut=    71.00 Ry     beta= 0.10
     Davidson diagonalization with overlap
     ethr =  1.42E-04,  avg # of iterations =  3.3

     total cpu time spent up to now is      181.1 secs

     total energy              =   -5267.69879903 Ry
     Harris-Foulkes estimate   =   -5267.72181753 Ry
     estimated scf accuracy    <       0.54725781 Ry

     iteration #  4     ecut=    71.00 Ry     beta= 0.10
     Davidson diagonalization with overlap
     ethr =  1.42E-04,  avg # of iterations =  1.0

     total cpu time spent up to now is      208.9 secs

     total energy              =   -5267.70541201 Ry
     Harris-Foulkes estimate   =   -5267.71111776 Ry
     estimated scf accuracy    <       0.03033324 Ry

     iteration #  5     ecut=    71.00 Ry     beta= 0.10
     Davidson diagonalization with overlap
     ethr =  1.18E-05,  avg # of iterations =  2.0

     total cpu time spent up to now is      242.4 secs

     total energy              =   -5267.70465105 Ry
     Harris-Foulkes estimate   =   -5267.70743548 Ry
     estimated scf accuracy    <       0.02270824 Ry

     iteration #  6     ecut=    71.00 Ry     beta= 0.10
     Davidson diagonalization with overlap
     ethr =  8.87E-06,  avg # of iterations =  3.0

     total cpu time spent up to now is      287.1 secs

     total energy              =   -5267.70728802 Ry
     Harris-Foulkes estimate   =   -5267.70754237 Ry
     estimated scf accuracy    <       0.01196236 Ry

     iteration #  7     ecut=    71.00 Ry     beta= 0.10
     Davidson diagonalization with overlap
     ethr =  4.67E-06,  avg # of iterations =  1.0

     total cpu time spent up to now is      314.5 secs

     total energy              =   -5267.70687355 Ry
     Harris-Foulkes estimate   =   -5267.70781313 Ry
     estimated scf accuracy    <       0.01439195 Ry

     iteration #  8     ecut=    71.00 Ry     beta= 0.10
     Davidson diagonalization with overlap
     ethr =  4.67E-06,  avg # of iterations =  1.1

     total cpu time spent up to now is      342.6 secs

     total energy              =   -5267.70738233 Ry
     Harris-Foulkes estimate   =   -5267.70748789 Ry
     estimated scf accuracy    <       0.00248709 Ry

     iteration #  9     ecut=    71.00 Ry     beta= 0.10
     Davidson diagonalization with overlap
     ethr =  9.72E-07,  avg # of iterations =  2.3

     total cpu time spent up to now is      377.4 secs

     total energy              =   -5267.70747995 Ry
     Harris-Foulkes estimate   =   -5267.70749665 Ry
     estimated scf accuracy    <       0.00050226 Ry

     iteration # 10     ecut=    71.00 Ry     beta= 0.10
     Davidson diagonalization with overlap
     ethr =  1.96E-07,  avg # of iterations =  2.0

     total cpu time spent up to now is      410.2 secs

     total energy              =   -5267.70747475 Ry
     Harris-Foulkes estimate   =   -5267.70749586 Ry
     estimated scf accuracy    <       0.00024676 Ry

     iteration # 11     ecut=    71.00 Ry     beta= 0.10
     Davidson diagonalization with overlap
     ethr =  9.64E-08,  avg # of iterations =  1.0

     total cpu time spent up to now is      437.6 secs

     total energy              =   -5267.70746097 Ry
     Harris-Foulkes estimate   =   -5267.70748813 Ry
     estimated scf accuracy    <       0.00020644 Ry

     iteration # 12     ecut=    71.00 Ry     beta= 0.10
     Davidson diagonalization with overlap
     ethr =  8.06E-08,  avg # of iterations =  1.0

     total cpu time spent up to now is      464.6 secs

     total energy              =   -5267.70746765 Ry
     Harris-Foulkes estimate   =   -5267.70747141 Ry
     estimated scf accuracy    <       0.00008019 Ry

     iteration # 13     ecut=    71.00 Ry     beta= 0.10
     Davidson diagonalization with overlap
     ethr =  3.13E-08,  avg # of iterations =  1.4

     total cpu time spent up to now is      493.8 secs

     End of self-consistent calculation

     Number of k-points >= 100: set verbosity='high' to print the bands.

     the Fermi energy is    20.5164 ev

!    total energy              =   -5267.70746772 Ry
     Harris-Foulkes estimate   =   -5267.70747055 Ry
     estimated scf accuracy    <       0.00000425 Ry

     total all-electron energy =    -40728.451997 Ry

     The total energy is the sum of the following terms:

     one-electron contribution =   -1620.04678722 Ry
     hartree contribution      =     989.16005663 Ry
     xc contribution           =    -442.98216965 Ry
     ewald contribution        =   -2868.94804957 Ry
     one-center paw contrib.   =   -1324.75993923 Ry
     smearing contrib. (-TS)   =      -0.13057867 Ry

     convergence has been achieved in  13 iterations

     Forces acting on atoms (cartesian axes, Ry/au):

     atom    1 type  1   force =     0.00000000    0.00000000    0.00000000
     atom    2 type  1   force =     0.00012556   -0.00021635    0.00008684
     atom    3 type  1   force =     0.00000000    0.00000000    0.00000000
     atom    4 type  1   force =     0.00012556   -0.00021635   -0.00008684
     atom    5 type  1   force =     0.00000000    0.00000000    0.00000000
     atom    6 type  1   force =     0.00012556    0.00021635    0.00008684
     atom    7 type  1   force =     0.00000000    0.00000000    0.00000000
     atom    8 type  1   force =     0.00012556    0.00021635   -0.00008684
     atom    9 type  1   force =     0.00000000    0.00000000    0.00000000
     atom   10 type  1   force =    -0.00012556   -0.00021635    0.00008684
     atom   11 type  1   force =     0.00000000    0.00000000    0.00000000
     atom   12 type  1   force =    -0.00012556   -0.00021635   -0.00008684
     atom   13 type  1   force =     0.00000000    0.00000000    0.00000000
     atom   14 type  1   force =    -0.00012556    0.00021635    0.00008684
     atom   15 type  1   force =     0.00000000    0.00000000    0.00000000
     atom   16 type  1   force =    -0.00012556    0.00021635   -0.00008684

     Total force =     0.000749     Total SCF correction =     0.003614
     SCF correction compared to forces is large: reduce conv_thr to get better values


     Computing stress (Cartesian axis) and pressure

          total   stress  (Ry/bohr**3)                   (kbar)     P=    2.31
   0.00007419   0.00000000   0.00000000         10.91      0.00      0.00
   0.00000000  -0.00004131   0.00000000          0.00     -6.08      0.00
   0.00000000   0.00000000   0.00001425          0.00      0.00      2.10


     Writing output data file juTigUNqGzcrdxni.save/
 
     init_run     :     10.50s CPU     11.03s WALL (       1 calls)
     electrons    :    466.32s CPU    481.97s WALL (       1 calls)
     forces       :      3.77s CPU      4.09s WALL (       1 calls)
     stress       :     10.07s CPU     10.20s WALL (       1 calls)

     Called by init_run:
     wfcinit      :     10.21s CPU     10.64s WALL (       1 calls)
     potinit      :      0.10s CPU      0.13s WALL (       1 calls)
     hinit0       :      0.12s CPU      0.17s WALL (       1 calls)

     Called by electrons:
     c_bands      :    417.94s CPU    430.81s WALL (      14 calls)
     sum_band     :     47.09s CPU     49.55s WALL (      14 calls)
     v_of_rho     :      0.13s CPU      0.27s WALL (      14 calls)
     newd         :      0.19s CPU      0.25s WALL (      14 calls)
     PAW_pot      :      0.99s CPU      1.06s WALL (      14 calls)
     mix_rho      :      0.03s CPU      0.07s WALL (      14 calls)

     Called by c_bands:
     init_us_2    :      2.53s CPU      2.58s WALL (    3875 calls)
     cegterg      :    406.04s CPU    418.76s WALL (    1750 calls)

     Called by sum_band:
     sum_band:bec :      0.72s CPU      0.74s WALL (    1750 calls)
     addusdens    :      0.21s CPU      0.26s WALL (      14 calls)

     Called by *egterg:
     h_psi        :    185.65s CPU    193.61s WALL (    5224 calls)
     s_psi        :     10.16s CPU     10.23s WALL (    5224 calls)
     g_psi        :      0.40s CPU      0.41s WALL (    3349 calls)
     cdiaghg      :    172.29s CPU    172.79s WALL (    4974 calls)

     Called by h_psi:
     h_psi:pot    :    184.67s CPU    192.61s WALL (    5224 calls)
     h_psi:calbec :     15.07s CPU     17.66s WALL (    5224 calls)
     vloc_psi     :    159.31s CPU    164.61s WALL (    5224 calls)
     add_vuspsi   :     10.24s CPU     10.31s WALL (    5224 calls)

     General routines
     calbec       :     23.99s CPU     28.13s WALL (    7599 calls)
     fft          :      0.15s CPU      0.40s WALL (     207 calls)
     ffts         :      0.02s CPU      0.07s WALL (      28 calls)
     fftw         :    185.74s CPU    191.84s WALL ( 1451282 calls)
     interpolate  :      0.02s CPU      0.04s WALL (      14 calls)
 
     Parallel routines
     fft_scatt_xy :     12.67s CPU     13.07s WALL ( 1451517 calls)
     fft_scatt_yz :    123.35s CPU    127.70s WALL ( 1451517 calls)
 
     PWSCF        :  8m18.93s CPU     8m53.21s WALL

 
   This run was terminated on:  12:57:24   5Sep2020            

=------------------------------------------------------------------------------=
   JOB DONE.
=------------------------------------------------------------------------------=
