--------------------------------------------------------------------------
WARNING: There was an error initializing an OpenFabrics device.

  Local host:   bear-pg0211u07b
  Local device: mlx5_0
--------------------------------------------------------------------------

     Program PWSCF v.6.3 starts on  5Sep2020 at 12:31: 7 

     This program is part of the open-source Quantum ESPRESSO suite
     for quantum simulation of materials; please cite
         "P. Giannozzi et al., J. Phys.:Condens. Matter 21 395502 (2009);
         "P. Giannozzi et al., J. Phys.:Condens. Matter 29 465901 (2017);
          URL http://www.quantum-espresso.org", 
     in publications or presentations arising from this work. More details at
     http://www.quantum-espresso.org/quote

     Parallel version (MPI & OpenMP), running on      40 processor cores
     Number of MPI processes:                40
     Threads/MPI process:                     1

     MPI processes distributed on     1 nodes
     R & G space division:  proc/nbgrp/npool/nimage =      40
     Reading input from wd/ec/ec_7_005.in
Warning: card &IONS ignored
Warning: card ION_DYNAMICS = 'BFGS', ignored
Warning: card / ignored
Warning: card &CELL ignored
Warning: card CELL_DYNAMICS = 'BFGS', ignored
Warning: card CELL_FACTOR = 2.0, ignored
Warning: card PRESS = 0.0, ignored
Warning: card / ignored

     Current dimensions of program PWSCF are:
     Max number of different atomic species (ntypx) = 10
     Max number of k-points (npk) =  40000
     Max angular momentum in pseudopotentials (lmaxx) =  3
               file Fe.pbe-spn-kjpaw_psl.1.0.0.UPF: wavefunction(s)  3P 3D renormalized

     Subspace diagonalization in iterative solution of the eigenvalue problem:
     a serial algorithm will be used

 
     Parallelization info
     --------------------
     sticks:   dense  smooth     PW     G-vecs:    dense   smooth      PW
     Min          92      61     17                 4224     2267     335
     Max          93      62     18                 4229     2271     341
     Sum        3705    2441    681               169037    90759   13573
 


     bravais-lattice index     =            0
     lattice parameter (alat)  =      10.3915  a.u.
     unit-cell volume          =    1122.0973 (a.u.)^3
     number of atoms/cell      =           16
     number of atomic types    =            1
     number of electrons       =       256.00
     number of Kohn-Sham states=          154
     kinetic-energy cutoff     =      71.0000  Ry
     charge density cutoff     =     430.0000  Ry
     convergence threshold     =      5.0E-05
     mixing beta               =       0.1000
     number of iterations used =           10  plain     mixing
     Exchange-correlation      = SLA PW PBX PBC ( 1  4  3  4 0 0)

     celldm(1)=  10.391466  celldm(2)=   0.000000  celldm(3)=   0.000000
     celldm(4)=   0.000000  celldm(5)=   0.000000  celldm(6)=   0.000000

     crystal axes: (cart. coord. in units of alat)
               a(1) = (   1.002502   0.000000   0.000000 )  
               a(2) = (   0.000000   0.997502   0.000000 )  
               a(3) = (   0.000000   0.000000   1.000002 )  

     reciprocal axes: (cart. coord. in units 2 pi/alat)
               b(1) = (  0.997504  0.000000  0.000000 )  
               b(2) = (  0.000000  1.002504  0.000000 )  
               b(3) = (  0.000000  0.000000  0.999998 )  


     PseudoPot. # 1 for Fe read from file:
     /rds/homes/b/bxp912/pp/Fe.pbe-spn-kjpaw_psl.1.0.0.UPF
     MD5 check sum: 42f43b795421b414b0dc916aa790dbcb
     Pseudo is Projector augmented-wave + core cor, Zval = 16.0
     Generated using "atomic" code by A. Dal Corso v.6.3
     Shape of augmentation charge: PSQ
     Using radial grid of 1191 points,  6 beta functions with: 
                l(1) =   0
                l(2) =   0
                l(3) =   1
                l(4) =   1
                l(5) =   2
                l(6) =   2
     Q(r) pseudized with 0 coefficients 


     atomic species   valence    mass     pseudopotential
        Fe            16.00    55.84500     Fe( 1.00)

      8 Sym. Ops., with inversion, found



   Cartesian axes

     site n.     atom                  positions (alat units)
         1           Fe  tau(   1) = (   0.0000000   0.0000000   0.0000000  )
         2           Fe  tau(   2) = (   0.2506345   0.2493844   0.2500094  )
         3           Fe  tau(   3) = (   0.0000000   0.0000000   0.5000005  )
         4           Fe  tau(   4) = (   0.2506345   0.2493844   0.7499927  )
         5           Fe  tau(   5) = (   0.0000000   0.4987511   0.0000000  )
         6           Fe  tau(   6) = (   0.2506345   0.7481178   0.2500094  )
         7           Fe  tau(   7) = (   0.0000000   0.4987511   0.5000005  )
         8           Fe  tau(   8) = (   0.2506345   0.7481178   0.7499927  )
         9           Fe  tau(   9) = (   0.5012511   0.0000000   0.0000000  )
        10           Fe  tau(  10) = (   0.7518677   0.2493844   0.2500094  )
        11           Fe  tau(  11) = (   0.5012511   0.0000000   0.5000005  )
        12           Fe  tau(  12) = (   0.7518677   0.2493844   0.7499927  )
        13           Fe  tau(  13) = (   0.5012511   0.4987511   0.0000000  )
        14           Fe  tau(  14) = (   0.7518677   0.7481178   0.2500094  )
        15           Fe  tau(  15) = (   0.5012511   0.4987511   0.5000005  )
        16           Fe  tau(  16) = (   0.7518677   0.7481178   0.7499927  )

     number of k points=   125  Marzari-Vanderbilt smearing, width (Ry)=  0.0400

     Number of k-points >= 100: set verbosity='high' to print them.

     Dense  grid:   169037 G-vectors     FFT dimensions: (  72,  72,  72)

     Smooth grid:    90759 G-vectors     FFT dimensions: (  60,  60,  60)

     Estimated max dynamical RAM per process >     116.53 MB

     Estimated total dynamical RAM >       4.55 GB

     Check: negative/imaginary core charge=   -0.000006    0.000000

     Initial potential from superposition of free atoms

     starting charge  255.99300, renormalised to  256.00000
     Starting wfcs are  160 randomized atomic wfcs
     Checking if some PAW data can be deallocated... 

     total cpu time spent up to now is       11.8 secs

     Self-consistent Calculation

     iteration #  1     ecut=    71.00 Ry     beta= 0.10
     Davidson diagonalization with overlap
     ethr =  1.00E-02,  avg # of iterations =  3.3

     Threshold (ethr) on eigenvalues was too large:
     Diagonalizing with lowered threshold

     Davidson diagonalization with overlap
     ethr =  2.51E-04,  avg # of iterations =  3.2

     total cpu time spent up to now is      102.4 secs

     total energy              =   -5267.75221862 Ry
     Harris-Foulkes estimate   =   -5267.86785187 Ry
     estimated scf accuracy    <       0.73315934 Ry

     iteration #  2     ecut=    71.00 Ry     beta= 0.10
     Davidson diagonalization with overlap
     ethr =  2.86E-04,  avg # of iterations =  1.0

     total cpu time spent up to now is      129.5 secs

     total energy              =   -5267.61782358 Ry
     Harris-Foulkes estimate   =   -5267.76741576 Ry
     estimated scf accuracy    <       0.36369574 Ry

     iteration #  3     ecut=    71.00 Ry     beta= 0.10
     Davidson diagonalization with overlap
     ethr =  1.42E-04,  avg # of iterations =  3.2

     total cpu time spent up to now is      181.1 secs

     total energy              =   -5267.69868668 Ry
     Harris-Foulkes estimate   =   -5267.72169173 Ry
     estimated scf accuracy    <       0.54695380 Ry

     iteration #  4     ecut=    71.00 Ry     beta= 0.10
     Davidson diagonalization with overlap
     ethr =  1.42E-04,  avg # of iterations =  1.0

     total cpu time spent up to now is      208.2 secs

     total energy              =   -5267.70526095 Ry
     Harris-Foulkes estimate   =   -5267.71099636 Ry
     estimated scf accuracy    <       0.03036466 Ry

     iteration #  5     ecut=    71.00 Ry     beta= 0.10
     Davidson diagonalization with overlap
     ethr =  1.19E-05,  avg # of iterations =  2.0

     total cpu time spent up to now is      241.9 secs

     total energy              =   -5267.70452875 Ry
     Harris-Foulkes estimate   =   -5267.70729812 Ry
     estimated scf accuracy    <       0.02274267 Ry

     iteration #  6     ecut=    71.00 Ry     beta= 0.10
     Davidson diagonalization with overlap
     ethr =  8.88E-06,  avg # of iterations =  3.0

     total cpu time spent up to now is      286.5 secs

     total energy              =   -5267.70714241 Ry
     Harris-Foulkes estimate   =   -5267.70740538 Ry
     estimated scf accuracy    <       0.01194771 Ry

     iteration #  7     ecut=    71.00 Ry     beta= 0.10
     Davidson diagonalization with overlap
     ethr =  4.67E-06,  avg # of iterations =  1.0

     total cpu time spent up to now is      314.0 secs

     total energy              =   -5267.70674306 Ry
     Harris-Foulkes estimate   =   -5267.70767572 Ry
     estimated scf accuracy    <       0.01451992 Ry

     iteration #  8     ecut=    71.00 Ry     beta= 0.10
     Davidson diagonalization with overlap
     ethr =  4.67E-06,  avg # of iterations =  1.2

     total cpu time spent up to now is      342.5 secs

     total energy              =   -5267.70725303 Ry
     Harris-Foulkes estimate   =   -5267.70735498 Ry
     estimated scf accuracy    <       0.00242900 Ry

     iteration #  9     ecut=    71.00 Ry     beta= 0.10
     Davidson diagonalization with overlap
     ethr =  9.49E-07,  avg # of iterations =  2.3

     total cpu time spent up to now is      377.4 secs

     total energy              =   -5267.70734714 Ry
     Harris-Foulkes estimate   =   -5267.70736397 Ry
     estimated scf accuracy    <       0.00050863 Ry

     iteration # 10     ecut=    71.00 Ry     beta= 0.10
     Davidson diagonalization with overlap
     ethr =  1.99E-07,  avg # of iterations =  1.9

     total cpu time spent up to now is      410.1 secs

     total energy              =   -5267.70734161 Ry
     Harris-Foulkes estimate   =   -5267.70736293 Ry
     estimated scf accuracy    <       0.00024607 Ry

     iteration # 11     ecut=    71.00 Ry     beta= 0.10
     Davidson diagonalization with overlap
     ethr =  9.61E-08,  avg # of iterations =  1.1

     total cpu time spent up to now is      437.9 secs

     total energy              =   -5267.70732583 Ry
     Harris-Foulkes estimate   =   -5267.70735500 Ry
     estimated scf accuracy    <       0.00020541 Ry

     iteration # 12     ecut=    71.00 Ry     beta= 0.10
     Davidson diagonalization with overlap
     ethr =  8.02E-08,  avg # of iterations =  1.0

     total cpu time spent up to now is      465.1 secs

     End of self-consistent calculation

     Number of k-points >= 100: set verbosity='high' to print the bands.

     the Fermi energy is    20.5159 ev

!    total energy              =   -5267.70729808 Ry
     Harris-Foulkes estimate   =   -5267.70733750 Ry
     estimated scf accuracy    <       0.00004258 Ry

     total all-electron energy =    -40728.451827 Ry

     The total energy is the sum of the following terms:

     one-electron contribution =   -1620.08605108 Ry
     hartree contribution      =     989.20760275 Ry
     xc contribution           =    -442.98901611 Ry
     ewald contribution        =   -2868.94927554 Ry
     one-center paw contrib.   =   -1324.75985037 Ry
     smearing contrib. (-TS)   =      -0.13070774 Ry

     convergence has been achieved in  12 iterations

     Forces acting on atoms (cartesian axes, Ry/au):

     atom    1 type  1   force =     0.00000000    0.00000000    0.00000000
     atom    2 type  1   force =     0.00050996   -0.00044347    0.00008092
     atom    3 type  1   force =     0.00000000    0.00000000    0.00000000
     atom    4 type  1   force =     0.00050996   -0.00044347   -0.00008092
     atom    5 type  1   force =     0.00000000    0.00000000    0.00000000
     atom    6 type  1   force =     0.00050996    0.00044347    0.00008092
     atom    7 type  1   force =     0.00000000    0.00000000    0.00000000
     atom    8 type  1   force =     0.00050996    0.00044347   -0.00008092
     atom    9 type  1   force =     0.00000000    0.00000000    0.00000000
     atom   10 type  1   force =    -0.00050996   -0.00044347    0.00008092
     atom   11 type  1   force =     0.00000000    0.00000000    0.00000000
     atom   12 type  1   force =    -0.00050996   -0.00044347   -0.00008092
     atom   13 type  1   force =     0.00000000    0.00000000    0.00000000
     atom   14 type  1   force =    -0.00050996    0.00044347    0.00008092
     atom   15 type  1   force =     0.00000000    0.00000000    0.00000000
     atom   16 type  1   force =    -0.00050996    0.00044347   -0.00008092

     Total force =     0.001925     Total SCF correction =     0.010897
     SCF correction compared to forces is large: reduce conv_thr to get better values


     Computing stress (Cartesian axis) and pressure

          total   stress  (Ry/bohr**3)                   (kbar)     P=    9.08
   0.00009980   0.00000000   0.00000000         14.68      0.00      0.00
   0.00000000   0.00002429   0.00000000          0.00      3.57      0.00
   0.00000000   0.00000000   0.00006105          0.00      0.00      8.98


     Writing output data file XiIdoJYpgBlxHTBA.save/
 
     init_run     :     10.53s CPU     11.08s WALL (       1 calls)
     electrons    :    438.60s CPU    453.29s WALL (       1 calls)
     forces       :      3.87s CPU      4.27s WALL (       1 calls)
     stress       :     10.19s CPU     10.33s WALL (       1 calls)

     Called by init_run:
     wfcinit      :     10.24s CPU     10.70s WALL (       1 calls)
     potinit      :      0.11s CPU      0.14s WALL (       1 calls)
     hinit0       :      0.11s CPU      0.16s WALL (       1 calls)

     Called by electrons:
     c_bands      :    393.27s CPU    405.37s WALL (      13 calls)
     sum_band     :     44.11s CPU     46.43s WALL (      13 calls)
     v_of_rho     :      0.14s CPU      0.25s WALL (      13 calls)
     newd         :      0.19s CPU      0.24s WALL (      13 calls)
     PAW_pot      :      0.93s CPU      0.97s WALL (      13 calls)
     mix_rho      :      0.03s CPU      0.07s WALL (      13 calls)

     Called by c_bands:
     init_us_2    :      2.30s CPU      2.36s WALL (    3625 calls)
     cegterg      :    382.07s CPU    394.02s WALL (    1625 calls)

     Called by sum_band:
     sum_band:bec :      0.65s CPU      0.66s WALL (    1625 calls)
     addusdens    :      0.20s CPU      0.24s WALL (      13 calls)

     Called by *egterg:
     h_psi        :    174.38s CPU    181.83s WALL (    4917 calls)
     s_psi        :      9.61s CPU      9.66s WALL (    4917 calls)
     g_psi        :      0.38s CPU      0.39s WALL (    3167 calls)
     cdiaghg      :    163.23s CPU    163.73s WALL (    4667 calls)

     Called by h_psi:
     h_psi:pot    :    173.45s CPU    180.89s WALL (    4917 calls)
     h_psi:calbec :     14.02s CPU     16.44s WALL (    4917 calls)
     vloc_psi     :    149.70s CPU    154.66s WALL (    4917 calls)
     add_vuspsi   :      9.69s CPU      9.76s WALL (    4917 calls)

     General routines
     calbec       :     22.62s CPU     26.56s WALL (    7167 calls)
     fft          :      0.20s CPU      0.42s WALL (     194 calls)
     ffts         :      0.01s CPU      0.06s WALL (      26 calls)
     fftw         :    174.55s CPU    180.27s WALL ( 1354752 calls)
     interpolate  :      0.01s CPU      0.04s WALL (      13 calls)
 
     Parallel routines
     fft_scatt_xy :     12.04s CPU     12.44s WALL ( 1354972 calls)
     fft_scatt_yz :    116.26s CPU    120.34s WALL ( 1354972 calls)
 
     PWSCF        :  7m51.38s CPU     8m25.92s WALL

 
   This run was terminated on:  12:39:33   5Sep2020            

=------------------------------------------------------------------------------=
   JOB DONE.
=------------------------------------------------------------------------------=
