
     Program PWSCF v.6.3 starts on  5Sep2020 at 14: 7: 8 

     This program is part of the open-source Quantum ESPRESSO suite
     for quantum simulation of materials; please cite
         "P. Giannozzi et al., J. Phys.:Condens. Matter 21 395502 (2009);
         "P. Giannozzi et al., J. Phys.:Condens. Matter 29 465901 (2017);
          URL http://www.quantum-espresso.org", 
     in publications or presentations arising from this work. More details at
     http://www.quantum-espresso.org/quote

     Parallel version (MPI & OpenMP), running on      40 processor cores
     Number of MPI processes:                40
     Threads/MPI process:                     1

     MPI processes distributed on     1 nodes
     R & G space division:  proc/nbgrp/npool/nimage =      40
     Reading input from wd/ec/ec_8_008.in
Warning: card &IONS ignored
Warning: card ION_DYNAMICS = 'BFGS', ignored
Warning: card / ignored
Warning: card &CELL ignored
Warning: card CELL_DYNAMICS = 'BFGS', ignored
Warning: card CELL_FACTOR = 2.0, ignored
Warning: card PRESS = 0.0, ignored
Warning: card / ignored

     Current dimensions of program PWSCF are:
     Max number of different atomic species (ntypx) = 10
     Max number of k-points (npk) =  40000
     Max angular momentum in pseudopotentials (lmaxx) =  3
               file Fe.pbe-spn-kjpaw_psl.1.0.0.UPF: wavefunction(s)  3P 3D renormalized

     Subspace diagonalization in iterative solution of the eigenvalue problem:
     a serial algorithm will be used

 
     Parallelization info
     --------------------
     sticks:   dense  smooth     PW     G-vecs:    dense   smooth      PW
     Min          92      61     17                 4222     2269     337
     Max          93      62     18                 4227     2274     341
     Sum        3709    2445    681               169005    90779   13569
 


     bravais-lattice index     =            0
     lattice parameter (alat)  =      10.3915  a.u.
     unit-cell volume          =    1122.0973 (a.u.)^3
     number of atoms/cell      =           16
     number of atomic types    =            1
     number of electrons       =       256.00
     number of Kohn-Sham states=          154
     kinetic-energy cutoff     =      71.0000  Ry
     charge density cutoff     =     430.0000  Ry
     convergence threshold     =      5.0E-05
     mixing beta               =       0.1000
     number of iterations used =           10  plain     mixing
     Exchange-correlation      = SLA PW PBX PBC ( 1  4  3  4 0 0)

     celldm(1)=  10.391466  celldm(2)=   0.000000  celldm(3)=   0.000000
     celldm(4)=   0.000000  celldm(5)=   0.000000  celldm(6)=   0.000000

     crystal axes: (cart. coord. in units of alat)
               a(1) = (   1.004381   0.000000   0.000000 )  
               a(2) = (   0.000000   1.000006   0.000000 )  
               a(3) = (   0.000000   0.000000   0.995631 )  

     reciprocal axes: (cart. coord. in units 2 pi/alat)
               b(1) = (  0.995638  0.000000  0.000000 )  
               b(2) = (  0.000000  0.999994  0.000000 )  
               b(3) = (  0.000000  0.000000  1.004388 )  


     PseudoPot. # 1 for Fe read from file:
     /rds/homes/b/bxp912/pp/Fe.pbe-spn-kjpaw_psl.1.0.0.UPF
     MD5 check sum: 42f43b795421b414b0dc916aa790dbcb
     Pseudo is Projector augmented-wave + core cor, Zval = 16.0
     Generated using "atomic" code by A. Dal Corso v.6.3
     Shape of augmentation charge: PSQ
     Using radial grid of 1191 points,  6 beta functions with: 
                l(1) =   0
                l(2) =   0
                l(3) =   1
                l(4) =   1
                l(5) =   2
                l(6) =   2
     Q(r) pseudized with 0 coefficients 


     atomic species   valence    mass     pseudopotential
        Fe            16.00    55.84500     Fe( 1.00)

      8 Sym. Ops., with inversion, found



   Cartesian axes

     site n.     atom                  positions (alat units)
         1           Fe  tau(   1) = (   0.0000000   0.0000000   0.0000000  )
         2           Fe  tau(   2) = (   0.2511043   0.2500105   0.2489167  )
         3           Fe  tau(   3) = (   0.0000000   0.0000000   0.4978152  )
         4           Fe  tau(   4) = (   0.2511043   0.2500105   0.7467146  )
         5           Fe  tau(   5) = (   0.0000000   0.5000033   0.0000000  )
         6           Fe  tau(   6) = (   0.2511043   0.7499960   0.2489167  )
         7           Fe  tau(   7) = (   0.0000000   0.5000033   0.4978152  )
         8           Fe  tau(   8) = (   0.2511043   0.7499960   0.7467146  )
         9           Fe  tau(   9) = (   0.5021908   0.0000000   0.0000000  )
        10           Fe  tau(  10) = (   0.7532772   0.2500105   0.2489167  )
        11           Fe  tau(  11) = (   0.5021908   0.0000000   0.4978152  )
        12           Fe  tau(  12) = (   0.7532772   0.2500105   0.7467146  )
        13           Fe  tau(  13) = (   0.5021908   0.5000033   0.0000000  )
        14           Fe  tau(  14) = (   0.7532772   0.7499960   0.2489167  )
        15           Fe  tau(  15) = (   0.5021908   0.5000033   0.4978152  )
        16           Fe  tau(  16) = (   0.7532772   0.7499960   0.7467146  )

     number of k points=   125  Marzari-Vanderbilt smearing, width (Ry)=  0.0400

     Number of k-points >= 100: set verbosity='high' to print them.

     Dense  grid:   169005 G-vectors     FFT dimensions: (  72,  72,  72)

     Smooth grid:    90779 G-vectors     FFT dimensions: (  60,  60,  60)

     Estimated max dynamical RAM per process >     116.52 MB

     Estimated total dynamical RAM >       4.55 GB

     Check: negative/imaginary core charge=   -0.000006    0.000000

     Initial potential from superposition of free atoms

     starting charge  255.99300, renormalised to  256.00000
     Starting wfcs are  160 randomized atomic wfcs
     Checking if some PAW data can be deallocated... 

     total cpu time spent up to now is       11.9 secs

     Self-consistent Calculation

     iteration #  1     ecut=    71.00 Ry     beta= 0.10
     Davidson diagonalization with overlap
     ethr =  1.00E-02,  avg # of iterations =  3.4

     Threshold (ethr) on eigenvalues was too large:
     Diagonalizing with lowered threshold

     Davidson diagonalization with overlap
     ethr =  2.51E-04,  avg # of iterations =  3.2

     total cpu time spent up to now is      103.7 secs

     total energy              =   -5267.75245197 Ry
     Harris-Foulkes estimate   =   -5267.86814737 Ry
     estimated scf accuracy    <       0.73351662 Ry

     iteration #  2     ecut=    71.00 Ry     beta= 0.10
     Davidson diagonalization with overlap
     ethr =  2.87E-04,  avg # of iterations =  1.0

     total cpu time spent up to now is      131.1 secs

     total energy              =   -5267.61816281 Ry
     Harris-Foulkes estimate   =   -5267.76762668 Ry
     estimated scf accuracy    <       0.36382994 Ry

     iteration #  3     ecut=    71.00 Ry     beta= 0.10
     Davidson diagonalization with overlap
     ethr =  1.42E-04,  avg # of iterations =  3.3

     total cpu time spent up to now is      182.9 secs

     total energy              =   -5267.69870003 Ry
     Harris-Foulkes estimate   =   -5267.72204795 Ry
     estimated scf accuracy    <       0.55688521 Ry

     iteration #  4     ecut=    71.00 Ry     beta= 0.10
     Davidson diagonalization with overlap
     ethr =  1.42E-04,  avg # of iterations =  1.0

     total cpu time spent up to now is      210.2 secs

     total energy              =   -5267.70551930 Ry
     Harris-Foulkes estimate   =   -5267.71120639 Ry
     estimated scf accuracy    <       0.03041786 Ry

     iteration #  5     ecut=    71.00 Ry     beta= 0.10
     Davidson diagonalization with overlap
     ethr =  1.19E-05,  avg # of iterations =  2.0

     total cpu time spent up to now is      243.9 secs

     total energy              =   -5267.70470076 Ry
     Harris-Foulkes estimate   =   -5267.70753140 Ry
     estimated scf accuracy    <       0.02276778 Ry

     iteration #  6     ecut=    71.00 Ry     beta= 0.10
     Davidson diagonalization with overlap
     ethr =  8.89E-06,  avg # of iterations =  3.1

     total cpu time spent up to now is      289.2 secs

     total energy              =   -5267.70737333 Ry
     Harris-Foulkes estimate   =   -5267.70762360 Ry
     estimated scf accuracy    <       0.01197278 Ry

     iteration #  7     ecut=    71.00 Ry     beta= 0.10
     Davidson diagonalization with overlap
     ethr =  4.68E-06,  avg # of iterations =  1.0

     total cpu time spent up to now is      316.8 secs

     total energy              =   -5267.70693851 Ry
     Harris-Foulkes estimate   =   -5267.70790981 Ry
     estimated scf accuracy    <       0.01516543 Ry

     iteration #  8     ecut=    71.00 Ry     beta= 0.10
     Davidson diagonalization with overlap
     ethr =  4.68E-06,  avg # of iterations =  1.2

     total cpu time spent up to now is      345.3 secs

     total energy              =   -5267.70746559 Ry
     Harris-Foulkes estimate   =   -5267.70756733 Ry
     estimated scf accuracy    <       0.00240715 Ry

     iteration #  9     ecut=    71.00 Ry     beta= 0.10
     Davidson diagonalization with overlap
     ethr =  9.40E-07,  avg # of iterations =  2.4

     total cpu time spent up to now is      381.1 secs

     total energy              =   -5267.70756155 Ry
     Harris-Foulkes estimate   =   -5267.70757862 Ry
     estimated scf accuracy    <       0.00051632 Ry

     iteration # 10     ecut=    71.00 Ry     beta= 0.10
     Davidson diagonalization with overlap
     ethr =  2.02E-07,  avg # of iterations =  1.8

     total cpu time spent up to now is      413.2 secs

     total energy              =   -5267.70755602 Ry
     Harris-Foulkes estimate   =   -5267.70757750 Ry
     estimated scf accuracy    <       0.00024943 Ry

     iteration # 11     ecut=    71.00 Ry     beta= 0.10
     Davidson diagonalization with overlap
     ethr =  9.74E-08,  avg # of iterations =  1.0

     total cpu time spent up to now is      440.6 secs

     total energy              =   -5267.70754185 Ry
     Harris-Foulkes estimate   =   -5267.70756963 Ry
     estimated scf accuracy    <       0.00020904 Ry

     iteration # 12     ecut=    71.00 Ry     beta= 0.10
     Davidson diagonalization with overlap
     ethr =  8.17E-08,  avg # of iterations =  1.0

     total cpu time spent up to now is      467.8 secs

     total energy              =   -5267.70754952 Ry
     Harris-Foulkes estimate   =   -5267.70755271 Ry
     estimated scf accuracy    <       0.00007097 Ry

     iteration # 13     ecut=    71.00 Ry     beta= 0.10
     Davidson diagonalization with overlap
     ethr =  2.77E-08,  avg # of iterations =  1.5

     total cpu time spent up to now is      498.4 secs

     End of self-consistent calculation

     Number of k-points >= 100: set verbosity='high' to print the bands.

     the Fermi energy is    20.5162 ev

!    total energy              =   -5267.70754905 Ry
     Harris-Foulkes estimate   =   -5267.70755204 Ry
     estimated scf accuracy    <       0.00000451 Ry

     total all-electron energy =    -40728.452078 Ry

     The total energy is the sum of the following terms:

     one-electron contribution =   -1620.05258251 Ry
     hartree contribution      =     989.16562741 Ry
     xc contribution           =    -442.98284539 Ry
     ewald contribution        =   -2868.94725241 Ry
     one-center paw contrib.   =   -1324.75999646 Ry
     smearing contrib. (-TS)   =      -0.13049969 Ry

     convergence has been achieved in  13 iterations

     Forces acting on atoms (cartesian axes, Ry/au):

     atom    1 type  1   force =     0.00000000    0.00000000    0.00000000
     atom    2 type  1   force =     0.00013238   -0.00023168    0.00007417
     atom    3 type  1   force =     0.00000000    0.00000000    0.00000000
     atom    4 type  1   force =     0.00013238   -0.00023168   -0.00007417
     atom    5 type  1   force =     0.00000000    0.00000000    0.00000000
     atom    6 type  1   force =     0.00013238    0.00023168    0.00007417
     atom    7 type  1   force =     0.00000000    0.00000000    0.00000000
     atom    8 type  1   force =     0.00013238    0.00023168   -0.00007417
     atom    9 type  1   force =     0.00000000    0.00000000    0.00000000
     atom   10 type  1   force =    -0.00013238   -0.00023168    0.00007417
     atom   11 type  1   force =     0.00000000    0.00000000    0.00000000
     atom   12 type  1   force =    -0.00013238   -0.00023168   -0.00007417
     atom   13 type  1   force =     0.00000000    0.00000000    0.00000000
     atom   14 type  1   force =    -0.00013238    0.00023168    0.00007417
     atom   15 type  1   force =     0.00000000    0.00000000    0.00000000
     atom   16 type  1   force =    -0.00013238    0.00023168   -0.00007417

     Total force =     0.000783     Total SCF correction =     0.003077
     SCF correction compared to forces is large: reduce conv_thr to get better values


     Computing stress (Cartesian axis) and pressure

          total   stress  (Ry/bohr**3)                   (kbar)     P=    3.26
   0.00009109   0.00000000   0.00000000         13.40      0.00      0.00
   0.00000000   0.00002225   0.00000000          0.00      3.27      0.00
   0.00000000   0.00000000  -0.00004686          0.00      0.00     -6.89


     Writing output data file KUXiJqrqFFOGEyvC.save/
 
     init_run     :     10.66s CPU     11.19s WALL (       1 calls)
     electrons    :    470.31s CPU    486.43s WALL (       1 calls)
     forces       :      3.79s CPU      4.18s WALL (       1 calls)
     stress       :      9.82s CPU      9.99s WALL (       1 calls)

     Called by init_run:
     wfcinit      :     10.35s CPU     10.82s WALL (       1 calls)
     potinit      :      0.09s CPU      0.12s WALL (       1 calls)
     hinit0       :      0.13s CPU      0.14s WALL (       1 calls)

     Called by electrons:
     c_bands      :    421.51s CPU    434.72s WALL (      14 calls)
     sum_band     :     47.43s CPU     50.05s WALL (      14 calls)
     v_of_rho     :      0.15s CPU      0.28s WALL (      14 calls)
     newd         :      0.20s CPU      0.25s WALL (      14 calls)
     PAW_pot      :      1.03s CPU      1.09s WALL (      14 calls)
     mix_rho      :      0.04s CPU      0.07s WALL (      14 calls)

     Called by c_bands:
     init_us_2    :      2.52s CPU      2.56s WALL (    3875 calls)
     cegterg      :    409.44s CPU    422.50s WALL (    1750 calls)

     Called by sum_band:
     sum_band:bec :      0.69s CPU      0.70s WALL (    1750 calls)
     addusdens    :      0.20s CPU      0.26s WALL (      14 calls)

     Called by *egterg:
     h_psi        :    187.30s CPU    195.44s WALL (    5241 calls)
     s_psi        :     10.05s CPU     10.14s WALL (    5241 calls)
     g_psi        :      0.40s CPU      0.41s WALL (    3366 calls)
     cdiaghg      :    173.67s CPU    174.37s WALL (    4991 calls)

     Called by h_psi:
     h_psi:pot    :    186.28s CPU    194.38s WALL (    5241 calls)
     h_psi:calbec :     15.08s CPU     17.65s WALL (    5241 calls)
     vloc_psi     :    161.09s CPU    166.54s WALL (    5241 calls)
     add_vuspsi   :     10.07s CPU     10.15s WALL (    5241 calls)

     General routines
     calbec       :     23.97s CPU     28.21s WALL (    7616 calls)
     fft          :      0.14s CPU      0.38s WALL (     207 calls)
     ffts         :      0.02s CPU      0.07s WALL (      28 calls)
     fftw         :    187.92s CPU    194.30s WALL ( 1451432 calls)
     interpolate  :      0.02s CPU      0.05s WALL (      14 calls)
 
     Parallel routines
     fft_scatt_xy :     12.61s CPU     13.03s WALL ( 1451667 calls)
     fft_scatt_yz :    125.61s CPU    130.20s WALL ( 1451667 calls)
 
     PWSCF        :  8m22.84s CPU     8m58.31s WALL

 
   This run was terminated on:  14:16: 6   5Sep2020            

=------------------------------------------------------------------------------=
   JOB DONE.
=------------------------------------------------------------------------------=
