--------------------------------------------------------------------------
WARNING: There was an error initializing an OpenFabrics device.

  Local host:   bear-pg0211u07b
  Local device: mlx5_0
--------------------------------------------------------------------------

     Program PWSCF v.6.3 starts on  5Sep2020 at 13:40:36 

     This program is part of the open-source Quantum ESPRESSO suite
     for quantum simulation of materials; please cite
         "P. Giannozzi et al., J. Phys.:Condens. Matter 21 395502 (2009);
         "P. Giannozzi et al., J. Phys.:Condens. Matter 29 465901 (2017);
          URL http://www.quantum-espresso.org", 
     in publications or presentations arising from this work. More details at
     http://www.quantum-espresso.org/quote

     Parallel version (MPI & OpenMP), running on      40 processor cores
     Number of MPI processes:                40
     Threads/MPI process:                     1

     MPI processes distributed on     1 nodes
     R & G space division:  proc/nbgrp/npool/nimage =      40
     Reading input from wd/ec/ec_8_005.in
Warning: card &IONS ignored
Warning: card ION_DYNAMICS = 'BFGS', ignored
Warning: card / ignored
Warning: card &CELL ignored
Warning: card CELL_DYNAMICS = 'BFGS', ignored
Warning: card CELL_FACTOR = 2.0, ignored
Warning: card PRESS = 0.0, ignored
Warning: card / ignored

     Current dimensions of program PWSCF are:
     Max number of different atomic species (ntypx) = 10
     Max number of k-points (npk) =  40000
     Max angular momentum in pseudopotentials (lmaxx) =  3
               file Fe.pbe-spn-kjpaw_psl.1.0.0.UPF: wavefunction(s)  3P 3D renormalized

     Subspace diagonalization in iterative solution of the eigenvalue problem:
     a serial algorithm will be used

 
     Parallelization info
     --------------------
     sticks:   dense  smooth     PW     G-vecs:    dense   smooth      PW
     Min          92      61     17                 4222     2267     337
     Max          93      62     18                 4229     2270     341
     Sum        3709    2445    681               169037    90759   13573
 


     bravais-lattice index     =            0
     lattice parameter (alat)  =      10.3915  a.u.
     unit-cell volume          =    1122.0973 (a.u.)^3
     number of atoms/cell      =           16
     number of atomic types    =            1
     number of electrons       =       256.00
     number of Kohn-Sham states=          154
     kinetic-energy cutoff     =      71.0000  Ry
     charge density cutoff     =     430.0000  Ry
     convergence threshold     =      5.0E-05
     mixing beta               =       0.1000
     number of iterations used =           10  plain     mixing
     Exchange-correlation      = SLA PW PBX PBC ( 1  4  3  4 0 0)

     celldm(1)=  10.391466  celldm(2)=   0.000000  celldm(3)=   0.000000
     celldm(4)=   0.000000  celldm(5)=   0.000000  celldm(6)=   0.000000

     crystal axes: (cart. coord. in units of alat)
               a(1) = (   1.002502   0.000000   0.000000 )  
               a(2) = (   0.000000   1.000002   0.000000 )  
               a(3) = (   0.000000   0.000000   0.997502 )  

     reciprocal axes: (cart. coord. in units 2 pi/alat)
               b(1) = (  0.997504  0.000000  0.000000 )  
               b(2) = (  0.000000  0.999998  0.000000 )  
               b(3) = (  0.000000  0.000000  1.002504 )  


     PseudoPot. # 1 for Fe read from file:
     /rds/homes/b/bxp912/pp/Fe.pbe-spn-kjpaw_psl.1.0.0.UPF
     MD5 check sum: 42f43b795421b414b0dc916aa790dbcb
     Pseudo is Projector augmented-wave + core cor, Zval = 16.0
     Generated using "atomic" code by A. Dal Corso v.6.3
     Shape of augmentation charge: PSQ
     Using radial grid of 1191 points,  6 beta functions with: 
                l(1) =   0
                l(2) =   0
                l(3) =   1
                l(4) =   1
                l(5) =   2
                l(6) =   2
     Q(r) pseudized with 0 coefficients 


     atomic species   valence    mass     pseudopotential
        Fe            16.00    55.84500     Fe( 1.00)

      8 Sym. Ops., with inversion, found



   Cartesian axes

     site n.     atom                  positions (alat units)
         1           Fe  tau(   1) = (   0.0000000   0.0000000   0.0000000  )
         2           Fe  tau(   2) = (   0.2506345   0.2500094   0.2493844  )
         3           Fe  tau(   3) = (   0.0000000   0.0000000   0.4987505  )
         4           Fe  tau(   4) = (   0.2506345   0.2500094   0.7481177  )
         5           Fe  tau(   5) = (   0.0000000   0.5000011   0.0000000  )
         6           Fe  tau(   6) = (   0.2506345   0.7499928   0.2493844  )
         7           Fe  tau(   7) = (   0.0000000   0.5000011   0.4987505  )
         8           Fe  tau(   8) = (   0.2506345   0.7499928   0.7481177  )
         9           Fe  tau(   9) = (   0.5012511   0.0000000   0.0000000  )
        10           Fe  tau(  10) = (   0.7518677   0.2500094   0.2493844  )
        11           Fe  tau(  11) = (   0.5012511   0.0000000   0.4987505  )
        12           Fe  tau(  12) = (   0.7518677   0.2500094   0.7481177  )
        13           Fe  tau(  13) = (   0.5012511   0.5000011   0.0000000  )
        14           Fe  tau(  14) = (   0.7518677   0.7499928   0.2493844  )
        15           Fe  tau(  15) = (   0.5012511   0.5000011   0.4987505  )
        16           Fe  tau(  16) = (   0.7518677   0.7499928   0.7481177  )

     number of k points=   125  Marzari-Vanderbilt smearing, width (Ry)=  0.0400

     Number of k-points >= 100: set verbosity='high' to print them.

     Dense  grid:   169037 G-vectors     FFT dimensions: (  72,  72,  72)

     Smooth grid:    90759 G-vectors     FFT dimensions: (  60,  60,  60)

     Estimated max dynamical RAM per process >     116.52 MB

     Estimated total dynamical RAM >       4.55 GB

     Check: negative/imaginary core charge=   -0.000006    0.000000

     Initial potential from superposition of free atoms

     starting charge  255.99300, renormalised to  256.00000
     Starting wfcs are  160 randomized atomic wfcs
     Checking if some PAW data can be deallocated... 

     total cpu time spent up to now is       12.0 secs

     Self-consistent Calculation

     iteration #  1     ecut=    71.00 Ry     beta= 0.10
     Davidson diagonalization with overlap
     ethr =  1.00E-02,  avg # of iterations =  3.4

     Threshold (ethr) on eigenvalues was too large:
     Diagonalizing with lowered threshold

     Davidson diagonalization with overlap
     ethr =  2.51E-04,  avg # of iterations =  3.2

     total cpu time spent up to now is      103.5 secs

     total energy              =   -5267.75219815 Ry
     Harris-Foulkes estimate   =   -5267.86785664 Ry
     estimated scf accuracy    <       0.73331407 Ry

     iteration #  2     ecut=    71.00 Ry     beta= 0.10
     Davidson diagonalization with overlap
     ethr =  2.86E-04,  avg # of iterations =  1.0

     total cpu time spent up to now is      130.8 secs

     total energy              =   -5267.61785857 Ry
     Harris-Foulkes estimate   =   -5267.76739744 Ry
     estimated scf accuracy    <       0.36381280 Ry

     iteration #  3     ecut=    71.00 Ry     beta= 0.10
     Davidson diagonalization with overlap
     ethr =  1.42E-04,  avg # of iterations =  3.2

     total cpu time spent up to now is      181.9 secs

     total energy              =   -5267.69855668 Ry
     Harris-Foulkes estimate   =   -5267.72179743 Ry
     estimated scf accuracy    <       0.55370072 Ry

     iteration #  4     ecut=    71.00 Ry     beta= 0.10
     Davidson diagonalization with overlap
     ethr =  1.42E-04,  avg # of iterations =  1.0

     total cpu time spent up to now is      209.4 secs

     total energy              =   -5267.70528383 Ry
     Harris-Foulkes estimate   =   -5267.71100204 Ry
     estimated scf accuracy    <       0.03042687 Ry

     iteration #  5     ecut=    71.00 Ry     beta= 0.10
     Davidson diagonalization with overlap
     ethr =  1.19E-05,  avg # of iterations =  2.0

     total cpu time spent up to now is      242.8 secs

     total energy              =   -5267.70450334 Ry
     Harris-Foulkes estimate   =   -5267.70730893 Ry
     estimated scf accuracy    <       0.02274489 Ry

     iteration #  6     ecut=    71.00 Ry     beta= 0.10
     Davidson diagonalization with overlap
     ethr =  8.88E-06,  avg # of iterations =  3.1

     total cpu time spent up to now is      288.0 secs

     total energy              =   -5267.70716547 Ry
     Harris-Foulkes estimate   =   -5267.70740464 Ry
     estimated scf accuracy    <       0.01195896 Ry

     iteration #  7     ecut=    71.00 Ry     beta= 0.10
     Davidson diagonalization with overlap
     ethr =  4.67E-06,  avg # of iterations =  1.0

     total cpu time spent up to now is      315.6 secs

     total energy              =   -5267.70672860 Ry
     Harris-Foulkes estimate   =   -5267.70769227 Ry
     estimated scf accuracy    <       0.01483563 Ry

     iteration #  8     ecut=    71.00 Ry     beta= 0.10
     Davidson diagonalization with overlap
     ethr =  4.67E-06,  avg # of iterations =  1.1

     total cpu time spent up to now is      343.6 secs

     total energy              =   -5267.70724749 Ry
     Harris-Foulkes estimate   =   -5267.70735377 Ry
     estimated scf accuracy    <       0.00249278 Ry

     iteration #  9     ecut=    71.00 Ry     beta= 0.10
     Davidson diagonalization with overlap
     ethr =  9.74E-07,  avg # of iterations =  2.3

     total cpu time spent up to now is      378.8 secs

     total energy              =   -5267.70734695 Ry
     Harris-Foulkes estimate   =   -5267.70736397 Ry
     estimated scf accuracy    <       0.00051578 Ry

     iteration # 10     ecut=    71.00 Ry     beta= 0.10
     Davidson diagonalization with overlap
     ethr =  2.01E-07,  avg # of iterations =  1.9

     total cpu time spent up to now is      411.4 secs

     total energy              =   -5267.70734163 Ry
     Harris-Foulkes estimate   =   -5267.70736316 Ry
     estimated scf accuracy    <       0.00024974 Ry

     iteration # 11     ecut=    71.00 Ry     beta= 0.10
     Davidson diagonalization with overlap
     ethr =  9.76E-08,  avg # of iterations =  1.0

     total cpu time spent up to now is      439.1 secs

     total energy              =   -5267.70732604 Ry
     Harris-Foulkes estimate   =   -5267.70735518 Ry
     estimated scf accuracy    <       0.00020684 Ry

     iteration # 12     ecut=    71.00 Ry     beta= 0.10
     Davidson diagonalization with overlap
     ethr =  8.08E-08,  avg # of iterations =  1.0

     total cpu time spent up to now is      467.0 secs

     End of self-consistent calculation

     Number of k-points >= 100: set verbosity='high' to print the bands.

     the Fermi energy is    20.5158 ev

!    total energy              =   -5267.70729236 Ry
     Harris-Foulkes estimate   =   -5267.70733766 Ry
     estimated scf accuracy    <       0.00004880 Ry

     total all-electron energy =    -40728.451821 Ry

     The total energy is the sum of the following terms:

     one-electron contribution =   -1620.09007783 Ry
     hartree contribution      =     989.21235905 Ry
     xc contribution           =    -442.98969241 Ry
     ewald contribution        =   -2868.94927554 Ry
     one-center paw contrib.   =   -1324.75989698 Ry
     smearing contrib. (-TS)   =      -0.13070866 Ry

     convergence has been achieved in  12 iterations

     Forces acting on atoms (cartesian axes, Ry/au):

     atom    1 type  1   force =     0.00000000    0.00000000    0.00000000
     atom    2 type  1   force =     0.00056602   -0.00045360    0.00006323
     atom    3 type  1   force =     0.00000000    0.00000000    0.00000000
     atom    4 type  1   force =     0.00056602   -0.00045360   -0.00006323
     atom    5 type  1   force =     0.00000000    0.00000000    0.00000000
     atom    6 type  1   force =     0.00056602    0.00045360    0.00006323
     atom    7 type  1   force =     0.00000000    0.00000000    0.00000000
     atom    8 type  1   force =     0.00056602    0.00045360   -0.00006323
     atom    9 type  1   force =     0.00000000    0.00000000    0.00000000
     atom   10 type  1   force =    -0.00056602   -0.00045360    0.00006323
     atom   11 type  1   force =     0.00000000    0.00000000    0.00000000
     atom   12 type  1   force =    -0.00056602   -0.00045360   -0.00006323
     atom   13 type  1   force =     0.00000000    0.00000000    0.00000000
     atom   14 type  1   force =    -0.00056602    0.00045360    0.00006323
     atom   15 type  1   force =     0.00000000    0.00000000    0.00000000
     atom   16 type  1   force =    -0.00056602    0.00045360   -0.00006323

     Total force =     0.002059     Total SCF correction =     0.013650
     SCF correction compared to forces is large: reduce conv_thr to get better values


     Computing stress (Cartesian axis) and pressure

          total   stress  (Ry/bohr**3)                   (kbar)     P=    9.97
   0.00010589   0.00000000   0.00000000         15.58      0.00      0.00
   0.00000000   0.00006867   0.00000000          0.00     10.10      0.00
   0.00000000   0.00000000   0.00002884          0.00      0.00      4.24


     Writing output data file vrDBaaqHzDYOEWJk.save/
 
     init_run     :     10.69s CPU     11.27s WALL (       1 calls)
     electrons    :    440.33s CPU    455.05s WALL (       1 calls)
     forces       :      3.92s CPU      4.27s WALL (       1 calls)
     stress       :      9.99s CPU     10.11s WALL (       1 calls)

     Called by init_run:
     wfcinit      :     10.37s CPU     10.88s WALL (       1 calls)
     potinit      :      0.12s CPU      0.14s WALL (       1 calls)
     hinit0       :      0.13s CPU      0.14s WALL (       1 calls)

     Called by electrons:
     c_bands      :    395.16s CPU    407.30s WALL (      13 calls)
     sum_band     :     43.99s CPU     46.27s WALL (      13 calls)
     v_of_rho     :      0.10s CPU      0.22s WALL (      13 calls)
     newd         :      0.19s CPU      0.23s WALL (      13 calls)
     PAW_pot      :      0.92s CPU      0.98s WALL (      13 calls)
     mix_rho      :      0.03s CPU      0.07s WALL (      13 calls)

     Called by c_bands:
     init_us_2    :      2.39s CPU      2.43s WALL (    3625 calls)
     cegterg      :    383.90s CPU    395.66s WALL (    1625 calls)

     Called by sum_band:
     sum_band:bec :      0.68s CPU      0.69s WALL (    1625 calls)
     addusdens    :      0.18s CPU      0.22s WALL (      13 calls)

     Called by *egterg:
     h_psi        :    175.42s CPU    182.94s WALL (    4913 calls)
     s_psi        :      9.53s CPU      9.58s WALL (    4913 calls)
     g_psi        :      0.38s CPU      0.39s WALL (    3163 calls)
     cdiaghg      :    163.78s CPU    164.34s WALL (    4663 calls)

     Called by h_psi:
     h_psi:pot    :    174.47s CPU    181.98s WALL (    4913 calls)
     h_psi:calbec :     13.96s CPU     16.31s WALL (    4913 calls)
     vloc_psi     :    150.86s CPU    155.92s WALL (    4913 calls)
     add_vuspsi   :      9.61s CPU      9.71s WALL (    4913 calls)

     General routines
     calbec       :     22.58s CPU     26.34s WALL (    7163 calls)
     fft          :      0.16s CPU      0.40s WALL (     194 calls)
     ffts         :      0.02s CPU      0.07s WALL (      26 calls)
     fftw         :    175.58s CPU    181.44s WALL ( 1354850 calls)
     interpolate  :      0.02s CPU      0.05s WALL (      13 calls)
 
     Parallel routines
     fft_scatt_xy :     11.92s CPU     12.31s WALL ( 1355070 calls)
     fft_scatt_yz :    117.71s CPU    122.02s WALL ( 1355070 calls)
 
     PWSCF        :  7m53.11s CPU     8m27.85s WALL

 
   This run was terminated on:  13:49: 4   5Sep2020            

=------------------------------------------------------------------------------=
   JOB DONE.
=------------------------------------------------------------------------------=
