--------------------------------------------------------------------------
WARNING: There was an error initializing an OpenFabrics device.

  Local host:   bear-pg0211u07b
  Local device: mlx5_0
--------------------------------------------------------------------------

     Program PWSCF v.6.3 starts on  5Sep2020 at 13:32: 5 

     This program is part of the open-source Quantum ESPRESSO suite
     for quantum simulation of materials; please cite
         "P. Giannozzi et al., J. Phys.:Condens. Matter 21 395502 (2009);
         "P. Giannozzi et al., J. Phys.:Condens. Matter 29 465901 (2017);
          URL http://www.quantum-espresso.org", 
     in publications or presentations arising from this work. More details at
     http://www.quantum-espresso.org/quote

     Parallel version (MPI & OpenMP), running on      40 processor cores
     Number of MPI processes:                40
     Threads/MPI process:                     1

     MPI processes distributed on     1 nodes
     R & G space division:  proc/nbgrp/npool/nimage =      40
     Reading input from wd/ec/ec_8_004.in
Warning: card &IONS ignored
Warning: card ION_DYNAMICS = 'BFGS', ignored
Warning: card / ignored
Warning: card &CELL ignored
Warning: card CELL_DYNAMICS = 'BFGS', ignored
Warning: card CELL_FACTOR = 2.0, ignored
Warning: card PRESS = 0.0, ignored
Warning: card / ignored

     Current dimensions of program PWSCF are:
     Max number of different atomic species (ntypx) = 10
     Max number of k-points (npk) =  40000
     Max angular momentum in pseudopotentials (lmaxx) =  3
               file Fe.pbe-spn-kjpaw_psl.1.0.0.UPF: wavefunction(s)  3P 3D renormalized

     Subspace diagonalization in iterative solution of the eigenvalue problem:
     a serial algorithm will be used

 
     Parallelization info
     --------------------
     sticks:   dense  smooth     PW     G-vecs:    dense   smooth      PW
     Min          92      61     17                 4224     2267     337
     Max          93      62     18                 4229     2271     341
     Sum        3705    2445    681               169037    90775   13573
 


     bravais-lattice index     =            0
     lattice parameter (alat)  =      10.3915  a.u.
     unit-cell volume          =    1122.0973 (a.u.)^3
     number of atoms/cell      =           16
     number of atomic types    =            1
     number of electrons       =       256.00
     number of Kohn-Sham states=          154
     kinetic-energy cutoff     =      71.0000  Ry
     charge density cutoff     =     430.0000  Ry
     convergence threshold     =      5.0E-05
     mixing beta               =       0.1000
     number of iterations used =           10  plain     mixing
     Exchange-correlation      = SLA PW PBX PBC ( 1  4  3  4 0 0)

     celldm(1)=  10.391466  celldm(2)=   0.000000  celldm(3)=   0.000000
     celldm(4)=   0.000000  celldm(5)=   0.000000  celldm(6)=   0.000000

     crystal axes: (cart. coord. in units of alat)
               a(1) = (   1.001876   0.000000   0.000000 )  
               a(2) = (   0.000000   1.000001   0.000000 )  
               a(3) = (   0.000000   0.000000   0.998126 )  

     reciprocal axes: (cart. coord. in units 2 pi/alat)
               b(1) = (  0.998127  0.000000  0.000000 )  
               b(2) = (  0.000000  0.999999  0.000000 )  
               b(3) = (  0.000000  0.000000  1.001877 )  


     PseudoPot. # 1 for Fe read from file:
     /rds/homes/b/bxp912/pp/Fe.pbe-spn-kjpaw_psl.1.0.0.UPF
     MD5 check sum: 42f43b795421b414b0dc916aa790dbcb
     Pseudo is Projector augmented-wave + core cor, Zval = 16.0
     Generated using "atomic" code by A. Dal Corso v.6.3
     Shape of augmentation charge: PSQ
     Using radial grid of 1191 points,  6 beta functions with: 
                l(1) =   0
                l(2) =   0
                l(3) =   1
                l(4) =   1
                l(5) =   2
                l(6) =   2
     Q(r) pseudized with 0 coefficients 


     atomic species   valence    mass     pseudopotential
        Fe            16.00    55.84500     Fe( 1.00)

      8 Sym. Ops., with inversion, found



   Cartesian axes

     site n.     atom                  positions (alat units)
         1           Fe  tau(   1) = (   0.0000000   0.0000000   0.0000000  )
         2           Fe  tau(   2) = (   0.2504780   0.2500092   0.2495404  )
         3           Fe  tau(   3) = (   0.0000000   0.0000000   0.4990626  )
         4           Fe  tau(   4) = (   0.2504780   0.2500092   0.7485857  )
         5           Fe  tau(   5) = (   0.0000000   0.5000007   0.0000000  )
         6           Fe  tau(   6) = (   0.2504780   0.7499921   0.2495404  )
         7           Fe  tau(   7) = (   0.0000000   0.5000007   0.4990626  )
         8           Fe  tau(   8) = (   0.2504780   0.7499921   0.7485857  )
         9           Fe  tau(   9) = (   0.5009382   0.0000000   0.0000000  )
        10           Fe  tau(  10) = (   0.7513983   0.2500092   0.2495404  )
        11           Fe  tau(  11) = (   0.5009382   0.0000000   0.4990626  )
        12           Fe  tau(  12) = (   0.7513983   0.2500092   0.7485857  )
        13           Fe  tau(  13) = (   0.5009382   0.5000007   0.0000000  )
        14           Fe  tau(  14) = (   0.7513983   0.7499921   0.2495404  )
        15           Fe  tau(  15) = (   0.5009382   0.5000007   0.4990626  )
        16           Fe  tau(  16) = (   0.7513983   0.7499921   0.7485857  )

     number of k points=   125  Marzari-Vanderbilt smearing, width (Ry)=  0.0400

     Number of k-points >= 100: set verbosity='high' to print them.

     Dense  grid:   169037 G-vectors     FFT dimensions: (  72,  72,  72)

     Smooth grid:    90775 G-vectors     FFT dimensions: (  60,  60,  60)

     Estimated max dynamical RAM per process >     116.52 MB

     Estimated total dynamical RAM >       4.55 GB

     Check: negative/imaginary core charge=   -0.000006    0.000000

     Initial potential from superposition of free atoms

     starting charge  255.99300, renormalised to  256.00000
     Starting wfcs are  160 randomized atomic wfcs
     Checking if some PAW data can be deallocated... 

     total cpu time spent up to now is       11.8 secs

     Self-consistent Calculation

     iteration #  1     ecut=    71.00 Ry     beta= 0.10
     Davidson diagonalization with overlap
     ethr =  1.00E-02,  avg # of iterations =  3.4

     Threshold (ethr) on eigenvalues was too large:
     Diagonalizing with lowered threshold

     Davidson diagonalization with overlap
     ethr =  2.52E-04,  avg # of iterations =  3.2

     total cpu time spent up to now is      102.7 secs

     total energy              =   -5267.75214646 Ry
     Harris-Foulkes estimate   =   -5267.86780180 Ry
     estimated scf accuracy    <       0.73329313 Ry

     iteration #  2     ecut=    71.00 Ry     beta= 0.10
     Davidson diagonalization with overlap
     ethr =  2.86E-04,  avg # of iterations =  1.0

     total cpu time spent up to now is      129.9 secs

     total energy              =   -5267.61784413 Ry
     Harris-Foulkes estimate   =   -5267.76734503 Ry
     estimated scf accuracy    <       0.36378290 Ry

     iteration #  3     ecut=    71.00 Ry     beta= 0.10
     Davidson diagonalization with overlap
     ethr =  1.42E-04,  avg # of iterations =  3.2

     total cpu time spent up to now is      181.5 secs

     total energy              =   -5267.69848438 Ry
     Harris-Foulkes estimate   =   -5267.72175255 Ry
     estimated scf accuracy    <       0.55450179 Ry

     iteration #  4     ecut=    71.00 Ry     beta= 0.10
     Davidson diagonalization with overlap
     ethr =  1.42E-04,  avg # of iterations =  1.0

     total cpu time spent up to now is      208.7 secs

     total energy              =   -5267.70523203 Ry
     Harris-Foulkes estimate   =   -5267.71094321 Ry
     estimated scf accuracy    <       0.03040760 Ry

     iteration #  5     ecut=    71.00 Ry     beta= 0.10
     Davidson diagonalization with overlap
     ethr =  1.19E-05,  avg # of iterations =  2.0

     total cpu time spent up to now is      242.2 secs

     total energy              =   -5267.70444621 Ry
     Harris-Foulkes estimate   =   -5267.70725533 Ry
     estimated scf accuracy    <       0.02274022 Ry

     iteration #  6     ecut=    71.00 Ry     beta= 0.10
     Davidson diagonalization with overlap
     ethr =  8.88E-06,  avg # of iterations =  3.0

     total cpu time spent up to now is      287.0 secs

     total energy              =   -5267.70712043 Ry
     Harris-Foulkes estimate   =   -5267.70735649 Ry
     estimated scf accuracy    <       0.01199033 Ry

     iteration #  7     ecut=    71.00 Ry     beta= 0.10
     Davidson diagonalization with overlap
     ethr =  4.68E-06,  avg # of iterations =  1.0

     total cpu time spent up to now is      314.3 secs

     total energy              =   -5267.70667215 Ry
     Harris-Foulkes estimate   =   -5267.70764155 Ry
     estimated scf accuracy    <       0.01472813 Ry

     iteration #  8     ecut=    71.00 Ry     beta= 0.10
     Davidson diagonalization with overlap
     ethr =  4.68E-06,  avg # of iterations =  1.2

     total cpu time spent up to now is      342.7 secs

     total energy              =   -5267.70719028 Ry
     Harris-Foulkes estimate   =   -5267.70729967 Ry
     estimated scf accuracy    <       0.00254343 Ry

     iteration #  9     ecut=    71.00 Ry     beta= 0.10
     Davidson diagonalization with overlap
     ethr =  9.94E-07,  avg # of iterations =  2.3

     total cpu time spent up to now is      377.8 secs

     total energy              =   -5267.70729238 Ry
     Harris-Foulkes estimate   =   -5267.70730933 Ry
     estimated scf accuracy    <       0.00051448 Ry

     iteration # 10     ecut=    71.00 Ry     beta= 0.10
     Davidson diagonalization with overlap
     ethr =  2.01E-07,  avg # of iterations =  1.9

     total cpu time spent up to now is      410.5 secs

     total energy              =   -5267.70728722 Ry
     Harris-Foulkes estimate   =   -5267.70730865 Ry
     estimated scf accuracy    <       0.00024986 Ry

     iteration # 11     ecut=    71.00 Ry     beta= 0.10
     Davidson diagonalization with overlap
     ethr =  9.76E-08,  avg # of iterations =  1.0

     total cpu time spent up to now is      438.0 secs

     total energy              =   -5267.70727125 Ry
     Harris-Foulkes estimate   =   -5267.70730086 Ry
     estimated scf accuracy    <       0.00020788 Ry

     iteration # 12     ecut=    71.00 Ry     beta= 0.10
     Davidson diagonalization with overlap
     ethr =  8.12E-08,  avg # of iterations =  1.0

     total cpu time spent up to now is      465.3 secs

     End of self-consistent calculation

     Number of k-points >= 100: set verbosity='high' to print the bands.

     the Fermi energy is    20.5159 ev

!    total energy              =   -5267.70724153 Ry
     Harris-Foulkes estimate   =   -5267.70728304 Ry
     estimated scf accuracy    <       0.00004483 Ry

     total all-electron energy =    -40728.451770 Ry

     The total energy is the sum of the following terms:

     one-electron contribution =   -1620.08870046 Ry
     hartree contribution      =     989.21139807 Ry
     xc contribution           =    -442.98961157 Ry
     ewald contribution        =   -2868.94970449 Ry
     one-center paw contrib.   =   -1324.75987190 Ry
     smearing contrib. (-TS)   =      -0.13075118 Ry

     convergence has been achieved in  12 iterations

     Forces acting on atoms (cartesian axes, Ry/au):

     atom    1 type  1   force =     0.00000000    0.00000000    0.00000000
     atom    2 type  1   force =     0.00055908   -0.00045778    0.00005288
     atom    3 type  1   force =     0.00000000    0.00000000    0.00000000
     atom    4 type  1   force =     0.00055908   -0.00045778   -0.00005288
     atom    5 type  1   force =     0.00000000    0.00000000    0.00000000
     atom    6 type  1   force =     0.00055908    0.00045778    0.00005288
     atom    7 type  1   force =     0.00000000    0.00000000    0.00000000
     atom    8 type  1   force =     0.00055908    0.00045778   -0.00005288
     atom    9 type  1   force =     0.00000000    0.00000000    0.00000000
     atom   10 type  1   force =    -0.00055908   -0.00045778    0.00005288
     atom   11 type  1   force =     0.00000000    0.00000000    0.00000000
     atom   12 type  1   force =    -0.00055908   -0.00045778   -0.00005288
     atom   13 type  1   force =     0.00000000    0.00000000    0.00000000
     atom   14 type  1   force =    -0.00055908    0.00045778    0.00005288
     atom   15 type  1   force =     0.00000000    0.00000000    0.00000000
     atom   16 type  1   force =    -0.00055908    0.00045778   -0.00005288

     Total force =     0.002049     Total SCF correction =     0.013582
     SCF correction compared to forces is large: reduce conv_thr to get better values


     Computing stress (Cartesian axis) and pressure

          total   stress  (Ry/bohr**3)                   (kbar)     P=    9.79
   0.00009448   0.00000000   0.00000000         13.90      0.00      0.00
   0.00000000   0.00006785   0.00000000          0.00      9.98      0.00
   0.00000000   0.00000000   0.00003734          0.00      0.00      5.49


     Writing output data file sCfaTVhRNSzmrwXd.save/
 
     init_run     :     10.53s CPU     11.06s WALL (       1 calls)
     electrons    :    439.11s CPU    453.54s WALL (       1 calls)
     forces       :      3.89s CPU      4.23s WALL (       1 calls)
     stress       :     10.03s CPU     10.16s WALL (       1 calls)

     Called by init_run:
     wfcinit      :     10.26s CPU     10.67s WALL (       1 calls)
     potinit      :      0.12s CPU      0.15s WALL (       1 calls)
     hinit0       :      0.09s CPU      0.11s WALL (       1 calls)

     Called by electrons:
     c_bands      :    393.99s CPU    405.79s WALL (      13 calls)
     sum_band     :     43.95s CPU     46.31s WALL (      13 calls)
     v_of_rho     :      0.11s CPU      0.22s WALL (      13 calls)
     newd         :      0.17s CPU      0.23s WALL (      13 calls)
     PAW_pot      :      0.93s CPU      0.97s WALL (      13 calls)
     mix_rho      :      0.03s CPU      0.06s WALL (      13 calls)

     Called by c_bands:
     init_us_2    :      2.32s CPU      2.36s WALL (    3625 calls)
     cegterg      :    382.81s CPU    394.49s WALL (    1625 calls)

     Called by sum_band:
     sum_band:bec :      0.67s CPU      0.68s WALL (    1625 calls)
     addusdens    :      0.17s CPU      0.23s WALL (      13 calls)

     Called by *egterg:
     h_psi        :    174.69s CPU    181.97s WALL (    4917 calls)
     s_psi        :      9.52s CPU      9.59s WALL (    4917 calls)
     g_psi        :      0.38s CPU      0.39s WALL (    3167 calls)
     cdiaghg      :    163.59s CPU    164.08s WALL (    4667 calls)

     Called by h_psi:
     h_psi:pot    :    173.76s CPU    181.03s WALL (    4917 calls)
     h_psi:calbec :     14.12s CPU     16.52s WALL (    4917 calls)
     vloc_psi     :    150.00s CPU    154.82s WALL (    4917 calls)
     add_vuspsi   :      9.60s CPU      9.67s WALL (    4917 calls)

     General routines
     calbec       :     22.76s CPU     26.63s WALL (    7167 calls)
     fft          :      0.15s CPU      0.37s WALL (     194 calls)
     ffts         :      0.02s CPU      0.07s WALL (      26 calls)
     fftw         :    174.68s CPU    180.32s WALL ( 1354930 calls)
     interpolate  :      0.03s CPU      0.05s WALL (      13 calls)
 
     Parallel routines
     fft_scatt_xy :     11.92s CPU     12.31s WALL ( 1355150 calls)
     fft_scatt_yz :    115.91s CPU    119.94s WALL ( 1355150 calls)
 
     PWSCF        :  7m51.60s CPU     8m24.13s WALL

 
   This run was terminated on:  13:40:29   5Sep2020            

=------------------------------------------------------------------------------=
   JOB DONE.
=------------------------------------------------------------------------------=
