--------------------------------------------------------------------------
WARNING: There was an error initializing an OpenFabrics device.

  Local host:   bear-pg0211u07b
  Local device: mlx5_0
--------------------------------------------------------------------------

     Program PWSCF v.6.3 starts on  5Sep2020 at 14:25: 5 

     This program is part of the open-source Quantum ESPRESSO suite
     for quantum simulation of materials; please cite
         "P. Giannozzi et al., J. Phys.:Condens. Matter 21 395502 (2009);
         "P. Giannozzi et al., J. Phys.:Condens. Matter 29 465901 (2017);
          URL http://www.quantum-espresso.org", 
     in publications or presentations arising from this work. More details at
     http://www.quantum-espresso.org/quote

     Parallel version (MPI & OpenMP), running on      40 processor cores
     Number of MPI processes:                40
     Threads/MPI process:                     1

     MPI processes distributed on     1 nodes
     R & G space division:  proc/nbgrp/npool/nimage =      40
     Reading input from wd/ec/ec_9_002.in
Warning: card &IONS ignored
Warning: card ION_DYNAMICS = 'BFGS', ignored
Warning: card / ignored
Warning: card &CELL ignored
Warning: card CELL_DYNAMICS = 'BFGS', ignored
Warning: card CELL_FACTOR = 2.0, ignored
Warning: card PRESS = 0.0, ignored
Warning: card / ignored

     Current dimensions of program PWSCF are:
     Max number of different atomic species (ntypx) = 10
     Max number of k-points (npk) =  40000
     Max angular momentum in pseudopotentials (lmaxx) =  3
               file Fe.pbe-spn-kjpaw_psl.1.0.0.UPF: wavefunction(s)  3P 3D renormalized

     Subspace diagonalization in iterative solution of the eigenvalue problem:
     a serial algorithm will be used

 
     Parallelization info
     --------------------
     sticks:   dense  smooth     PW     G-vecs:    dense   smooth      PW
     Min          92      60     17                 4224     2266     337
     Max          93      62     18                 4229     2271     341
     Sum        3705    2441    681               169061    90747   13581
 


     bravais-lattice index     =            0
     lattice parameter (alat)  =      10.3915  a.u.
     unit-cell volume          =    1122.0973 (a.u.)^3
     number of atoms/cell      =           16
     number of atomic types    =            1
     number of electrons       =       256.00
     number of Kohn-Sham states=          154
     kinetic-energy cutoff     =      71.0000  Ry
     charge density cutoff     =     430.0000  Ry
     convergence threshold     =      5.0E-05
     mixing beta               =       0.1000
     number of iterations used =           10  plain     mixing
     Exchange-correlation      = SLA PW PBX PBC ( 1  4  3  4 0 0)

     celldm(1)=  10.391466  celldm(2)=   0.000000  celldm(3)=   0.000000
     celldm(4)=   0.000000  celldm(5)=   0.000000  celldm(6)=   0.000000

     crystal axes: (cart. coord. in units of alat)
               a(1) = (   1.000000   0.000000   0.000000 )  
               a(2) = (   0.000000   1.000625   0.000000 )  
               a(3) = (   0.000000   0.000000   0.999375 )  

     reciprocal axes: (cart. coord. in units 2 pi/alat)
               b(1) = (  1.000000  0.000000  0.000000 )  
               b(2) = (  0.000000  0.999375  0.000000 )  
               b(3) = (  0.000000  0.000000  1.000625 )  


     PseudoPot. # 1 for Fe read from file:
     /rds/homes/b/bxp912/pp/Fe.pbe-spn-kjpaw_psl.1.0.0.UPF
     MD5 check sum: 42f43b795421b414b0dc916aa790dbcb
     Pseudo is Projector augmented-wave + core cor, Zval = 16.0
     Generated using "atomic" code by A. Dal Corso v.6.3
     Shape of augmentation charge: PSQ
     Using radial grid of 1191 points,  6 beta functions with: 
                l(1) =   0
                l(2) =   0
                l(3) =   1
                l(4) =   1
                l(5) =   2
                l(6) =   2
     Q(r) pseudized with 0 coefficients 


     atomic species   valence    mass     pseudopotential
        Fe            16.00    55.84500     Fe( 1.00)

      8 Sym. Ops., with inversion, found



   Cartesian axes

     site n.     atom                  positions (alat units)
         1           Fe  tau(   1) = (   0.0000000   0.0000000   0.0000000  )
         2           Fe  tau(   2) = (   0.2500089   0.2501652   0.2498527  )
         3           Fe  tau(   3) = (   0.0000000   0.0000000   0.4996871  )
         4           Fe  tau(   4) = (   0.2500089   0.2501652   0.7495224  )
         5           Fe  tau(   5) = (   0.0000000   0.5003127   0.0000000  )
         6           Fe  tau(   6) = (   0.2500089   0.7504600   0.2498527  )
         7           Fe  tau(   7) = (   0.0000000   0.5003127   0.4996871  )
         8           Fe  tau(   8) = (   0.2500089   0.7504600   0.7495224  )
         9           Fe  tau(   9) = (   0.5000002   0.0000000   0.0000000  )
        10           Fe  tau(  10) = (   0.7499913   0.2501652   0.2498527  )
        11           Fe  tau(  11) = (   0.5000002   0.0000000   0.4996871  )
        12           Fe  tau(  12) = (   0.7499913   0.2501652   0.7495224  )
        13           Fe  tau(  13) = (   0.5000002   0.5003127   0.0000000  )
        14           Fe  tau(  14) = (   0.7499913   0.7504600   0.2498527  )
        15           Fe  tau(  15) = (   0.5000002   0.5003127   0.4996871  )
        16           Fe  tau(  16) = (   0.7499913   0.7504600   0.7495224  )

     number of k points=   125  Marzari-Vanderbilt smearing, width (Ry)=  0.0400

     Number of k-points >= 100: set verbosity='high' to print them.

     Dense  grid:   169061 G-vectors     FFT dimensions: (  72,  72,  72)

     Smooth grid:    90747 G-vectors     FFT dimensions: (  60,  60,  60)

     Estimated max dynamical RAM per process >     116.53 MB

     Estimated total dynamical RAM >       4.55 GB

     Check: negative/imaginary core charge=   -0.000006    0.000000

     Initial potential from superposition of free atoms

     starting charge  255.99300, renormalised to  256.00000
     Starting wfcs are  160 randomized atomic wfcs
     Checking if some PAW data can be deallocated... 

     total cpu time spent up to now is       11.7 secs

     Self-consistent Calculation

     iteration #  1     ecut=    71.00 Ry     beta= 0.10
     Davidson diagonalization with overlap
     ethr =  1.00E-02,  avg # of iterations =  3.4

     Threshold (ethr) on eigenvalues was too large:
     Diagonalizing with lowered threshold

     Davidson diagonalization with overlap
     ethr =  2.55E-04,  avg # of iterations =  3.1

     total cpu time spent up to now is      102.2 secs

     total energy              =   -5267.75202463 Ry
     Harris-Foulkes estimate   =   -5267.86767717 Ry
     estimated scf accuracy    <       0.73328212 Ry

     iteration #  2     ecut=    71.00 Ry     beta= 0.10
     Davidson diagonalization with overlap
     ethr =  2.86E-04,  avg # of iterations =  1.0

     total cpu time spent up to now is      129.6 secs

     total energy              =   -5267.61772846 Ry
     Harris-Foulkes estimate   =   -5267.76727572 Ry
     estimated scf accuracy    <       0.36379039 Ry

     iteration #  3     ecut=    71.00 Ry     beta= 0.10
     Davidson diagonalization with overlap
     ethr =  1.42E-04,  avg # of iterations =  3.2

     total cpu time spent up to now is      180.9 secs

     total energy              =   -5267.69847784 Ry
     Harris-Foulkes estimate   =   -5267.72164948 Ry
     estimated scf accuracy    <       0.55146060 Ry

     iteration #  4     ecut=    71.00 Ry     beta= 0.10
     Davidson diagonalization with overlap
     ethr =  1.42E-04,  avg # of iterations =  1.0

     total cpu time spent up to now is      208.3 secs

     total energy              =   -5267.70513601 Ry
     Harris-Foulkes estimate   =   -5267.71088400 Ry
     estimated scf accuracy    <       0.03035254 Ry

     iteration #  5     ecut=    71.00 Ry     beta= 0.10
     Davidson diagonalization with overlap
     ethr =  1.19E-05,  avg # of iterations =  2.1

     total cpu time spent up to now is      242.1 secs

     total energy              =   -5267.70441620 Ry
     Harris-Foulkes estimate   =   -5267.70717993 Ry
     estimated scf accuracy    <       0.02277371 Ry

     iteration #  6     ecut=    71.00 Ry     beta= 0.10
     Davidson diagonalization with overlap
     ethr =  8.90E-06,  avg # of iterations =  3.0

     total cpu time spent up to now is      286.8 secs

     total energy              =   -5267.70705751 Ry
     Harris-Foulkes estimate   =   -5267.70728930 Ry
     estimated scf accuracy    <       0.01195943 Ry

     iteration #  7     ecut=    71.00 Ry     beta= 0.10
     Davidson diagonalization with overlap
     ethr =  4.67E-06,  avg # of iterations =  1.0

     total cpu time spent up to now is      314.1 secs

     total energy              =   -5267.70661454 Ry
     Harris-Foulkes estimate   =   -5267.70757998 Ry
     estimated scf accuracy    <       0.01475276 Ry

     iteration #  8     ecut=    71.00 Ry     beta= 0.10
     Davidson diagonalization with overlap
     ethr =  4.67E-06,  avg # of iterations =  1.2

     total cpu time spent up to now is      342.6 secs

     total energy              =   -5267.70713108 Ry
     Harris-Foulkes estimate   =   -5267.70724013 Ry
     estimated scf accuracy    <       0.00254130 Ry

     iteration #  9     ecut=    71.00 Ry     beta= 0.10
     Davidson diagonalization with overlap
     ethr =  9.93E-07,  avg # of iterations =  2.3

     total cpu time spent up to now is      377.8 secs

     total energy              =   -5267.70723260 Ry
     Harris-Foulkes estimate   =   -5267.70724964 Ry
     estimated scf accuracy    <       0.00051969 Ry

     iteration # 10     ecut=    71.00 Ry     beta= 0.10
     Davidson diagonalization with overlap
     ethr =  2.03E-07,  avg # of iterations =  1.9

     total cpu time spent up to now is      410.4 secs

     total energy              =   -5267.70722717 Ry
     Harris-Foulkes estimate   =   -5267.70724881 Ry
     estimated scf accuracy    <       0.00024962 Ry

     iteration # 11     ecut=    71.00 Ry     beta= 0.10
     Davidson diagonalization with overlap
     ethr =  9.75E-08,  avg # of iterations =  1.0

     total cpu time spent up to now is      437.7 secs

     total energy              =   -5267.70721235 Ry
     Harris-Foulkes estimate   =   -5267.70724083 Ry
     estimated scf accuracy    <       0.00020526 Ry

     iteration # 12     ecut=    71.00 Ry     beta= 0.10
     Davidson diagonalization with overlap
     ethr =  8.02E-08,  avg # of iterations =  1.0

     total cpu time spent up to now is      464.9 secs

     total energy              =   -5267.70722121 Ry
     Harris-Foulkes estimate   =   -5267.70722353 Ry
     estimated scf accuracy    <       0.00005155 Ry

     iteration # 13     ecut=    71.00 Ry     beta= 0.10
     Davidson diagonalization with overlap
     ethr =  2.01E-08,  avg # of iterations =  1.8

     total cpu time spent up to now is      496.9 secs

     End of self-consistent calculation

     Number of k-points >= 100: set verbosity='high' to print the bands.

     the Fermi energy is    20.5165 ev

!    total energy              =   -5267.70722031 Ry
     Harris-Foulkes estimate   =   -5267.70722337 Ry
     estimated scf accuracy    <       0.00000460 Ry

     total all-electron energy =    -40728.451749 Ry

     The total energy is the sum of the following terms:

     one-electron contribution =   -1620.04761349 Ry
     hartree contribution      =     989.16448588 Ry
     xc contribution           =    -442.98310690 Ry
     ewald contribution        =   -2868.95019466 Ry
     one-center paw contrib.   =   -1324.75999697 Ry
     smearing contrib. (-TS)   =      -0.13079417 Ry

     convergence has been achieved in  13 iterations

     Forces acting on atoms (cartesian axes, Ry/au):

     atom    1 type  1   force =     0.00000000    0.00000000    0.00000000
     atom    2 type  1   force =     0.00016618   -0.00026504    0.00007448
     atom    3 type  1   force =     0.00000000    0.00000000    0.00000000
     atom    4 type  1   force =     0.00016618   -0.00026504   -0.00007448
     atom    5 type  1   force =     0.00000000    0.00000000    0.00000000
     atom    6 type  1   force =     0.00016618    0.00026504    0.00007448
     atom    7 type  1   force =     0.00000000    0.00000000    0.00000000
     atom    8 type  1   force =     0.00016618    0.00026504   -0.00007448
     atom    9 type  1   force =     0.00000000    0.00000000    0.00000000
     atom   10 type  1   force =    -0.00016618   -0.00026504    0.00007448
     atom   11 type  1   force =     0.00000000    0.00000000    0.00000000
     atom   12 type  1   force =    -0.00016618   -0.00026504   -0.00007448
     atom   13 type  1   force =     0.00000000    0.00000000    0.00000000
     atom   14 type  1   force =    -0.00016618    0.00026504    0.00007448
     atom   15 type  1   force =     0.00000000    0.00000000    0.00000000
     atom   16 type  1   force =    -0.00016618    0.00026504   -0.00007448

     Total force =     0.000910     Total SCF correction =     0.003102
     SCF correction compared to forces is large: reduce conv_thr to get better values


     Computing stress (Cartesian axis) and pressure

          total   stress  (Ry/bohr**3)                   (kbar)     P=    3.49
   0.00002048   0.00000000   0.00000000          3.01      0.00      0.00
   0.00000000   0.00003680   0.00000000          0.00      5.41      0.00
   0.00000000   0.00000000   0.00001397          0.00      0.00      2.06


     Writing output data file xpyExjhdbWDXTysQ.save/
 
     init_run     :     10.53s CPU     11.06s WALL (       1 calls)
     electrons    :    469.74s CPU    485.14s WALL (       1 calls)
     forces       :      3.85s CPU      4.19s WALL (       1 calls)
     stress       :      9.84s CPU      9.96s WALL (       1 calls)

     Called by init_run:
     wfcinit      :     10.22s CPU     10.67s WALL (       1 calls)
     potinit      :      0.11s CPU      0.14s WALL (       1 calls)
     hinit0       :      0.12s CPU      0.14s WALL (       1 calls)

     Called by electrons:
     c_bands      :    419.93s CPU    432.55s WALL (      14 calls)
     sum_band     :     48.50s CPU     50.91s WALL (      14 calls)
     v_of_rho     :      0.21s CPU      0.35s WALL (      14 calls)
     newd         :      0.19s CPU      0.26s WALL (      14 calls)
     PAW_pot      :      0.96s CPU      1.06s WALL (      14 calls)
     mix_rho      :      0.03s CPU      0.07s WALL (      14 calls)

     Called by c_bands:
     init_us_2    :      2.38s CPU      2.41s WALL (    3875 calls)
     cegterg      :    407.77s CPU    420.26s WALL (    1750 calls)

     Called by sum_band:
     sum_band:bec :      0.73s CPU      0.75s WALL (    1750 calls)
     addusdens    :      0.21s CPU      0.26s WALL (      14 calls)

     Called by *egterg:
     h_psi        :    186.40s CPU    194.33s WALL (    5248 calls)
     s_psi        :     10.20s CPU     10.26s WALL (    5248 calls)
     g_psi        :      0.41s CPU      0.41s WALL (    3373 calls)
     cdiaghg      :    173.08s CPU    173.58s WALL (    4998 calls)

     Called by h_psi:
     h_psi:pot    :    185.38s CPU    193.30s WALL (    5248 calls)
     h_psi:calbec :     15.22s CPU     17.70s WALL (    5248 calls)
     vloc_psi     :    159.91s CPU    165.29s WALL (    5248 calls)
     add_vuspsi   :     10.21s CPU     10.28s WALL (    5248 calls)

     General routines
     calbec       :     24.44s CPU     28.42s WALL (    7623 calls)
     fft          :      0.22s CPU      0.48s WALL (     207 calls)
     ffts         :      0.02s CPU      0.07s WALL (      28 calls)
     fftw         :    187.74s CPU    193.93s WALL ( 1451052 calls)
     interpolate  :      0.02s CPU      0.05s WALL (      14 calls)
 
     Parallel routines
     fft_scatt_xy :     12.47s CPU     12.88s WALL ( 1451287 calls)
     fft_scatt_yz :    126.24s CPU    130.76s WALL ( 1451287 calls)
 
     PWSCF        :  8m22.12s CPU     8m56.54s WALL

 
   This run was terminated on:  14:34: 1   5Sep2020            

=------------------------------------------------------------------------------=
   JOB DONE.
=------------------------------------------------------------------------------=
