
     Program PWSCF v.6.3 starts on  5Sep2020 at 15: 0:59 

     This program is part of the open-source Quantum ESPRESSO suite
     for quantum simulation of materials; please cite
         "P. Giannozzi et al., J. Phys.:Condens. Matter 21 395502 (2009);
         "P. Giannozzi et al., J. Phys.:Condens. Matter 29 465901 (2017);
          URL http://www.quantum-espresso.org", 
     in publications or presentations arising from this work. More details at
     http://www.quantum-espresso.org/quote

     Parallel version (MPI & OpenMP), running on      40 processor cores
     Number of MPI processes:                40
     Threads/MPI process:                     1

     MPI processes distributed on     1 nodes
     R & G space division:  proc/nbgrp/npool/nimage =      40
     Reading input from wd/ec/ec_9_006.in
Warning: card &IONS ignored
Warning: card ION_DYNAMICS = 'BFGS', ignored
Warning: card / ignored
Warning: card &CELL ignored
Warning: card CELL_DYNAMICS = 'BFGS', ignored
Warning: card CELL_FACTOR = 2.0, ignored
Warning: card PRESS = 0.0, ignored
Warning: card / ignored

     Current dimensions of program PWSCF are:
     Max number of different atomic species (ntypx) = 10
     Max number of k-points (npk) =  40000
     Max angular momentum in pseudopotentials (lmaxx) =  3
               file Fe.pbe-spn-kjpaw_psl.1.0.0.UPF: wavefunction(s)  3P 3D renormalized

     Subspace diagonalization in iterative solution of the eigenvalue problem:
     a serial algorithm will be used

 
     Parallelization info
     --------------------
     sticks:   dense  smooth     PW     G-vecs:    dense   smooth      PW
     Min          92      61     17                 4222     2267     337
     Max          93      62     18                 4229     2270     341
     Sum        3709    2445    681               169045    90759   13573
 


     bravais-lattice index     =            0
     lattice parameter (alat)  =      10.3915  a.u.
     unit-cell volume          =    1122.0973 (a.u.)^3
     number of atoms/cell      =           16
     number of atomic types    =            1
     number of electrons       =       256.00
     number of Kohn-Sham states=          154
     kinetic-energy cutoff     =      71.0000  Ry
     charge density cutoff     =     430.0000  Ry
     convergence threshold     =      5.0E-05
     mixing beta               =       0.1000
     number of iterations used =           10  plain     mixing
     Exchange-correlation      = SLA PW PBX PBC ( 1  4  3  4 0 0)

     celldm(1)=  10.391466  celldm(2)=   0.000000  celldm(3)=   0.000000
     celldm(4)=   0.000000  celldm(5)=   0.000000  celldm(6)=   0.000000

     crystal axes: (cart. coord. in units of alat)
               a(1) = (   1.000003   0.000000   0.000000 )  
               a(2) = (   0.000000   1.003128   0.000000 )  
               a(3) = (   0.000000   0.000000   0.996878 )  

     reciprocal axes: (cart. coord. in units 2 pi/alat)
               b(1) = (  0.999997  0.000000  0.000000 )  
               b(2) = (  0.000000  0.996881  0.000000 )  
               b(3) = (  0.000000  0.000000  1.003132 )  


     PseudoPot. # 1 for Fe read from file:
     /rds/homes/b/bxp912/pp/Fe.pbe-spn-kjpaw_psl.1.0.0.UPF
     MD5 check sum: 42f43b795421b414b0dc916aa790dbcb
     Pseudo is Projector augmented-wave + core cor, Zval = 16.0
     Generated using "atomic" code by A. Dal Corso v.6.3
     Shape of augmentation charge: PSQ
     Using radial grid of 1191 points,  6 beta functions with: 
                l(1) =   0
                l(2) =   0
                l(3) =   1
                l(4) =   1
                l(5) =   2
                l(6) =   2
     Q(r) pseudized with 0 coefficients 


     atomic species   valence    mass     pseudopotential
        Fe            16.00    55.84500     Fe( 1.00)

      8 Sym. Ops., with inversion, found



   Cartesian axes

     site n.     atom                  positions (alat units)
         1           Fe  tau(   1) = (   0.0000000   0.0000000   0.0000000  )
         2           Fe  tau(   2) = (   0.2500097   0.2507910   0.2492284  )
         3           Fe  tau(   3) = (   0.0000000   0.0000000   0.4984386  )
         4           Fe  tau(   4) = (   0.2500097   0.2507910   0.7476498  )
         5           Fe  tau(   5) = (   0.0000000   0.5015642   0.0000000  )
         6           Fe  tau(   6) = (   0.2500097   0.7523374   0.2492284  )
         7           Fe  tau(   7) = (   0.0000000   0.5015642   0.4984386  )
         8           Fe  tau(   8) = (   0.2500097   0.7523374   0.7476498  )
         9           Fe  tau(   9) = (   0.5000017   0.0000000   0.0000000  )
        10           Fe  tau(  10) = (   0.7499936   0.2507910   0.2492284  )
        11           Fe  tau(  11) = (   0.5000017   0.0000000   0.4984386  )
        12           Fe  tau(  12) = (   0.7499936   0.2507910   0.7476498  )
        13           Fe  tau(  13) = (   0.5000017   0.5015642   0.0000000  )
        14           Fe  tau(  14) = (   0.7499936   0.7523374   0.2492284  )
        15           Fe  tau(  15) = (   0.5000017   0.5015642   0.4984386  )
        16           Fe  tau(  16) = (   0.7499936   0.7523374   0.7476498  )

     number of k points=   125  Marzari-Vanderbilt smearing, width (Ry)=  0.0400

     Number of k-points >= 100: set verbosity='high' to print them.

     Dense  grid:   169045 G-vectors     FFT dimensions: (  72,  72,  72)

     Smooth grid:    90759 G-vectors     FFT dimensions: (  60,  60,  60)

     Estimated max dynamical RAM per process >     116.52 MB

     Estimated total dynamical RAM >       4.55 GB

     Check: negative/imaginary core charge=   -0.000006    0.000000

     Initial potential from superposition of free atoms

     starting charge  255.99300, renormalised to  256.00000
     Starting wfcs are  160 randomized atomic wfcs
     Checking if some PAW data can be deallocated... 

     total cpu time spent up to now is       11.9 secs

     Self-consistent Calculation

     iteration #  1     ecut=    71.00 Ry     beta= 0.10
     Davidson diagonalization with overlap
     ethr =  1.00E-02,  avg # of iterations =  3.4

     Threshold (ethr) on eigenvalues was too large:
     Diagonalizing with lowered threshold

     Davidson diagonalization with overlap
     ethr =  2.51E-04,  avg # of iterations =  3.2

     total cpu time spent up to now is      103.7 secs

     total energy              =   -5267.75225285 Ry
     Harris-Foulkes estimate   =   -5267.86794952 Ry
     estimated scf accuracy    <       0.73354409 Ry

     iteration #  2     ecut=    71.00 Ry     beta= 0.10
     Davidson diagonalization with overlap
     ethr =  2.87E-04,  avg # of iterations =  1.0

     total cpu time spent up to now is      131.1 secs

     total energy              =   -5267.61799500 Ry
     Harris-Foulkes estimate   =   -5267.76745636 Ry
     estimated scf accuracy    <       0.36384441 Ry

     iteration #  3     ecut=    71.00 Ry     beta= 0.10
     Davidson diagonalization with overlap
     ethr =  1.42E-04,  avg # of iterations =  3.3

     total cpu time spent up to now is      183.0 secs

     total energy              =   -5267.69856269 Ry
     Harris-Foulkes estimate   =   -5267.72189421 Ry
     estimated scf accuracy    <       0.55612381 Ry

     iteration #  4     ecut=    71.00 Ry     beta= 0.10
     Davidson diagonalization with overlap
     ethr =  1.42E-04,  avg # of iterations =  1.0

     total cpu time spent up to now is      210.3 secs

     total energy              =   -5267.70533361 Ry
     Harris-Foulkes estimate   =   -5267.71105886 Ry
     estimated scf accuracy    <       0.03033124 Ry

     iteration #  5     ecut=    71.00 Ry     beta= 0.10
     Davidson diagonalization with overlap
     ethr =  1.18E-05,  avg # of iterations =  2.0

     total cpu time spent up to now is      243.9 secs

     total energy              =   -5267.70458854 Ry
     Harris-Foulkes estimate   =   -5267.70736793 Ry
     estimated scf accuracy    <       0.02278523 Ry

     iteration #  6     ecut=    71.00 Ry     beta= 0.10
     Davidson diagonalization with overlap
     ethr =  8.90E-06,  avg # of iterations =  3.1

     total cpu time spent up to now is      289.4 secs

     total energy              =   -5267.70723497 Ry
     Harris-Foulkes estimate   =   -5267.70747186 Ry
     estimated scf accuracy    <       0.01195655 Ry

     iteration #  7     ecut=    71.00 Ry     beta= 0.10
     Davidson diagonalization with overlap
     ethr =  4.67E-06,  avg # of iterations =  1.0

     total cpu time spent up to now is      316.9 secs

     total energy              =   -5267.70678715 Ry
     Harris-Foulkes estimate   =   -5267.70776787 Ry
     estimated scf accuracy    <       0.01526953 Ry

     iteration #  8     ecut=    71.00 Ry     beta= 0.10
     Davidson diagonalization with overlap
     ethr =  4.67E-06,  avg # of iterations =  1.2

     total cpu time spent up to now is      345.4 secs

     total energy              =   -5267.70731763 Ry
     Harris-Foulkes estimate   =   -5267.70742173 Ry
     estimated scf accuracy    <       0.00245451 Ry

     iteration #  9     ecut=    71.00 Ry     beta= 0.10
     Davidson diagonalization with overlap
     ethr =  9.59E-07,  avg # of iterations =  2.3

     total cpu time spent up to now is      383.3 secs

     total energy              =   -5267.70741526 Ry
     Harris-Foulkes estimate   =   -5267.70743251 Ry
     estimated scf accuracy    <       0.00051978 Ry

     iteration # 10     ecut=    71.00 Ry     beta= 0.10
     Davidson diagonalization with overlap
     ethr =  2.03E-07,  avg # of iterations =  1.9

     total cpu time spent up to now is      415.9 secs

     total energy              =   -5267.70740992 Ry
     Harris-Foulkes estimate   =   -5267.70743163 Ry
     estimated scf accuracy    <       0.00025046 Ry

     iteration # 11     ecut=    71.00 Ry     beta= 0.10
     Davidson diagonalization with overlap
     ethr =  9.78E-08,  avg # of iterations =  1.1

     total cpu time spent up to now is      443.5 secs

     total energy              =   -5267.70739911 Ry
     Harris-Foulkes estimate   =   -5267.70742358 Ry
     estimated scf accuracy    <       0.00020744 Ry

     iteration # 12     ecut=    71.00 Ry     beta= 0.10
     Davidson diagonalization with overlap
     ethr =  8.10E-08,  avg # of iterations =  1.0

     total cpu time spent up to now is      471.2 secs

     total energy              =   -5267.70740265 Ry
     Harris-Foulkes estimate   =   -5267.70740825 Ry
     estimated scf accuracy    <       0.00010885 Ry

     iteration # 13     ecut=    71.00 Ry     beta= 0.10
     Davidson diagonalization with overlap
     ethr =  4.25E-08,  avg # of iterations =  1.1

     total cpu time spent up to now is      498.7 secs

     End of self-consistent calculation

     Number of k-points >= 100: set verbosity='high' to print the bands.

     the Fermi energy is    20.5163 ev

!    total energy              =   -5267.70740297 Ry
     Harris-Foulkes estimate   =   -5267.70740617 Ry
     estimated scf accuracy    <       0.00000488 Ry

     total all-electron energy =    -40728.451932 Ry

     The total energy is the sum of the following terms:

     one-electron contribution =   -1620.05046929 Ry
     hartree contribution      =     989.16537905 Ry
     xc contribution           =    -442.98301442 Ry
     ewald contribution        =   -2868.94872392 Ry
     one-center paw contrib.   =   -1324.75992664 Ry
     smearing contrib. (-TS)   =      -0.13064776 Ry

     convergence has been achieved in  13 iterations

     Forces acting on atoms (cartesian axes, Ry/au):

     atom    1 type  1   force =     0.00000000    0.00000000    0.00000000
     atom    2 type  1   force =     0.00008844   -0.00020777    0.00006461
     atom    3 type  1   force =     0.00000000    0.00000000    0.00000000
     atom    4 type  1   force =     0.00008844   -0.00020777   -0.00006461
     atom    5 type  1   force =     0.00000000    0.00000000    0.00000000
     atom    6 type  1   force =     0.00008844    0.00020777    0.00006461
     atom    7 type  1   force =     0.00000000    0.00000000    0.00000000
     atom    8 type  1   force =     0.00008844    0.00020777   -0.00006461
     atom    9 type  1   force =     0.00000000    0.00000000    0.00000000
     atom   10 type  1   force =    -0.00008844   -0.00020777    0.00006461
     atom   11 type  1   force =     0.00000000    0.00000000    0.00000000
     atom   12 type  1   force =    -0.00008844   -0.00020777   -0.00006461
     atom   13 type  1   force =     0.00000000    0.00000000    0.00000000
     atom   14 type  1   force =    -0.00008844    0.00020777    0.00006461
     atom   15 type  1   force =     0.00000000    0.00000000    0.00000000
     atom   16 type  1   force =    -0.00008844    0.00020777   -0.00006461

     Total force =     0.000664     Total SCF correction =     0.003181
     SCF correction compared to forces is large: reduce conv_thr to get better values


     Computing stress (Cartesian axis) and pressure

          total   stress  (Ry/bohr**3)                   (kbar)     P=    3.23
   0.00001718   0.00000000   0.00000000          2.53      0.00      0.00
   0.00000000   0.00007605   0.00000000          0.00     11.19      0.00
   0.00000000   0.00000000  -0.00002726          0.00      0.00     -4.01


     Writing output data file YnlfrcdczTGrfUfy.save/
 
     init_run     :     10.59s CPU     11.13s WALL (       1 calls)
     electrons    :    471.05s CPU    486.90s WALL (       1 calls)
     forces       :      3.84s CPU      4.23s WALL (       1 calls)
     stress       :     10.66s CPU     10.79s WALL (       1 calls)

     Called by init_run:
     wfcinit      :     10.29s CPU     10.75s WALL (       1 calls)
     potinit      :      0.12s CPU      0.14s WALL (       1 calls)
     hinit0       :      0.11s CPU      0.13s WALL (       1 calls)

     Called by electrons:
     c_bands      :    421.80s CPU    434.82s WALL (      14 calls)
     sum_band     :     47.94s CPU     50.43s WALL (      14 calls)
     v_of_rho     :      0.19s CPU      0.32s WALL (      14 calls)
     newd         :      0.18s CPU      0.26s WALL (      14 calls)
     PAW_pot      :      0.97s CPU      1.05s WALL (      14 calls)
     mix_rho      :      0.04s CPU      0.07s WALL (      14 calls)

     Called by c_bands:
     init_us_2    :      2.56s CPU      2.61s WALL (    3875 calls)
     cegterg      :    409.80s CPU    422.67s WALL (    1750 calls)

     Called by sum_band:
     sum_band:bec :      0.69s CPU      0.70s WALL (    1750 calls)
     addusdens    :      0.18s CPU      0.24s WALL (      14 calls)

     Called by *egterg:
     h_psi        :    189.69s CPU    197.84s WALL (    5195 calls)
     s_psi        :     10.09s CPU     10.15s WALL (    5195 calls)
     g_psi        :      0.41s CPU      0.41s WALL (    3320 calls)
     cdiaghg      :    171.89s CPU    172.45s WALL (    4945 calls)

     Called by h_psi:
     h_psi:pot    :    188.57s CPU    196.71s WALL (    5195 calls)
     h_psi:calbec :     15.24s CPU     17.75s WALL (    5195 calls)
     vloc_psi     :    163.08s CPU    168.64s WALL (    5195 calls)
     add_vuspsi   :     10.20s CPU     10.28s WALL (    5195 calls)

     General routines
     calbec       :     24.28s CPU     28.40s WALL (    7570 calls)
     fft          :      0.18s CPU      0.42s WALL (     207 calls)
     ffts         :      0.02s CPU      0.07s WALL (      28 calls)
     fftw         :    190.35s CPU    196.74s WALL ( 1451122 calls)
     interpolate  :      0.02s CPU      0.04s WALL (      14 calls)
 
     Parallel routines
     fft_scatt_xy :     12.54s CPU     12.95s WALL ( 1451357 calls)
     fft_scatt_yz :    127.83s CPU    132.45s WALL ( 1451357 calls)
 
     PWSCF        :  8m24.24s CPU     8m59.29s WALL

 
   This run was terminated on:  15: 9:58   5Sep2020            

=------------------------------------------------------------------------------=
   JOB DONE.
=------------------------------------------------------------------------------=
