
     Program PWSCF v.6.3 starts on  5Sep2020 at 14:34: 3 

     This program is part of the open-source Quantum ESPRESSO suite
     for quantum simulation of materials; please cite
         "P. Giannozzi et al., J. Phys.:Condens. Matter 21 395502 (2009);
         "P. Giannozzi et al., J. Phys.:Condens. Matter 29 465901 (2017);
          URL http://www.quantum-espresso.org", 
     in publications or presentations arising from this work. More details at
     http://www.quantum-espresso.org/quote

     Parallel version (MPI & OpenMP), running on      40 processor cores
     Number of MPI processes:                40
     Threads/MPI process:                     1

     MPI processes distributed on     1 nodes
     R & G space division:  proc/nbgrp/npool/nimage =      40
     Reading input from wd/ec/ec_9_003.in
Warning: card &IONS ignored
Warning: card ION_DYNAMICS = 'BFGS', ignored
Warning: card / ignored
Warning: card &CELL ignored
Warning: card CELL_DYNAMICS = 'BFGS', ignored
Warning: card CELL_FACTOR = 2.0, ignored
Warning: card PRESS = 0.0, ignored
Warning: card / ignored

     Current dimensions of program PWSCF are:
     Max number of different atomic species (ntypx) = 10
     Max number of k-points (npk) =  40000
     Max angular momentum in pseudopotentials (lmaxx) =  3
               file Fe.pbe-spn-kjpaw_psl.1.0.0.UPF: wavefunction(s)  3P 3D renormalized

     Subspace diagonalization in iterative solution of the eigenvalue problem:
     a serial algorithm will be used

 
     Parallelization info
     --------------------
     sticks:   dense  smooth     PW     G-vecs:    dense   smooth      PW
     Min          92      61     17                 4224     2267     337
     Max          93      62     18                 4229     2270     341
     Sum        3705    2445    681               169053    90751   13573
 


     bravais-lattice index     =            0
     lattice parameter (alat)  =      10.3915  a.u.
     unit-cell volume          =    1122.0973 (a.u.)^3
     number of atoms/cell      =           16
     number of atomic types    =            1
     number of electrons       =       256.00
     number of Kohn-Sham states=          154
     kinetic-energy cutoff     =      71.0000  Ry
     charge density cutoff     =     430.0000  Ry
     convergence threshold     =      5.0E-05
     mixing beta               =       0.1000
     number of iterations used =           10  plain     mixing
     Exchange-correlation      = SLA PW PBX PBC ( 1  4  3  4 0 0)

     celldm(1)=  10.391466  celldm(2)=   0.000000  celldm(3)=   0.000000
     celldm(4)=   0.000000  celldm(5)=   0.000000  celldm(6)=   0.000000

     crystal axes: (cart. coord. in units of alat)
               a(1) = (   1.000001   0.000000   0.000000 )  
               a(2) = (   0.000000   1.001251   0.000000 )  
               a(3) = (   0.000000   0.000000   0.998751 )  

     reciprocal axes: (cart. coord. in units 2 pi/alat)
               b(1) = (  0.999999  0.000000  0.000000 )  
               b(2) = (  0.000000  0.998751  0.000000 )  
               b(3) = (  0.000000  0.000000  1.001251 )  


     PseudoPot. # 1 for Fe read from file:
     /rds/homes/b/bxp912/pp/Fe.pbe-spn-kjpaw_psl.1.0.0.UPF
     MD5 check sum: 42f43b795421b414b0dc916aa790dbcb
     Pseudo is Projector augmented-wave + core cor, Zval = 16.0
     Generated using "atomic" code by A. Dal Corso v.6.3
     Shape of augmentation charge: PSQ
     Using radial grid of 1191 points,  6 beta functions with: 
                l(1) =   0
                l(2) =   0
                l(3) =   1
                l(4) =   1
                l(5) =   2
                l(6) =   2
     Q(r) pseudized with 0 coefficients 


     atomic species   valence    mass     pseudopotential
        Fe            16.00    55.84500     Fe( 1.00)

      8 Sym. Ops., with inversion, found



   Cartesian axes

     site n.     atom                  positions (alat units)
         1           Fe  tau(   1) = (   0.0000000   0.0000000   0.0000000  )
         2           Fe  tau(   2) = (   0.2500090   0.2503216   0.2496965  )
         3           Fe  tau(   3) = (   0.0000000   0.0000000   0.4993748  )
         4           Fe  tau(   4) = (   0.2500090   0.2503216   0.7490540  )
         5           Fe  tau(   5) = (   0.0000000   0.5006254   0.0000000  )
         6           Fe  tau(   6) = (   0.2500090   0.7509291   0.2496965  )
         7           Fe  tau(   7) = (   0.0000000   0.5006254   0.4993748  )
         8           Fe  tau(   8) = (   0.2500090   0.7509291   0.7490540  )
         9           Fe  tau(   9) = (   0.5000004   0.0000000   0.0000000  )
        10           Fe  tau(  10) = (   0.7499916   0.2503216   0.2496965  )
        11           Fe  tau(  11) = (   0.5000004   0.0000000   0.4993748  )
        12           Fe  tau(  12) = (   0.7499916   0.2503216   0.7490540  )
        13           Fe  tau(  13) = (   0.5000004   0.5006254   0.0000000  )
        14           Fe  tau(  14) = (   0.7499916   0.7509291   0.2496965  )
        15           Fe  tau(  15) = (   0.5000004   0.5006254   0.4993748  )
        16           Fe  tau(  16) = (   0.7499916   0.7509291   0.7490540  )

     number of k points=   125  Marzari-Vanderbilt smearing, width (Ry)=  0.0400

     Number of k-points >= 100: set verbosity='high' to print them.

     Dense  grid:   169053 G-vectors     FFT dimensions: (  72,  72,  72)

     Smooth grid:    90751 G-vectors     FFT dimensions: (  60,  60,  60)

     Estimated max dynamical RAM per process >     116.53 MB

     Estimated total dynamical RAM >       4.55 GB

     Check: negative/imaginary core charge=   -0.000006    0.000000

     Initial potential from superposition of free atoms

     starting charge  255.99300, renormalised to  256.00000
     Starting wfcs are  160 randomized atomic wfcs
     Checking if some PAW data can be deallocated... 

     total cpu time spent up to now is       11.8 secs

     Self-consistent Calculation

     iteration #  1     ecut=    71.00 Ry     beta= 0.10
     Davidson diagonalization with overlap
     ethr =  1.00E-02,  avg # of iterations =  3.4

     Threshold (ethr) on eigenvalues was too large:
     Diagonalizing with lowered threshold

     Davidson diagonalization with overlap
     ethr =  2.55E-04,  avg # of iterations =  3.1

     total cpu time spent up to now is      102.6 secs

     total energy              =   -5267.75206488 Ry
     Harris-Foulkes estimate   =   -5267.86765064 Ry
     estimated scf accuracy    <       0.73287338 Ry

     iteration #  2     ecut=    71.00 Ry     beta= 0.10
     Davidson diagonalization with overlap
     ethr =  2.86E-04,  avg # of iterations =  1.0

     total cpu time spent up to now is      129.7 secs

     total energy              =   -5267.61788776 Ry
     Harris-Foulkes estimate   =   -5267.76733250 Ry
     estimated scf accuracy    <       0.36363990 Ry

     iteration #  3     ecut=    71.00 Ry     beta= 0.10
     Davidson diagonalization with overlap
     ethr =  1.42E-04,  avg # of iterations =  3.2

     total cpu time spent up to now is      180.7 secs

     total energy              =   -5267.69844798 Ry
     Harris-Foulkes estimate   =   -5267.72169515 Ry
     estimated scf accuracy    <       0.55352080 Ry

     iteration #  4     ecut=    71.00 Ry     beta= 0.10
     Davidson diagonalization with overlap
     ethr =  1.42E-04,  avg # of iterations =  1.0

     total cpu time spent up to now is      208.0 secs

     total energy              =   -5267.70516610 Ry
     Harris-Foulkes estimate   =   -5267.71089916 Ry
     estimated scf accuracy    <       0.03029433 Ry

     iteration #  5     ecut=    71.00 Ry     beta= 0.10
     Davidson diagonalization with overlap
     ethr =  1.18E-05,  avg # of iterations =  2.0

     total cpu time spent up to now is      241.7 secs

     total energy              =   -5267.70444063 Ry
     Harris-Foulkes estimate   =   -5267.70720526 Ry
     estimated scf accuracy    <       0.02275931 Ry

     iteration #  6     ecut=    71.00 Ry     beta= 0.10
     Davidson diagonalization with overlap
     ethr =  8.89E-06,  avg # of iterations =  3.0

     total cpu time spent up to now is      286.5 secs

     total energy              =   -5267.70708532 Ry
     Harris-Foulkes estimate   =   -5267.70731871 Ry
     estimated scf accuracy    <       0.01197591 Ry

     iteration #  7     ecut=    71.00 Ry     beta= 0.10
     Davidson diagonalization with overlap
     ethr =  4.68E-06,  avg # of iterations =  1.0

     total cpu time spent up to now is      313.9 secs

     total energy              =   -5267.70663497 Ry
     Harris-Foulkes estimate   =   -5267.70760749 Ry
     estimated scf accuracy    <       0.01480966 Ry

     iteration #  8     ecut=    71.00 Ry     beta= 0.10
     Davidson diagonalization with overlap
     ethr =  4.68E-06,  avg # of iterations =  1.2

     total cpu time spent up to now is      342.4 secs

     total energy              =   -5267.70715622 Ry
     Harris-Foulkes estimate   =   -5267.70726552 Ry
     estimated scf accuracy    <       0.00255746 Ry

     iteration #  9     ecut=    71.00 Ry     beta= 0.10
     Davidson diagonalization with overlap
     ethr =  9.99E-07,  avg # of iterations =  2.3

     total cpu time spent up to now is      377.3 secs

     total energy              =   -5267.70725820 Ry
     Harris-Foulkes estimate   =   -5267.70727528 Ry
     estimated scf accuracy    <       0.00052235 Ry

     iteration # 10     ecut=    71.00 Ry     beta= 0.10
     Davidson diagonalization with overlap
     ethr =  2.04E-07,  avg # of iterations =  1.9

     total cpu time spent up to now is      409.9 secs

     total energy              =   -5267.70725266 Ry
     Harris-Foulkes estimate   =   -5267.70727458 Ry
     estimated scf accuracy    <       0.00025071 Ry

     iteration # 11     ecut=    71.00 Ry     beta= 0.10
     Davidson diagonalization with overlap
     ethr =  9.79E-08,  avg # of iterations =  1.0

     total cpu time spent up to now is      437.2 secs

     total energy              =   -5267.70723892 Ry
     Harris-Foulkes estimate   =   -5267.70726627 Ry
     estimated scf accuracy    <       0.00020424 Ry

     iteration # 12     ecut=    71.00 Ry     beta= 0.10
     Davidson diagonalization with overlap
     ethr =  7.98E-08,  avg # of iterations =  1.0

     total cpu time spent up to now is      465.0 secs

     total energy              =   -5267.70724632 Ry
     Harris-Foulkes estimate   =   -5267.70724951 Ry
     estimated scf accuracy    <       0.00006889 Ry

     iteration # 13     ecut=    71.00 Ry     beta= 0.10
     Davidson diagonalization with overlap
     ethr =  2.69E-08,  avg # of iterations =  1.4

     total cpu time spent up to now is      494.8 secs

     End of self-consistent calculation

     Number of k-points >= 100: set verbosity='high' to print the bands.

     the Fermi energy is    20.5165 ev

!    total energy              =   -5267.70724565 Ry
     Harris-Foulkes estimate   =   -5267.70724888 Ry
     estimated scf accuracy    <       0.00000480 Ry

     total all-electron energy =    -40728.451775 Ry

     The total energy is the sum of the following terms:

     one-electron contribution =   -1620.04621844 Ry
     hartree contribution      =     989.16251205 Ry
     xc contribution           =    -442.98279567 Ry
     ewald contribution        =   -2868.95001087 Ry
     one-center paw contrib.   =   -1324.75995733 Ry
     smearing contrib. (-TS)   =      -0.13077539 Ry

     convergence has been achieved in  13 iterations

     Forces acting on atoms (cartesian axes, Ry/au):

     atom    1 type  1   force =     0.00000000    0.00000000    0.00000000
     atom    2 type  1   force =     0.00014311   -0.00024950    0.00007457
     atom    3 type  1   force =     0.00000000    0.00000000    0.00000000
     atom    4 type  1   force =     0.00014311   -0.00024950   -0.00007457
     atom    5 type  1   force =     0.00000000    0.00000000    0.00000000
     atom    6 type  1   force =     0.00014311    0.00024950    0.00007457
     atom    7 type  1   force =     0.00000000    0.00000000    0.00000000
     atom    8 type  1   force =     0.00014311    0.00024950   -0.00007457
     atom    9 type  1   force =     0.00000000    0.00000000    0.00000000
     atom   10 type  1   force =    -0.00014311   -0.00024950    0.00007457
     atom   11 type  1   force =     0.00000000    0.00000000    0.00000000
     atom   12 type  1   force =    -0.00014311   -0.00024950   -0.00007457
     atom   13 type  1   force =     0.00000000    0.00000000    0.00000000
     atom   14 type  1   force =    -0.00014311    0.00024950    0.00007457
     atom   15 type  1   force =     0.00000000    0.00000000    0.00000000
     atom   16 type  1   force =    -0.00014311    0.00024950   -0.00007457

     Total force =     0.000840     Total SCF correction =     0.003220
     SCF correction compared to forces is large: reduce conv_thr to get better values


     Computing stress (Cartesian axis) and pressure

          total   stress  (Ry/bohr**3)                   (kbar)     P=    3.05
   0.00001725   0.00000000   0.00000000          2.54      0.00      0.00
   0.00000000   0.00004400   0.00000000          0.00      6.47      0.00
   0.00000000   0.00000000   0.00000085          0.00      0.00      0.13


     Writing output data file vyfkFGgApVxxEsVV.save/
 
     init_run     :     10.48s CPU     11.03s WALL (       1 calls)
     electrons    :    467.15s CPU    483.10s WALL (       1 calls)
     forces       :      3.77s CPU      4.12s WALL (       1 calls)
     stress       :      9.73s CPU      9.88s WALL (       1 calls)

     Called by init_run:
     wfcinit      :     10.19s CPU     10.65s WALL (       1 calls)
     potinit      :      0.10s CPU      0.13s WALL (       1 calls)
     hinit0       :      0.10s CPU      0.13s WALL (       1 calls)

     Called by electrons:
     c_bands      :    417.99s CPU    431.11s WALL (      14 calls)
     sum_band     :     47.90s CPU     50.40s WALL (      14 calls)
     v_of_rho     :      0.10s CPU      0.24s WALL (      14 calls)
     newd         :      0.19s CPU      0.26s WALL (      14 calls)
     PAW_pot      :      0.99s CPU      1.07s WALL (      14 calls)
     mix_rho      :      0.04s CPU      0.07s WALL (      14 calls)

     Called by c_bands:
     init_us_2    :      2.49s CPU      2.53s WALL (    3875 calls)
     cegterg      :    405.96s CPU    418.93s WALL (    1750 calls)

     Called by sum_band:
     sum_band:bec :      0.72s CPU      0.73s WALL (    1750 calls)
     addusdens    :      0.20s CPU      0.26s WALL (      14 calls)

     Called by *egterg:
     h_psi        :    186.67s CPU    194.90s WALL (    5201 calls)
     s_psi        :     10.08s CPU     10.16s WALL (    5201 calls)
     g_psi        :      0.40s CPU      0.41s WALL (    3326 calls)
     cdiaghg      :    171.17s CPU    171.75s WALL (    4951 calls)

     Called by h_psi:
     h_psi:pot    :    185.64s CPU    193.85s WALL (    5201 calls)
     h_psi:calbec :     14.97s CPU     17.55s WALL (    5201 calls)
     vloc_psi     :    160.59s CPU    166.16s WALL (    5201 calls)
     add_vuspsi   :     10.03s CPU     10.11s WALL (    5201 calls)

     General routines
     calbec       :     23.90s CPU     28.06s WALL (    7576 calls)
     fft          :      0.13s CPU      0.36s WALL (     207 calls)
     ffts         :      0.01s CPU      0.07s WALL (      28 calls)
     fftw         :    187.84s CPU    194.29s WALL ( 1450952 calls)
     interpolate  :      0.02s CPU      0.04s WALL (      14 calls)
 
     Parallel routines
     fft_scatt_xy :     12.72s CPU     13.13s WALL ( 1451187 calls)
     fft_scatt_yz :    125.80s CPU    130.42s WALL ( 1451187 calls)
 
     PWSCF        :  8m19.29s CPU     8m54.44s WALL

 
   This run was terminated on:  14:42:57   5Sep2020            

=------------------------------------------------------------------------------=
   JOB DONE.
=------------------------------------------------------------------------------=
