
     Program PWSCF v.6.4.1 starts on 14May2021 at 12:12: 9 

     This program is part of the open-source Quantum ESPRESSO suite
     for quantum simulation of materials; please cite
         "P. Giannozzi et al., J. Phys.:Condens. Matter 21 395502 (2009);
         "P. Giannozzi et al., J. Phys.:Condens. Matter 29 465901 (2017);
          URL http://www.quantum-espresso.org", 
     in publications or presentations arising from this work. More details at
     http://www.quantum-espresso.org/quote

     Parallel version (MPI), running on     1 processors

     MPI processes distributed on     1 nodes
     Reading input from /cloud/Code/python/qeeos/examples/aluminium/wd/eos/eos_004.in
Warning: card &IONS ignored
Warning: card ION_DYNAMICS = 'BFGS', ignored
Warning: card / ignored
Warning: card &CELL ignored
Warning: card CELL_DYNAMICS = 'BFGS', ignored
Warning: card CELL_FACTOR = 2.0, ignored
Warning: card PRESS = 0.0, ignored
Warning: card / ignored

     Current dimensions of program PWSCF are:
     Max number of different atomic species (ntypx) = 10
     Max number of k-points (npk) =  40000
     Max angular momentum in pseudopotentials (lmaxx) =  3
               file Al.pbe-nl-kjpaw_psl.1.0.0.UPF: wavefunction(s)  3S 3P renormalized

     Subspace diagonalization in iterative solution of the eigenvalue problem:
     a serial algorithm will be used

     Found symmetry operation: I + ( -0.5000 -0.5000  0.0000)
     This is a supercell, fractional translations are disabled
     Message from routine setup:
     DEPRECATED: symmetry with ibrav=0, use correct ibrav instead

     G-vector sticks info
     --------------------
     sticks:   dense  smooth     PW     G-vecs:    dense   smooth      PW
     Sum         933     933    285                21079    21079    3575



     bravais-lattice index     =            0
     lattice parameter (alat)  =       7.6308  a.u.
     unit-cell volume          =     441.6766 (a.u.)^3
     number of atoms/cell      =            4
     number of atomic types    =            1
     number of electrons       =        12.00
     number of Kohn-Sham states=           10
     kinetic-energy cutoff     =      50.0000  Ry
     charge density cutoff     =     200.0000  Ry
     convergence threshold     =      1.0E-06
     mixing beta               =       0.1000
     number of iterations used =           10  plain     mixing
     Exchange-correlation      = SLA PW PBX PBC ( 1  4  3  4 0 0)

     celldm(1)=   7.630815  celldm(2)=   0.000000  celldm(3)=   0.000000
     celldm(4)=   0.000000  celldm(5)=   0.000000  celldm(6)=   0.000000

     crystal axes: (cart. coord. in units of alat)
               a(1) = (   0.998000   0.000000   0.000000 )  
               a(2) = (   0.000000   0.998000   0.000000 )  
               a(3) = (   0.000000   0.000000   0.998000 )  

     reciprocal axes: (cart. coord. in units 2 pi/alat)
               b(1) = (  1.002004  0.000000  0.000000 )  
               b(2) = (  0.000000  1.002004  0.000000 )  
               b(3) = (  0.000000  0.000000  1.002004 )  


     PseudoPot. # 1 for Al read from file:
     /opt/pp/Al.pbe-nl-kjpaw_psl.1.0.0.UPF
     MD5 check sum: 1b67f78b73fe58c7924490f171ce8a1e
     Pseudo is Projector augmented-wave + core cor, Zval =  3.0
     Generated using "atomic" code by A. Dal Corso v.6.3
     Shape of augmentation charge: PSQ
     Using radial grid of 1135 points,  4 beta functions with: 
                l(1) =   0
                l(2) =   0
                l(3) =   1
                l(4) =   1
     Q(r) pseudized with 0 coefficients 


     atomic species   valence    mass     pseudopotential
        Al             3.00    26.98200     Al( 1.00)

     48 Sym. Ops., with inversion, found



   Cartesian axes

     site n.     atom                  positions (alat units)
         1           Al  tau(   1) = (   0.0000000   0.0000000   0.0000000  )
         2           Al  tau(   2) = (   0.4990001   0.4990001   0.0000000  )
         3           Al  tau(   3) = (   0.4990001   0.0000000   0.4990000  )
         4           Al  tau(   4) = (   0.0000000   0.4990001   0.4990000  )

     number of k points=    56  Marzari-Vanderbilt smearing, width (Ry)=  0.0400
                       cart. coord. in units 2pi/alat
        k(    1) = (   0.0455456   0.0455456   0.0455456), wk =   0.0120210
        k(    2) = (   0.0455456   0.0455456   0.1366369), wk =   0.0360631
        k(    3) = (   0.0455456   0.0455456   0.2277282), wk =   0.0360631
        k(    4) = (   0.0455456   0.0455456   0.3188195), wk =   0.0360631
        k(    5) = (   0.0455456   0.0455456   0.4099107), wk =   0.0360631
        k(    6) = (   0.0455456   0.0455456  -0.5010020), wk =   0.0180316
        k(    7) = (   0.0455456   0.1366369   0.1366369), wk =   0.0360631
        k(    8) = (   0.0455456   0.1366369   0.2277282), wk =   0.0721262
        k(    9) = (   0.0455456   0.1366369   0.3188195), wk =   0.0721262
        k(   10) = (   0.0455456   0.1366369   0.4099107), wk =   0.0721262
        k(   11) = (   0.0455456   0.1366369  -0.5010020), wk =   0.0360631
        k(   12) = (   0.0455456   0.2277282   0.2277282), wk =   0.0360631
        k(   13) = (   0.0455456   0.2277282   0.3188195), wk =   0.0721262
        k(   14) = (   0.0455456   0.2277282   0.4099107), wk =   0.0721262
        k(   15) = (   0.0455456   0.2277282  -0.5010020), wk =   0.0360631
        k(   16) = (   0.0455456   0.3188195   0.3188195), wk =   0.0360631
        k(   17) = (   0.0455456   0.3188195   0.4099107), wk =   0.0721262
        k(   18) = (   0.0455456   0.3188195  -0.5010020), wk =   0.0360631
        k(   19) = (   0.0455456   0.4099107   0.4099107), wk =   0.0360631
        k(   20) = (   0.0455456   0.4099107  -0.5010020), wk =   0.0360631
        k(   21) = (   0.0455456  -0.5010020  -0.5010020), wk =   0.0090158
        k(   22) = (   0.1366369   0.1366369   0.1366369), wk =   0.0120210
        k(   23) = (   0.1366369   0.1366369   0.2277282), wk =   0.0360631
        k(   24) = (   0.1366369   0.1366369   0.3188195), wk =   0.0360631
        k(   25) = (   0.1366369   0.1366369   0.4099107), wk =   0.0360631
        k(   26) = (   0.1366369   0.1366369  -0.5010020), wk =   0.0180316
        k(   27) = (   0.1366369   0.2277282   0.2277282), wk =   0.0360631
        k(   28) = (   0.1366369   0.2277282   0.3188195), wk =   0.0721262
        k(   29) = (   0.1366369   0.2277282   0.4099107), wk =   0.0721262
        k(   30) = (   0.1366369   0.2277282  -0.5010020), wk =   0.0360631
        k(   31) = (   0.1366369   0.3188195   0.3188195), wk =   0.0360631
        k(   32) = (   0.1366369   0.3188195   0.4099107), wk =   0.0721262
        k(   33) = (   0.1366369   0.3188195  -0.5010020), wk =   0.0360631
        k(   34) = (   0.1366369   0.4099107   0.4099107), wk =   0.0360631
        k(   35) = (   0.1366369   0.4099107  -0.5010020), wk =   0.0360631
        k(   36) = (   0.1366369  -0.5010020  -0.5010020), wk =   0.0090158
        k(   37) = (   0.2277282   0.2277282   0.2277282), wk =   0.0120210
        k(   38) = (   0.2277282   0.2277282   0.3188195), wk =   0.0360631
        k(   39) = (   0.2277282   0.2277282   0.4099107), wk =   0.0360631
        k(   40) = (   0.2277282   0.2277282  -0.5010020), wk =   0.0180316
        k(   41) = (   0.2277282   0.3188195   0.3188195), wk =   0.0360631
        k(   42) = (   0.2277282   0.3188195   0.4099107), wk =   0.0721262
        k(   43) = (   0.2277282   0.3188195  -0.5010020), wk =   0.0360631
        k(   44) = (   0.2277282   0.4099107   0.4099107), wk =   0.0360631
        k(   45) = (   0.2277282   0.4099107  -0.5010020), wk =   0.0360631
        k(   46) = (   0.2277282  -0.5010020  -0.5010020), wk =   0.0090158
        k(   47) = (   0.3188195   0.3188195   0.3188195), wk =   0.0120210
        k(   48) = (   0.3188195   0.3188195   0.4099107), wk =   0.0360631
        k(   49) = (   0.3188195   0.3188195  -0.5010020), wk =   0.0180316
        k(   50) = (   0.3188195   0.4099107   0.4099107), wk =   0.0360631
        k(   51) = (   0.3188195   0.4099107  -0.5010020), wk =   0.0360631
        k(   52) = (   0.3188195  -0.5010020  -0.5010020), wk =   0.0090158
        k(   53) = (   0.4099107   0.4099107   0.4099107), wk =   0.0120210
        k(   54) = (   0.4099107   0.4099107  -0.5010020), wk =   0.0180316
        k(   55) = (   0.4099107  -0.5010020  -0.5010020), wk =   0.0090158
        k(   56) = (  -0.5010020  -0.5010020  -0.5010020), wk =   0.0015026

     Dense  grid:    21079 G-vectors     FFT dimensions: (  36,  36,  36)

     Estimated max dynamical RAM per process >      55.08 MB

     Initial potential from superposition of free atoms

     starting charge   11.99084, renormalised to   12.00000
     Starting wfcs are   16 randomized atomic wfcs
     Checking if some PAW data can be deallocated... 

     total cpu time spent up to now is        1.8 secs

     Self-consistent Calculation

     iteration #  1     ecut=    50.00 Ry     beta= 0.10
     Davidson diagonalization with overlap
     ethr =  1.00E-02,  avg # of iterations =  3.3

     Threshold (ethr) on eigenvalues was too large:
     Diagonalizing with lowered threshold

     Davidson diagonalization with overlap
     ethr =  1.95E-04,  avg # of iterations =  3.2

     total cpu time spent up to now is        6.8 secs

     total energy              =    -158.01594585 Ry
     Harris-Foulkes estimate   =    -158.01713559 Ry
     estimated scf accuracy    <       0.02258400 Ry

     iteration #  2     ecut=    50.00 Ry     beta= 0.10
     Davidson diagonalization with overlap
     ethr =  1.88E-04,  avg # of iterations =  1.0

     total cpu time spent up to now is        8.6 secs

     total energy              =    -158.01091465 Ry
     Harris-Foulkes estimate   =    -158.01605574 Ry
     estimated scf accuracy    <       0.01802182 Ry

     iteration #  3     ecut=    50.00 Ry     beta= 0.10
     Davidson diagonalization with overlap
     ethr =  1.50E-04,  avg # of iterations =  1.0

     total cpu time spent up to now is       10.4 secs

     total energy              =    -158.01126151 Ry
     Harris-Foulkes estimate   =    -158.01125676 Ry
     estimated scf accuracy    <       0.00004621 Ry

     iteration #  4     ecut=    50.00 Ry     beta= 0.10
     Davidson diagonalization with overlap
     ethr =  3.85E-07,  avg # of iterations =  4.2

     total cpu time spent up to now is       13.7 secs

     total energy              =    -158.01148113 Ry
     Harris-Foulkes estimate   =    -158.01134080 Ry
     estimated scf accuracy    <       0.00003411 Ry

     iteration #  5     ecut=    50.00 Ry     beta= 0.10
     Davidson diagonalization with overlap
     ethr =  2.84E-07,  avg # of iterations =  2.2

     total cpu time spent up to now is       16.0 secs

     total energy              =    -158.01131165 Ry
     Harris-Foulkes estimate   =    -158.01148926 Ry
     estimated scf accuracy    <       0.00040099 Ry

     iteration #  6     ecut=    50.00 Ry     beta= 0.10
     Davidson diagonalization with overlap
     ethr =  2.84E-07,  avg # of iterations =  2.8

     total cpu time spent up to now is       18.5 secs

     End of self-consistent calculation

          k = 0.0455 0.0455 0.0455 (  2613 PWs)   bands (ev):

    -3.1496   4.7313   4.7313   4.7313   6.8072   6.8072   6.8072  12.2887
    12.2888  12.2888

          k = 0.0455 0.0455 0.1366 (  2628 PWs)   bands (ev):

    -2.9991   3.4386   4.8712   4.8712   6.9495   6.9495   8.3596  10.9966
    10.9966  12.4283

          k = 0.0455 0.0455 0.2277 (  2638 PWs)   bands (ev):

    -2.6984   2.1630   5.1508   5.1509   7.2306   7.2306   9.7680   9.7680
    10.1538  11.9135

          k = 0.0455 0.0455 0.3188 (  2647 PWs)   bands (ev):

    -2.2486   1.0042   5.5696   5.5696   7.6338   7.6338   8.6764   8.6764
    10.8796  10.8798

          k = 0.0455 0.0455 0.4099 (  2650 PWs)   bands (ev):

    -1.6511  -0.0216   6.1256   6.1256   7.6280   7.6281   8.2371   8.2373
     9.9711   9.9714

          k = 0.0455 0.0455-0.5010 (  2648 PWs)   bands (ev):

    -0.9081  -0.9076   6.7507   6.7512   6.8933   6.8938   8.6035   8.6038
     9.4460   9.4465

          k = 0.0455 0.1366 0.1366 (  2639 PWs)   bands (ev):

    -2.8487   3.5817   3.5817   5.0110   7.0882   8.4962   8.4962   9.7821
    11.1371  11.1372

          k = 0.0455 0.1366 0.2277 (  2647 PWs)   bands (ev):

    -2.5483   2.3078   3.8674   5.2902   7.3489   8.5897   8.7596   9.9157
    10.2782  11.4226

          k = 0.0455 0.1366 0.3188 (  2649 PWs)   bands (ev):

    -2.0990   1.1504   4.2948   5.7070   7.3102   7.9482   8.7388   9.2215
    11.0416  11.7867

          k = 0.0455 0.1366 0.4099 (  2639 PWs)   bands (ev):

    -1.5021   0.1257   4.8620   6.2183   6.4609   7.8044   8.4225   9.5341
    10.2994  11.3925

          k = 0.0455 0.1366-0.5010 (  2652 PWs)   bands (ev):

    -0.7599  -0.7594   5.5639   5.5644   6.9759   6.9764   9.0738   9.0742
    10.6164  10.6169

          k = 0.0455 0.2277 0.2277 (  2649 PWs)   bands (ev):

    -2.2486   2.5971   2.5971   5.5673   7.1818   7.8246  10.1287  10.1288
    10.5931  10.5932

          k = 0.0455 0.2277 0.3188 (  2648 PWs)   bands (ev):

    -1.8003   1.4423   3.0299   5.9414   6.2032   8.1611   9.0564  10.5817
    10.7863  11.4960

          k = 0.0455 0.2277 0.4099 (  2637 PWs)   bands (ev):

    -1.2046   0.4199   3.6046   5.1657   6.5607   8.0878   8.7147  10.1986
    11.1411  11.6807

          k = 0.0455 0.2277-0.5010 (  2638 PWs)   bands (ev):

    -0.4639  -0.4635   4.3183   4.3188   7.2539   7.2544   9.4054   9.4058
    11.8347  11.8352

          k = 0.0455 0.3188 0.3188 (  2642 PWs)   bands (ev):

    -1.3533   1.8791   1.8791   5.0294   6.4215   8.5798   9.4786   9.4787
    11.5802  11.5804

          k = 0.0455 0.3188 0.4099 (  2636 PWs)   bands (ev):

    -0.7595   0.8599   2.4593   4.0400   6.9762   8.5074   9.1438  10.0365
    10.6643  11.5628

          k = 0.0455 0.3188-0.5010 (  2632 PWs)   bands (ev):

    -0.0211  -0.0206   3.1806   3.1810   7.6723   7.6728   9.8423   9.8427
    10.7312  10.7317

          k = 0.0455 0.4099 0.4099 (  2638 PWs)   bands (ev):

    -0.1682   1.4446   1.4446   3.0385   7.5336   9.0651   9.0652   9.7098
    10.5941  11.2332

          k = 0.0455 0.4099-0.5010 (  2628 PWs)   bands (ev):

     0.5672   0.5677   2.1715   2.1720   8.2300   8.2306   9.7607   9.7612
    10.4086  10.4090

          k = 0.0455-0.5010-0.5010 (  2652 PWs)   bands (ev):

     1.2987   1.2992   1.2992   1.2997   8.9262   8.9267   8.9267   8.9273
    11.1049  11.1051

          k = 0.1366 0.1366 0.1366 (  2638 PWs)   bands (ev):

    -2.6984   3.7246   3.7246   3.7246   8.6200   8.6200   8.6200   9.9357
     9.9357   9.9358

          k = 0.1366 0.1366 0.2277 (  2646 PWs)   bands (ev):

    -2.3984   2.4525   4.0098   4.0098   8.5532   8.5533   9.0641   9.0641
    10.0746  10.5498

          k = 0.1366 0.1366 0.3188 (  2645 PWs)   bands (ev):

    -1.9496   1.2964   4.4361   4.4361   7.5420   7.5421   9.3817   9.3818
    10.5767  12.3950

          k = 0.1366 0.1366 0.4099 (  2643 PWs)   bands (ev):

    -1.3533   0.2729   4.9991   4.9991   6.5770   6.5772   9.9020   9.9021
    11.1412  11.5525

          k = 0.1366 0.1366-0.5010 (  2642 PWs)   bands (ev):

    -0.6119  -0.6114   5.5787   5.5792   5.8612   5.8617  10.3368  10.3372
    10.9889  10.9895

          k = 0.1366 0.2277 0.2277 (  2645 PWs)   bands (ev):

    -2.0990   2.7415   2.7415   4.2938   7.4235   8.9336   8.9337   9.2561
    10.7463  10.7463

          k = 0.1366 0.2277 0.3188 (  2642 PWs)   bands (ev):

    -1.6511   1.5881   3.1736   4.7156   6.3235   7.8345   9.3643   9.6655
    11.1295  12.4167

          k = 0.1366 0.2277 0.4099 (  2633 PWs)   bands (ev):

    -1.0561   0.5667   3.7471   5.1661   5.4555   6.8584   9.9262  10.2144
    11.4488  11.4543

          k = 0.1366 0.2277-0.5010 (  2634 PWs)   bands (ev):

    -0.3162  -0.3157   4.4564   4.4568   6.0193   6.0198  10.6229  10.6234
    10.8796  10.8800

          k = 0.1366 0.3188 0.3188 (  2636 PWs)   bands (ev):

    -1.2046   2.0244   2.0244   5.0275   5.3167   8.2592   8.2593  10.0863
    11.3233  12.8400

          k = 0.1366 0.3188 0.4099 (  2632 PWs)   bands (ev):

    -0.6114   1.0064   2.6039   4.1787   5.7377   7.2815   8.8215  10.3559
    10.6420  12.1220

          k = 0.1366 0.3188-0.5010 (  2628 PWs)   bands (ev):

     0.1262   0.1267   3.3238   3.3242   6.4385   6.4390   9.5207   9.5212
    11.3263  11.3268

          k = 0.1366 0.4099 0.4099 (  2633 PWs)   bands (ev):

    -0.0207   1.5904   1.5904   3.1819   6.2981   7.8446   7.8447   9.3845
    11.2000  12.6957

          k = 0.1366 0.4099-0.5010 (  2628 PWs)   bands (ev):

     0.7139   0.7144   2.3165   2.3169   7.0019   7.0024   8.5460   8.5465
    11.8869  11.8873

          k = 0.1366-0.5010-0.5010 (  2636 PWs)   bands (ev):

     1.4447   1.4452   1.4452   1.4457   7.7051   7.7055   7.7055   7.7061
    12.5732  12.5733

          k = 0.2277 0.2277 0.2277 (  2635 PWs)   bands (ev):

    -1.8003   3.0297   3.0297   3.0297   7.7177   7.7177   7.7178  11.0237
    11.0237  11.0237

          k = 0.2277 0.2277 0.3188 (  2634 PWs)   bands (ev):

    -1.3533   1.8791   3.4603   3.4603   6.6060   6.6060   8.1436  11.2106
    11.4331  11.4331

          k = 0.2277 0.2277 0.4099 (  2644 PWs)   bands (ev):

    -0.7595   0.8600   4.0289   4.0290   5.6245   5.6246   8.7068  10.2429
    11.9609  11.9610

          k = 0.2277 0.2277-0.5010 (  2636 PWs)   bands (ev):

    -0.0211  -0.0206   4.6140   4.6145   4.9009   4.9014   9.4069   9.4074
    12.4172  12.9601

          k = 0.2277 0.3188 0.3188 (  2634 PWs)   bands (ev):

    -0.9077   2.3144   2.3144   3.8861   5.4887   7.0306   7.0306  10.1119
    11.8524  13.3344

          k = 0.2277 0.3188 0.4099 (  2632 PWs)   bands (ev):

    -0.3157   1.2987   2.8922   4.3364   4.6166   6.0457   7.5955   9.1391
    12.3977  13.6629

          k = 0.2277 0.3188-0.5010 (  2626 PWs)   bands (ev):

     0.4204   0.4209   3.6073   3.6077   5.1991   5.1996   8.2988   8.2993
    13.0570  13.0575

          k = 0.2277 0.4099 0.4099 (  2621 PWs)   bands (ev):

     0.2738   1.8815   1.8815   3.4660   5.0570   6.6118   6.6118   8.1618
    12.9486  14.3956

          k = 0.2277 0.4099-0.5010 (  2626 PWs)   bands (ev):

     1.0069   1.0074   2.6056   2.6060   5.7632   5.7636   7.3179   7.3184
    13.6197  13.6202

          k = 0.2277-0.5010-0.5010 (  2640 PWs)   bands (ev):

     1.7362   1.7366   1.7366   1.7371   6.4710   6.4714   6.4714   6.4720
    14.2926  14.2928

          k = 0.3188 0.3188 0.3188 (  2638 PWs)   bands (ev):

    -0.4634   2.7479   2.7479   2.7479   5.9105   5.9105   5.9106   9.0073
    13.7557  13.7557

          k = 0.3188 0.3188 0.4099 (  2623 PWs)   bands (ev):

     0.1267   1.7361   3.3209   3.3209   4.9219   4.9220   6.4774   8.0292
    14.2810  14.2810

          k = 0.3188 0.3188-0.5010 (  2632 PWs)   bands (ev):

     0.8606   0.8611   3.9189   3.9193   4.1845   4.1851   7.1843   7.1848
    15.1546  15.1555

          k = 0.3188 0.4099 0.4099 (  2624 PWs)   bands (ev):

     0.7145   2.3166   2.3166   3.7798   4.0395   5.4878   5.4878   7.0462
    14.8253  16.0916

          k = 0.3188 0.4099-0.5010 (  2628 PWs)   bands (ev):

     1.4453   1.4458   3.0358   3.0362   4.6364   4.6369   6.1974   6.1979
    15.4654  15.4659

          k = 0.3188-0.5010-0.5010 (  2616 PWs)   bands (ev):

     2.1719   2.1724   2.1724   2.1728   5.3457   5.3462   5.3462   5.3467
    16.1161  16.1165

          k = 0.4099 0.4099 0.4099 (  2632 PWs)   bands (ev):

     1.2998   2.8922   2.8923   2.8923   4.4952   4.4952   4.4954   6.0583
    16.7819  16.7820

          k = 0.4099 0.4099-0.5010 (  2614 PWs)   bands (ev):

     2.0272   2.0277   3.5007   3.5012   3.7469   3.7474   5.2056   5.2061
    17.4472  17.4479

          k = 0.4099-0.5010-0.5010 (  2596 PWs)   bands (ev):

     2.7484   2.7489   2.7489   2.7493   4.3519   4.3523   4.3523   4.3529
    17.9437  17.9444

          k =-0.5010-0.5010-0.5010 (  2608 PWs)   bands (ev):

     3.3608   3.3617   3.3617   3.3617   3.5999   3.5999   3.5999   3.6009
    19.4782  19.4786

     the Fermi energy is     7.9935 ev

!    total energy              =    -158.01132770 Ry
     Harris-Foulkes estimate   =    -158.01132774 Ry
     estimated scf accuracy    <       0.00000012 Ry

     total all-electron energy =     -1942.582450 Ry

     The total energy is the sum of the following terms:

     one-electron contribution =      12.73039074 Ry
     hartree contribution      =       0.02475532 Ry
     xc contribution           =     -10.38107227 Ry
     ewald contribution        =     -21.67341318 Ry
     one-center paw contrib.   =    -138.71252318 Ry
     smearing contrib. (-TS)   =       0.00053486 Ry

     convergence has been achieved in   6 iterations

     Forces acting on atoms (cartesian axes, Ry/au):

     atom    1 type  1   force =     0.00000000    0.00000000    0.00000000
     atom    2 type  1   force =     0.00000000    0.00000000    0.00000000
     atom    3 type  1   force =     0.00000000    0.00000000    0.00000000
     atom    4 type  1   force =     0.00000000    0.00000000    0.00000000

     Total force =     0.000000     Total SCF correction =     0.000000


     Computing stress (Cartesian axis) and pressure

          total   stress  (Ry/bohr**3)                   (kbar)     P=    4.94
   0.00003356   0.00000000   0.00000000          4.94      0.00      0.00
   0.00000000   0.00003356   0.00000000          0.00      4.94      0.00
   0.00000000   0.00000000   0.00003356          0.00      0.00      4.94


     Writing output data file lsMOdJJRHXSlLwUB.save/

     init_run     :      1.47s CPU      1.50s WALL (       1 calls)
     electrons    :     16.56s CPU     16.71s WALL (       1 calls)
     forces       :      0.29s CPU      0.30s WALL (       1 calls)
     stress       :      0.64s CPU      0.64s WALL (       1 calls)

     Called by init_run:
     wfcinit      :      1.15s CPU      1.16s WALL (       1 calls)
     potinit      :      0.14s CPU      0.15s WALL (       1 calls)
     hinit0       :      0.17s CPU      0.17s WALL (       1 calls)

     Called by electrons:
     c_bands      :     13.49s CPU     13.61s WALL (       7 calls)
     sum_band     :      2.18s CPU      2.19s WALL (       7 calls)
     v_of_rho     :      0.13s CPU      0.14s WALL (       7 calls)
     newd         :      0.07s CPU      0.08s WALL (       7 calls)
     PAW_pot      :      0.82s CPU      0.83s WALL (       7 calls)
     mix_rho      :      0.01s CPU      0.01s WALL (       7 calls)

     Called by c_bands:
     init_us_2    :      0.37s CPU      0.37s WALL (     952 calls)
     cegterg      :     12.96s CPU     13.07s WALL (     392 calls)

     Called by sum_band:
     sum_band:bec :      0.00s CPU      0.00s WALL (     392 calls)
     addusdens    :      0.06s CPU      0.06s WALL (       7 calls)

     Called by *egterg:
     h_psi        :     10.74s CPU     10.83s WALL (    1447 calls)
     s_psi        :      0.84s CPU      0.85s WALL (    1447 calls)
     g_psi        :      0.06s CPU      0.06s WALL (     999 calls)
     cdiaghg      :      0.18s CPU      0.18s WALL (    1335 calls)

     Called by h_psi:
     h_psi:pot    :     10.69s CPU     10.79s WALL (    1447 calls)
     h_psi:calbec :      1.07s CPU      1.08s WALL (    1447 calls)
     vloc_psi     :      8.78s CPU      8.87s WALL (    1447 calls)
     add_vuspsi   :      0.84s CPU      0.84s WALL (    1447 calls)

     General routines
     calbec       :      1.67s CPU      1.69s WALL (    2119 calls)
     fft          :      0.06s CPU      0.06s WALL (     103 calls)
     ffts         :      0.00s CPU      0.00s WALL (       7 calls)
     fftw         :      9.56s CPU      9.65s WALL (   27154 calls)

     Parallel routines

     PWSCF        :     19.26s CPU     19.48s WALL


   This run was terminated on:  12:12:29  14May2021            

=------------------------------------------------------------------------------=
   JOB DONE.
=------------------------------------------------------------------------------=
