
     Program PWSCF v.6.4.1 starts on 14May2021 at 12:13:30 

     This program is part of the open-source Quantum ESPRESSO suite
     for quantum simulation of materials; please cite
         "P. Giannozzi et al., J. Phys.:Condens. Matter 21 395502 (2009);
         "P. Giannozzi et al., J. Phys.:Condens. Matter 29 465901 (2017);
          URL http://www.quantum-espresso.org", 
     in publications or presentations arising from this work. More details at
     http://www.quantum-espresso.org/quote

     Parallel version (MPI), running on     1 processors

     MPI processes distributed on     1 nodes
     Reading input from /cloud/Code/python/qeeos/examples/aluminium/wd/eos/eos_008.in
Warning: card &IONS ignored
Warning: card ION_DYNAMICS = 'BFGS', ignored
Warning: card / ignored
Warning: card &CELL ignored
Warning: card CELL_DYNAMICS = 'BFGS', ignored
Warning: card CELL_FACTOR = 2.0, ignored
Warning: card PRESS = 0.0, ignored
Warning: card / ignored

     Current dimensions of program PWSCF are:
     Max number of different atomic species (ntypx) = 10
     Max number of k-points (npk) =  40000
     Max angular momentum in pseudopotentials (lmaxx) =  3
               file Al.pbe-nl-kjpaw_psl.1.0.0.UPF: wavefunction(s)  3S 3P renormalized

     Subspace diagonalization in iterative solution of the eigenvalue problem:
     a serial algorithm will be used

     Found symmetry operation: I + ( -0.5000 -0.5000  0.0000)
     This is a supercell, fractional translations are disabled
     Message from routine setup:
     DEPRECATED: symmetry with ibrav=0, use correct ibrav instead

     G-vector sticks info
     --------------------
     sticks:   dense  smooth     PW     G-vecs:    dense   smooth      PW
     Sum         941     941    285                21367    21367    3575



     bravais-lattice index     =            0
     lattice parameter (alat)  =       7.6308  a.u.
     unit-cell volume          =     447.0087 (a.u.)^3
     number of atoms/cell      =            4
     number of atomic types    =            1
     number of electrons       =        12.00
     number of Kohn-Sham states=           10
     kinetic-energy cutoff     =      50.0000  Ry
     charge density cutoff     =     200.0000  Ry
     convergence threshold     =      1.0E-06
     mixing beta               =       0.1000
     number of iterations used =           10  plain     mixing
     Exchange-correlation      = SLA PW PBX PBC ( 1  4  3  4 0 0)

     celldm(1)=   7.630815  celldm(2)=   0.000000  celldm(3)=   0.000000
     celldm(4)=   0.000000  celldm(5)=   0.000000  celldm(6)=   0.000000

     crystal axes: (cart. coord. in units of alat)
               a(1) = (   1.002000   0.000000   0.000000 )  
               a(2) = (   0.000000   1.002000   0.000000 )  
               a(3) = (   0.000000   0.000000   1.002000 )  

     reciprocal axes: (cart. coord. in units 2 pi/alat)
               b(1) = (  0.998004  0.000000  0.000000 )  
               b(2) = (  0.000000  0.998004  0.000000 )  
               b(3) = (  0.000000  0.000000  0.998004 )  


     PseudoPot. # 1 for Al read from file:
     /opt/pp/Al.pbe-nl-kjpaw_psl.1.0.0.UPF
     MD5 check sum: 1b67f78b73fe58c7924490f171ce8a1e
     Pseudo is Projector augmented-wave + core cor, Zval =  3.0
     Generated using "atomic" code by A. Dal Corso v.6.3
     Shape of augmentation charge: PSQ
     Using radial grid of 1135 points,  4 beta functions with: 
                l(1) =   0
                l(2) =   0
                l(3) =   1
                l(4) =   1
     Q(r) pseudized with 0 coefficients 


     atomic species   valence    mass     pseudopotential
        Al             3.00    26.98200     Al( 1.00)

     48 Sym. Ops., with inversion, found



   Cartesian axes

     site n.     atom                  positions (alat units)
         1           Al  tau(   1) = (   0.0000000   0.0000000   0.0000000  )
         2           Al  tau(   2) = (   0.5010001   0.5010001   0.0000000  )
         3           Al  tau(   3) = (   0.5010001   0.0000000   0.5010000  )
         4           Al  tau(   4) = (   0.0000000   0.5010001   0.5010000  )

     number of k points=    56  Marzari-Vanderbilt smearing, width (Ry)=  0.0400
                       cart. coord. in units 2pi/alat
        k(    1) = (   0.0453638   0.0453638   0.0453638), wk =   0.0120210
        k(    2) = (   0.0453638   0.0453638   0.1360915), wk =   0.0360631
        k(    3) = (   0.0453638   0.0453638   0.2268191), wk =   0.0360631
        k(    4) = (   0.0453638   0.0453638   0.3175467), wk =   0.0360631
        k(    5) = (   0.0453638   0.0453638   0.4082744), wk =   0.0360631
        k(    6) = (   0.0453638   0.0453638  -0.4990020), wk =   0.0180316
        k(    7) = (   0.0453638   0.1360915   0.1360915), wk =   0.0360631
        k(    8) = (   0.0453638   0.1360915   0.2268191), wk =   0.0721262
        k(    9) = (   0.0453638   0.1360915   0.3175467), wk =   0.0721262
        k(   10) = (   0.0453638   0.1360915   0.4082744), wk =   0.0721262
        k(   11) = (   0.0453638   0.1360915  -0.4990020), wk =   0.0360631
        k(   12) = (   0.0453638   0.2268191   0.2268191), wk =   0.0360631
        k(   13) = (   0.0453638   0.2268191   0.3175467), wk =   0.0721262
        k(   14) = (   0.0453638   0.2268191   0.4082744), wk =   0.0721262
        k(   15) = (   0.0453638   0.2268191  -0.4990020), wk =   0.0360631
        k(   16) = (   0.0453638   0.3175467   0.3175467), wk =   0.0360631
        k(   17) = (   0.0453638   0.3175467   0.4082744), wk =   0.0721262
        k(   18) = (   0.0453638   0.3175467  -0.4990020), wk =   0.0360631
        k(   19) = (   0.0453638   0.4082744   0.4082744), wk =   0.0360631
        k(   20) = (   0.0453638   0.4082744  -0.4990020), wk =   0.0360631
        k(   21) = (   0.0453638  -0.4990020  -0.4990020), wk =   0.0090158
        k(   22) = (   0.1360915   0.1360915   0.1360915), wk =   0.0120210
        k(   23) = (   0.1360915   0.1360915   0.2268191), wk =   0.0360631
        k(   24) = (   0.1360915   0.1360915   0.3175467), wk =   0.0360631
        k(   25) = (   0.1360915   0.1360915   0.4082744), wk =   0.0360631
        k(   26) = (   0.1360915   0.1360915  -0.4990020), wk =   0.0180316
        k(   27) = (   0.1360915   0.2268191   0.2268191), wk =   0.0360631
        k(   28) = (   0.1360915   0.2268191   0.3175467), wk =   0.0721262
        k(   29) = (   0.1360915   0.2268191   0.4082744), wk =   0.0721262
        k(   30) = (   0.1360915   0.2268191  -0.4990020), wk =   0.0360631
        k(   31) = (   0.1360915   0.3175467   0.3175467), wk =   0.0360631
        k(   32) = (   0.1360915   0.3175467   0.4082744), wk =   0.0721262
        k(   33) = (   0.1360915   0.3175467  -0.4990020), wk =   0.0360631
        k(   34) = (   0.1360915   0.4082744   0.4082744), wk =   0.0360631
        k(   35) = (   0.1360915   0.4082744  -0.4990020), wk =   0.0360631
        k(   36) = (   0.1360915  -0.4990020  -0.4990020), wk =   0.0090158
        k(   37) = (   0.2268191   0.2268191   0.2268191), wk =   0.0120210
        k(   38) = (   0.2268191   0.2268191   0.3175467), wk =   0.0360631
        k(   39) = (   0.2268191   0.2268191   0.4082744), wk =   0.0360631
        k(   40) = (   0.2268191   0.2268191  -0.4990020), wk =   0.0180316
        k(   41) = (   0.2268191   0.3175467   0.3175467), wk =   0.0360631
        k(   42) = (   0.2268191   0.3175467   0.4082744), wk =   0.0721262
        k(   43) = (   0.2268191   0.3175467  -0.4990020), wk =   0.0360631
        k(   44) = (   0.2268191   0.4082744   0.4082744), wk =   0.0360631
        k(   45) = (   0.2268191   0.4082744  -0.4990020), wk =   0.0360631
        k(   46) = (   0.2268191  -0.4990020  -0.4990020), wk =   0.0090158
        k(   47) = (   0.3175467   0.3175467   0.3175467), wk =   0.0120210
        k(   48) = (   0.3175467   0.3175467   0.4082744), wk =   0.0360631
        k(   49) = (   0.3175467   0.3175467  -0.4990020), wk =   0.0180316
        k(   50) = (   0.3175467   0.4082744   0.4082744), wk =   0.0360631
        k(   51) = (   0.3175467   0.4082744  -0.4990020), wk =   0.0360631
        k(   52) = (   0.3175467  -0.4990020  -0.4990020), wk =   0.0090158
        k(   53) = (   0.4082744   0.4082744   0.4082744), wk =   0.0120210
        k(   54) = (   0.4082744   0.4082744  -0.4990020), wk =   0.0180316
        k(   55) = (   0.4082744  -0.4990020  -0.4990020), wk =   0.0090158
        k(   56) = (  -0.4990020  -0.4990020  -0.4990020), wk =   0.0015026

     Dense  grid:    21367 G-vectors     FFT dimensions: (  36,  36,  36)

     Estimated max dynamical RAM per process >      55.75 MB

     Initial potential from superposition of free atoms

     starting charge   11.99084, renormalised to   12.00000
     Starting wfcs are   16 randomized atomic wfcs
     Checking if some PAW data can be deallocated... 

     total cpu time spent up to now is        1.8 secs

     Self-consistent Calculation

     iteration #  1     ecut=    50.00 Ry     beta= 0.10
     Davidson diagonalization with overlap
     ethr =  1.00E-02,  avg # of iterations =  3.4

     Threshold (ethr) on eigenvalues was too large:
     Diagonalizing with lowered threshold

     Davidson diagonalization with overlap
     ethr =  1.95E-04,  avg # of iterations =  3.2

     total cpu time spent up to now is        6.7 secs

     total energy              =    -158.01594936 Ry
     Harris-Foulkes estimate   =    -158.01713973 Ry
     estimated scf accuracy    <       0.02260667 Ry

     iteration #  2     ecut=    50.00 Ry     beta= 0.10
     Davidson diagonalization with overlap
     ethr =  1.88E-04,  avg # of iterations =  1.0

     total cpu time spent up to now is        8.5 secs

     total energy              =    -158.01091335 Ry
     Harris-Foulkes estimate   =    -158.01605901 Ry
     estimated scf accuracy    <       0.01803744 Ry

     iteration #  3     ecut=    50.00 Ry     beta= 0.10
     Davidson diagonalization with overlap
     ethr =  1.50E-04,  avg # of iterations =  1.0

     total cpu time spent up to now is       10.3 secs

     total energy              =    -158.01126529 Ry
     Harris-Foulkes estimate   =    -158.01126053 Ry
     estimated scf accuracy    <       0.00004648 Ry

     iteration #  4     ecut=    50.00 Ry     beta= 0.10
     Davidson diagonalization with overlap
     ethr =  3.87E-07,  avg # of iterations =  4.3

     total cpu time spent up to now is       13.4 secs

     total energy              =    -158.01145379 Ry
     Harris-Foulkes estimate   =    -158.01134721 Ry
     estimated scf accuracy    <       0.00003417 Ry

     iteration #  5     ecut=    50.00 Ry     beta= 0.10
     Davidson diagonalization with overlap
     ethr =  2.85E-07,  avg # of iterations =  2.1

     total cpu time spent up to now is       15.8 secs

     total energy              =    -158.01132060 Ry
     Harris-Foulkes estimate   =    -158.01145955 Ry
     estimated scf accuracy    <       0.00030751 Ry

     iteration #  6     ecut=    50.00 Ry     beta= 0.10
     Davidson diagonalization with overlap
     ethr =  2.85E-07,  avg # of iterations =  2.5

     total cpu time spent up to now is       18.2 secs

     End of self-consistent calculation

          k = 0.0454 0.0454 0.0454 (  2677 PWs)   bands (ev):

    -3.1910   4.6355   4.6355   4.6355   6.6854   6.6854   6.6854  12.1430
    12.1430  12.1431

          k = 0.0454 0.0454 0.1361 (  2666 PWs)   bands (ev):

    -3.0416   3.3489   4.7746   4.7746   6.8271   6.8272   8.2304  10.8568
    10.8568  12.2814

          k = 0.0454 0.0454 0.2268 (  2674 PWs)   bands (ev):

    -2.7433   2.0818   5.0524   5.0524   7.1076   7.1076   9.6357   9.6357
    10.0133  11.7404

          k = 0.0454 0.0454 0.3175 (  2675 PWs)   bands (ev):

    -2.2970   0.9312   5.4686   5.4686   7.5123   7.5123   8.5492   8.5492
    10.7103  10.7105

          k = 0.0454 0.0454 0.4083 (  2678 PWs)   bands (ev):

    -1.7042  -0.0870   6.0214   6.0214   7.5174   7.5175   8.1083   8.1084
     9.8007   9.8010

          k = 0.0454 0.0454-0.4990 (  2672 PWs)   bands (ev):

    -0.9669  -0.9663   6.6475   6.6481   6.7791   6.7797   8.4940   8.4944
     9.2603   9.2609

          k = 0.0454 0.1361 0.1361 (  2670 PWs)   bands (ev):

    -2.8924   3.4910   3.4911   4.9135   6.9659   8.3668   8.3668   9.6441
    10.9961  10.9962

          k = 0.0454 0.1361 0.2268 (  2677 PWs)   bands (ev):

    -2.5944   2.2256   3.7749   5.1909   7.2291   8.4543   8.6313   9.7812
    10.1390  11.2783

          k = 0.0454 0.1361 0.3175 (  2682 PWs)   bands (ev):

    -2.1486   1.0763   4.1995   5.6055   7.2046   7.8030   8.6207   9.0860
    10.8679  11.6460

          k = 0.0454 0.1361 0.4083 (  2684 PWs)   bands (ev):

    -1.5563   0.0592   4.7632   6.1187   6.3468   7.6882   8.2848   9.4160
    10.1146  11.2260

          k = 0.0454 0.1361-0.4990 (  2680 PWs)   bands (ev):

    -0.8198  -0.8193   5.4614   5.4619   6.8641   6.8647   8.9399   8.9404
    10.4482  10.4488

          k = 0.0454 0.2268 0.2268 (  2673 PWs)   bands (ev):

    -2.2970   2.5129   2.5129   5.4667   7.0777   7.6776  10.0004  10.0005
    10.4482  10.4482

          k = 0.0454 0.2268 0.3175 (  2667 PWs)   bands (ev):

    -1.8522   1.3662   2.9426   5.8437   6.0904   8.0213   8.9317  10.4463
    10.6582  11.3061

          k = 0.0454 0.2268 0.4083 (  2672 PWs)   bands (ev):

    -1.2611   0.3512   3.5135   5.0656   6.4512   7.9691   8.5735  10.0561
    11.0010  11.5078

          k = 0.0454 0.2268-0.4990 (  2676 PWs)   bands (ev):

    -0.5261  -0.5255   4.2227   4.2232   7.1404   7.1409   9.2618   9.2623
    11.6892  11.6898

          k = 0.0454 0.3175 0.3175 (  2671 PWs)   bands (ev):

    -1.4086   1.7998   1.7998   4.9301   6.3129   8.4384   9.3503   9.3504
    11.4262  11.4264

          k = 0.0454 0.3175 0.4083 (  2662 PWs)   bands (ev):

    -0.8194   0.7880   2.3760   3.9462   6.8645   8.3855   8.9990   9.9040
    10.5113  11.4192

          k = 0.0454 0.3175-0.4990 (  2668 PWs)   bands (ev):

    -0.0866  -0.0860   3.0922   3.0928   7.5560   7.5566   9.6933   9.6938
    10.5935  10.5941

          k = 0.0454 0.4083 0.4083 (  2664 PWs)   bands (ev):

    -0.2325   1.3684   1.3684   2.9512   7.4182   8.9392   8.9393   9.5608
    10.4573  11.0739

          k = 0.0454 0.4083-0.4990 (  2662 PWs)   bands (ev):

     0.4974   0.4979   2.0901   2.0907   8.1099   8.1105   9.6299   9.6305
    10.2545  10.2550

          k = 0.0454-0.4990-0.4990 (  2676 PWs)   bands (ev):

     1.2235   1.2241   1.2241   1.2246   8.8012   8.8017   8.8017   8.8024
    10.9454  10.9458

          k = 0.1361 0.1361 0.1361 (  2659 PWs)   bands (ev):

    -2.7433   3.6330   3.6330   3.6330   8.4924   8.4924   8.4924   9.7945
     9.7945   9.7946

          k = 0.1361 0.1361 0.2268 (  2673 PWs)   bands (ev):

    -2.4456   2.3693   3.9164   3.9164   8.4389   8.4391   8.9149   8.9150
     9.9485  10.3938

          k = 0.1361 0.1361 0.3175 (  2673 PWs)   bands (ev):

    -2.0003   1.2213   4.3401   4.3401   7.4248   7.4249   9.2408   9.2408
    10.4387  12.2354

          k = 0.1361 0.1361 0.4083 (  2678 PWs)   bands (ev):

    -1.4086   0.2053   4.9002   4.9003   6.4638   6.4640   9.7634   9.7635
    10.9977  11.3815

          k = 0.1361 0.1361-0.4990 (  2668 PWs)   bands (ev):

    -0.6729  -0.6723   5.4862   5.4867   5.7422   5.7428  10.2121  10.2126
    10.8050  10.8056

          k = 0.1361 0.2268 0.2268 (  2675 PWs)   bands (ev):

    -2.1486   2.6562   2.6562   4.1987   7.3068   8.8069   8.8070   9.1137
    10.5969  10.5969

          k = 0.1361 0.2268 0.3175 (  2676 PWs)   bands (ev):

    -1.7042   1.5109   3.0855   4.6186   6.2112   7.7136   9.2330   9.5220
    10.9823  12.2623

          k = 0.1361 0.2268 0.4083 (  2665 PWs)   bands (ev):

    -1.1137   0.4969   3.6552   5.0767   5.3379   6.7434   9.7902  10.0686
    11.3069  11.3153

          k = 0.1361 0.2268-0.4990 (  2676 PWs)   bands (ev):

    -0.3794  -0.3789   4.3607   4.3613   5.9087   5.9093  10.4815  10.4821
    10.7334  10.7339

          k = 0.1361 0.3175 0.3175 (  2673 PWs)   bands (ev):

    -1.2611   1.9441   1.9441   4.9391   5.1997   8.1348   8.1349   9.9397
    11.1766  12.6950

          k = 0.1361 0.3175 0.4083 (  2660 PWs)   bands (ev):

    -0.6724   0.9334   2.5196   4.0848   5.6288   7.1635   8.6928  10.2161
    10.4918  11.9658

          k = 0.1361 0.3175-0.4990 (  2670 PWs)   bands (ev):

     0.0596   0.0602   3.2346   3.2352   6.3258   6.3264   9.3869   9.3874
    11.1722  11.1728

          k = 0.1361 0.4083 0.4083 (  2667 PWs)   bands (ev):

    -0.0861   1.5132   1.5132   3.0938   6.1864   7.7226   7.7226   9.2515
    11.0453  12.5310

          k = 0.1361 0.4083-0.4990 (  2660 PWs)   bands (ev):

     0.6430   0.6436   2.2341   2.2346   6.8856   6.8862   8.4190   8.4196
    11.7273  11.7278

          k = 0.1361-0.4990-0.4990 (  2668 PWs)   bands (ev):

     1.3685   1.3690   1.3690   1.3696   7.5839   7.5844   7.5844   7.5850
    12.4080  12.4083

          k = 0.2268 0.2268 0.2268 (  2674 PWs)   bands (ev):

    -1.8522   2.9425   2.9425   2.9425   7.5969   7.5969   7.5971  10.8722
    10.8722  10.8723

          k = 0.2268 0.2268 0.3175 (  2674 PWs)   bands (ev):

    -1.4086   1.7998   3.3704   3.3704   6.4917   6.4919   8.0192  11.0639
    11.2796  11.2796

          k = 0.2268 0.2268 0.4083 (  2666 PWs)   bands (ev):

    -0.8194   0.7880   3.9361   3.9362   5.5157   5.5158   8.5782  10.1031
    11.8072  11.8073

          k = 0.2268 0.2268-0.4990 (  2668 PWs)   bands (ev):

    -0.0866  -0.0860   4.5289   4.5294   4.7852   4.7858   9.2731   9.2737
    12.2760  12.7673

          k = 0.2268 0.3175 0.3175 (  2666 PWs)   bands (ev):

    -0.9664   2.2321   2.2321   3.7943   5.3806   6.9133   6.9134   9.9727
    11.6951  13.1704

          k = 0.2268 0.3175 0.4083 (  2668 PWs)   bands (ev):

    -0.3789   1.2236   2.8061   4.2533   4.5025   5.9349   7.4742   9.0067
    12.2369  13.5113

          k = 0.2268 0.3175-0.4990 (  2662 PWs)   bands (ev):

     0.3517   0.3522   3.5171   3.5177   5.0930   5.0935   8.1724   8.1730
    12.8942  12.8947

          k = 0.2268 0.4083 0.4083 (  2662 PWs)   bands (ev):

     0.2062   1.8022   1.8022   3.3768   4.9518   6.4971   6.4972   8.0363
    12.7829  14.2213

          k = 0.2268 0.4083-0.4990 (  2648 PWs)   bands (ev):

     0.9339   0.9344   2.5213   2.5219   5.6541   5.6546   7.1982   7.1988
    13.4493  13.4499

          k = 0.2268-0.4990-0.4990 (  2668 PWs)   bands (ev):

     1.6579   1.6584   1.6584   1.6590   6.3572   6.3577   6.3577   6.3583
    14.1163  14.1166

          k = 0.3175 0.3175 0.3175 (  2668 PWs)   bands (ev):

    -0.5256   2.6628   2.6628   2.6628   5.8004   5.8004   5.8005   8.8756
    13.5861  13.5861

          k = 0.3175 0.3175 0.4083 (  2672 PWs)   bands (ev):

     0.0602   1.6579   3.2327   3.2327   4.8175   4.8177   6.3634   7.9043
    14.1090  14.1090

          k = 0.3175 0.3175-0.4990 (  2644 PWs)   bands (ev):

     0.7886   0.7892   3.8388   3.8393   4.0729   4.0735   7.0654   7.0659
    14.9497  14.9508

          k = 0.3175 0.4083 0.4083 (  2657 PWs)   bands (ev):

     0.6436   2.2345   2.2345   3.7007   3.9288   5.3804   5.3805   6.9282
    14.6469  15.9163

          k = 0.3175 0.4083-0.4990 (  2656 PWs)   bands (ev):

     1.3691   1.3696   2.9494   2.9499   4.5339   4.5345   6.0852   6.0858
    15.2831  15.2836

          k = 0.3175-0.4990-0.4990 (  2652 PWs)   bands (ev):

     2.0906   2.0912   2.0912   2.0917   5.2393   5.2397   5.2397   5.2404
    15.9269  15.9276

          k = 0.4083 0.4083 0.4083 (  2650 PWs)   bands (ev):

     1.2247   2.8069   2.8069   2.8069   4.3938   4.3938   4.3940   5.9471
    16.5897  16.5899

          k = 0.4083 0.4083-0.4990 (  2658 PWs)   bands (ev):

     1.9470   1.9476   3.4236   3.4241   3.6380   3.6386   5.1001   5.1007
    17.2324  17.2331

          k = 0.4083-0.4990-0.4990 (  2652 PWs)   bands (ev):

     2.6639   2.6644   2.6644   2.6649   4.2515   4.2519   4.2519   4.2526
    17.7403  17.7407

          k =-0.4990-0.4990-0.4990 (  2608 PWs)   bands (ev):

     3.2846   3.2856   3.2856   3.2856   3.4921   3.4921   3.4921   3.4932
    19.2268  19.2271

     the Fermi energy is     7.8689 ev

!    total energy              =    -158.01133400 Ry
     Harris-Foulkes estimate   =    -158.01133417 Ry
     estimated scf accuracy    <       0.00000047 Ry

     total all-electron energy =     -1942.582456 Ry

     The total energy is the sum of the following terms:

     one-electron contribution =      12.61433586 Ry
     hartree contribution      =       0.02447607 Ry
     xc contribution           =     -10.35540118 Ry
     ewald contribution        =     -21.58689257 Ry
     one-center paw contrib.   =    -138.70833224 Ry
     smearing contrib. (-TS)   =       0.00048006 Ry

     convergence has been achieved in   6 iterations

     Forces acting on atoms (cartesian axes, Ry/au):

     atom    1 type  1   force =     0.00000000    0.00000000    0.00000000
     atom    2 type  1   force =     0.00000000    0.00000000    0.00000000
     atom    3 type  1   force =     0.00000000    0.00000000    0.00000000
     atom    4 type  1   force =     0.00000000    0.00000000    0.00000000

     Total force =     0.000000     Total SCF correction =     0.000000


     Computing stress (Cartesian axis) and pressure

          total   stress  (Ry/bohr**3)                   (kbar)     P=   -4.54
  -0.00003086   0.00000000   0.00000000         -4.54      0.00      0.00
   0.00000000  -0.00003086   0.00000000          0.00     -4.54      0.00
   0.00000000   0.00000000  -0.00003086          0.00      0.00     -4.54


     Writing output data file vykmrwBbaFNlkcLT.save/

     init_run     :      1.48s CPU      1.49s WALL (       1 calls)
     electrons    :     16.23s CPU     16.38s WALL (       1 calls)
     forces       :      0.30s CPU      0.31s WALL (       1 calls)
     stress       :      0.64s CPU      0.65s WALL (       1 calls)

     Called by init_run:
     wfcinit      :      1.15s CPU      1.16s WALL (       1 calls)
     potinit      :      0.13s CPU      0.15s WALL (       1 calls)
     hinit0       :      0.17s CPU      0.17s WALL (       1 calls)

     Called by electrons:
     c_bands      :     13.21s CPU     13.33s WALL (       7 calls)
     sum_band     :      2.11s CPU      2.13s WALL (       7 calls)
     v_of_rho     :      0.14s CPU      0.14s WALL (       7 calls)
     newd         :      0.08s CPU      0.08s WALL (       7 calls)
     PAW_pot      :      0.82s CPU      0.83s WALL (       7 calls)
     mix_rho      :      0.01s CPU      0.01s WALL (       7 calls)

     Called by c_bands:
     init_us_2    :      0.36s CPU      0.37s WALL (     952 calls)
     cegterg      :     12.70s CPU     12.80s WALL (     392 calls)

     Called by sum_band:
     sum_band:bec :      0.00s CPU      0.00s WALL (     392 calls)
     addusdens    :      0.06s CPU      0.06s WALL (       7 calls)

     Called by *egterg:
     h_psi        :     10.53s CPU     10.61s WALL (    1428 calls)
     s_psi        :      0.84s CPU      0.84s WALL (    1428 calls)
     g_psi        :      0.06s CPU      0.06s WALL (     980 calls)
     cdiaghg      :      0.17s CPU      0.17s WALL (    1316 calls)

     Called by h_psi:
     h_psi:pot    :     10.48s CPU     10.57s WALL (    1428 calls)
     h_psi:calbec :      1.06s CPU      1.07s WALL (    1428 calls)
     vloc_psi     :      8.60s CPU      8.67s WALL (    1428 calls)
     add_vuspsi   :      0.83s CPU      0.83s WALL (    1428 calls)

     General routines
     calbec       :      1.66s CPU      1.67s WALL (    2100 calls)
     fft          :      0.06s CPU      0.07s WALL (     103 calls)
     ffts         :      0.00s CPU      0.00s WALL (       7 calls)
     fftw         :      9.35s CPU      9.43s WALL (   26996 calls)

     Parallel routines

     PWSCF        :     18.95s CPU     19.16s WALL


   This run was terminated on:  12:13:49  14May2021            

=------------------------------------------------------------------------------=
   JOB DONE.
=------------------------------------------------------------------------------=
