
     Program PWSCF v.6.4.1 starts on 14May2021 at 12:14:29 

     This program is part of the open-source Quantum ESPRESSO suite
     for quantum simulation of materials; please cite
         "P. Giannozzi et al., J. Phys.:Condens. Matter 21 395502 (2009);
         "P. Giannozzi et al., J. Phys.:Condens. Matter 29 465901 (2017);
          URL http://www.quantum-espresso.org", 
     in publications or presentations arising from this work. More details at
     http://www.quantum-espresso.org/quote

     Parallel version (MPI), running on     1 processors

     MPI processes distributed on     1 nodes
     Reading input from /cloud/Code/python/qeeos/examples/aluminium/wd/eos/eos_011.in
Warning: card &IONS ignored
Warning: card ION_DYNAMICS = 'BFGS', ignored
Warning: card / ignored
Warning: card &CELL ignored
Warning: card CELL_DYNAMICS = 'BFGS', ignored
Warning: card CELL_FACTOR = 2.0, ignored
Warning: card PRESS = 0.0, ignored
Warning: card / ignored

     Current dimensions of program PWSCF are:
     Max number of different atomic species (ntypx) = 10
     Max number of k-points (npk) =  40000
     Max angular momentum in pseudopotentials (lmaxx) =  3
               file Al.pbe-nl-kjpaw_psl.1.0.0.UPF: wavefunction(s)  3S 3P renormalized

     Subspace diagonalization in iterative solution of the eigenvalue problem:
     a serial algorithm will be used

     Found symmetry operation: I + ( -0.5000 -0.5000  0.0000)
     This is a supercell, fractional translations are disabled
     Message from routine setup:
     DEPRECATED: symmetry with ibrav=0, use correct ibrav instead

     G-vector sticks info
     --------------------
     sticks:   dense  smooth     PW     G-vecs:    dense   smooth      PW
     Sum         941     941    293                21559    21559    3695



     bravais-lattice index     =            0
     lattice parameter (alat)  =       7.6308  a.u.
     unit-cell volume          =     451.0357 (a.u.)^3
     number of atoms/cell      =            4
     number of atomic types    =            1
     number of electrons       =        12.00
     number of Kohn-Sham states=           10
     kinetic-energy cutoff     =      50.0000  Ry
     charge density cutoff     =     200.0000  Ry
     convergence threshold     =      1.0E-06
     mixing beta               =       0.1000
     number of iterations used =           10  plain     mixing
     Exchange-correlation      = SLA PW PBX PBC ( 1  4  3  4 0 0)

     celldm(1)=   7.630815  celldm(2)=   0.000000  celldm(3)=   0.000000
     celldm(4)=   0.000000  celldm(5)=   0.000000  celldm(6)=   0.000000

     crystal axes: (cart. coord. in units of alat)
               a(1) = (   1.005000   0.000000   0.000000 )  
               a(2) = (   0.000000   1.005000   0.000000 )  
               a(3) = (   0.000000   0.000000   1.005000 )  

     reciprocal axes: (cart. coord. in units 2 pi/alat)
               b(1) = (  0.995025  0.000000  0.000000 )  
               b(2) = (  0.000000  0.995025  0.000000 )  
               b(3) = (  0.000000  0.000000  0.995025 )  


     PseudoPot. # 1 for Al read from file:
     /opt/pp/Al.pbe-nl-kjpaw_psl.1.0.0.UPF
     MD5 check sum: 1b67f78b73fe58c7924490f171ce8a1e
     Pseudo is Projector augmented-wave + core cor, Zval =  3.0
     Generated using "atomic" code by A. Dal Corso v.6.3
     Shape of augmentation charge: PSQ
     Using radial grid of 1135 points,  4 beta functions with: 
                l(1) =   0
                l(2) =   0
                l(3) =   1
                l(4) =   1
     Q(r) pseudized with 0 coefficients 


     atomic species   valence    mass     pseudopotential
        Al             3.00    26.98200     Al( 1.00)

     48 Sym. Ops., with inversion, found



   Cartesian axes

     site n.     atom                  positions (alat units)
         1           Al  tau(   1) = (   0.0000000   0.0000000   0.0000000  )
         2           Al  tau(   2) = (   0.5025001   0.5025001   0.0000000  )
         3           Al  tau(   3) = (   0.5025001   0.0000000   0.5025000  )
         4           Al  tau(   4) = (   0.0000000   0.5025001   0.5025000  )

     number of k points=    56  Marzari-Vanderbilt smearing, width (Ry)=  0.0400
                       cart. coord. in units 2pi/alat
        k(    1) = (   0.0452284   0.0452284   0.0452284), wk =   0.0120210
        k(    2) = (   0.0452284   0.0452284   0.1356852), wk =   0.0360631
        k(    3) = (   0.0452284   0.0452284   0.2261420), wk =   0.0360631
        k(    4) = (   0.0452284   0.0452284   0.3165988), wk =   0.0360631
        k(    5) = (   0.0452284   0.0452284   0.4070556), wk =   0.0360631
        k(    6) = (   0.0452284   0.0452284  -0.4975124), wk =   0.0180316
        k(    7) = (   0.0452284   0.1356852   0.1356852), wk =   0.0360631
        k(    8) = (   0.0452284   0.1356852   0.2261420), wk =   0.0721262
        k(    9) = (   0.0452284   0.1356852   0.3165988), wk =   0.0721262
        k(   10) = (   0.0452284   0.1356852   0.4070556), wk =   0.0721262
        k(   11) = (   0.0452284   0.1356852  -0.4975124), wk =   0.0360631
        k(   12) = (   0.0452284   0.2261420   0.2261420), wk =   0.0360631
        k(   13) = (   0.0452284   0.2261420   0.3165988), wk =   0.0721262
        k(   14) = (   0.0452284   0.2261420   0.4070556), wk =   0.0721262
        k(   15) = (   0.0452284   0.2261420  -0.4975124), wk =   0.0360631
        k(   16) = (   0.0452284   0.3165988   0.3165988), wk =   0.0360631
        k(   17) = (   0.0452284   0.3165988   0.4070556), wk =   0.0721262
        k(   18) = (   0.0452284   0.3165988  -0.4975124), wk =   0.0360631
        k(   19) = (   0.0452284   0.4070556   0.4070556), wk =   0.0360631
        k(   20) = (   0.0452284   0.4070556  -0.4975124), wk =   0.0360631
        k(   21) = (   0.0452284  -0.4975124  -0.4975124), wk =   0.0090158
        k(   22) = (   0.1356852   0.1356852   0.1356852), wk =   0.0120210
        k(   23) = (   0.1356852   0.1356852   0.2261420), wk =   0.0360631
        k(   24) = (   0.1356852   0.1356852   0.3165988), wk =   0.0360631
        k(   25) = (   0.1356852   0.1356852   0.4070556), wk =   0.0360631
        k(   26) = (   0.1356852   0.1356852  -0.4975124), wk =   0.0180316
        k(   27) = (   0.1356852   0.2261420   0.2261420), wk =   0.0360631
        k(   28) = (   0.1356852   0.2261420   0.3165988), wk =   0.0721262
        k(   29) = (   0.1356852   0.2261420   0.4070556), wk =   0.0721262
        k(   30) = (   0.1356852   0.2261420  -0.4975124), wk =   0.0360631
        k(   31) = (   0.1356852   0.3165988   0.3165988), wk =   0.0360631
        k(   32) = (   0.1356852   0.3165988   0.4070556), wk =   0.0721262
        k(   33) = (   0.1356852   0.3165988  -0.4975124), wk =   0.0360631
        k(   34) = (   0.1356852   0.4070556   0.4070556), wk =   0.0360631
        k(   35) = (   0.1356852   0.4070556  -0.4975124), wk =   0.0360631
        k(   36) = (   0.1356852  -0.4975124  -0.4975124), wk =   0.0090158
        k(   37) = (   0.2261420   0.2261420   0.2261420), wk =   0.0120210
        k(   38) = (   0.2261420   0.2261420   0.3165988), wk =   0.0360631
        k(   39) = (   0.2261420   0.2261420   0.4070556), wk =   0.0360631
        k(   40) = (   0.2261420   0.2261420  -0.4975124), wk =   0.0180316
        k(   41) = (   0.2261420   0.3165988   0.3165988), wk =   0.0360631
        k(   42) = (   0.2261420   0.3165988   0.4070556), wk =   0.0721262
        k(   43) = (   0.2261420   0.3165988  -0.4975124), wk =   0.0360631
        k(   44) = (   0.2261420   0.4070556   0.4070556), wk =   0.0360631
        k(   45) = (   0.2261420   0.4070556  -0.4975124), wk =   0.0360631
        k(   46) = (   0.2261420  -0.4975124  -0.4975124), wk =   0.0090158
        k(   47) = (   0.3165988   0.3165988   0.3165988), wk =   0.0120210
        k(   48) = (   0.3165988   0.3165988   0.4070556), wk =   0.0360631
        k(   49) = (   0.3165988   0.3165988  -0.4975124), wk =   0.0180316
        k(   50) = (   0.3165988   0.4070556   0.4070556), wk =   0.0360631
        k(   51) = (   0.3165988   0.4070556  -0.4975124), wk =   0.0360631
        k(   52) = (   0.3165988  -0.4975124  -0.4975124), wk =   0.0090158
        k(   53) = (   0.4070556   0.4070556   0.4070556), wk =   0.0120210
        k(   54) = (   0.4070556   0.4070556  -0.4975124), wk =   0.0180316
        k(   55) = (   0.4070556  -0.4975124  -0.4975124), wk =   0.0090158
        k(   56) = (  -0.4975124  -0.4975124  -0.4975124), wk =   0.0015026

     Dense  grid:    21559 G-vectors     FFT dimensions: (  36,  36,  36)

     Estimated max dynamical RAM per process >      56.22 MB

     Initial potential from superposition of free atoms

     starting charge   11.99084, renormalised to   12.00000
     Starting wfcs are   16 randomized atomic wfcs
     Checking if some PAW data can be deallocated... 

     total cpu time spent up to now is        1.9 secs

     Self-consistent Calculation

     iteration #  1     ecut=    50.00 Ry     beta= 0.10
     Davidson diagonalization with overlap
     ethr =  1.00E-02,  avg # of iterations =  3.4

     Threshold (ethr) on eigenvalues was too large:
     Diagonalizing with lowered threshold

     Davidson diagonalization with overlap
     ethr =  1.95E-04,  avg # of iterations =  3.2

     total cpu time spent up to now is        6.8 secs

     total energy              =    -158.01573126 Ry
     Harris-Foulkes estimate   =    -158.01692166 Ry
     estimated scf accuracy    <       0.02262453 Ry

     iteration #  2     ecut=    50.00 Ry     beta= 0.10
     Davidson diagonalization with overlap
     ethr =  1.89E-04,  avg # of iterations =  1.0

     total cpu time spent up to now is        8.6 secs

     total energy              =    -158.01068777 Ry
     Harris-Foulkes estimate   =    -158.01584205 Ry
     estimated scf accuracy    <       0.01805220 Ry

     iteration #  3     ecut=    50.00 Ry     beta= 0.10
     Davidson diagonalization with overlap
     ethr =  1.50E-04,  avg # of iterations =  1.0

     total cpu time spent up to now is       10.4 secs

     total energy              =    -158.01104951 Ry
     Harris-Foulkes estimate   =    -158.01104453 Ry
     estimated scf accuracy    <       0.00004518 Ry

     iteration #  4     ecut=    50.00 Ry     beta= 0.10
     Davidson diagonalization with overlap
     ethr =  3.77E-07,  avg # of iterations =  4.3

     total cpu time spent up to now is       13.7 secs

     total energy              =    -158.01126460 Ry
     Harris-Foulkes estimate   =    -158.01113303 Ry
     estimated scf accuracy    <       0.00003470 Ry

     iteration #  5     ecut=    50.00 Ry     beta= 0.10
     Davidson diagonalization with overlap
     ethr =  2.89E-07,  avg # of iterations =  2.2

     total cpu time spent up to now is       16.1 secs

     total energy              =    -158.01110570 Ry
     Harris-Foulkes estimate   =    -158.01127222 Ry
     estimated scf accuracy    <       0.00037551 Ry

     iteration #  6     ecut=    50.00 Ry     beta= 0.10
     Davidson diagonalization with overlap
     ethr =  2.89E-07,  avg # of iterations =  2.6

     total cpu time spent up to now is       18.5 secs

     End of self-consistent calculation

          k = 0.0452 0.0452 0.0452 (  2692 PWs)   bands (ev):

    -3.2219   4.5640   4.5640   4.5640   6.5943   6.5943   6.5943  12.0340
    12.0341  12.0341

          k = 0.0452 0.0452 0.1357 (  2692 PWs)   bands (ev):

    -3.0734   3.2819   4.7024   4.7024   6.7356   6.7356   8.1337  10.7524
    10.7524  12.1714

          k = 0.0452 0.0452 0.2261 (  2701 PWs)   bands (ev):

    -2.7769   2.0211   4.9790   4.9790   7.0155   7.0155   9.5370   9.5370
     9.9082  11.6117

          k = 0.0452 0.0452 0.3166 (  2715 PWs)   bands (ev):

    -2.3333   0.8767   5.3932   5.3932   7.4212   7.4212   8.4543   8.4543
    10.5845  10.5846

          k = 0.0452 0.0452 0.4071 (  2698 PWs)   bands (ev):

    -1.7438  -0.1359   5.9435   5.9436   7.4349   7.4350   8.0115   8.0117
     9.6743   9.6745

          k = 0.0452 0.0452-0.4975 (  2720 PWs)   bands (ev):

    -1.0108  -1.0103   6.5708   6.5712   6.6937   6.6942   8.4128   8.4132
     9.1215   9.1220

          k = 0.0452 0.1357 0.1357 (  2692 PWs)   bands (ev):

    -2.9251   3.4233   3.4233   4.8407   6.8743   8.2700   8.2700   9.5411
    10.8907  10.8908

          k = 0.0452 0.1357 0.2261 (  2705 PWs)   bands (ev):

    -2.6289   2.1642   3.7057   5.1169   7.1393   8.3534   8.5351   9.6808
    10.0348  11.1708

          k = 0.0452 0.1357 0.3166 (  2703 PWs)   bands (ev):

    -2.1857   1.0210   4.1283   5.5297   7.1259   7.6943   8.5325   8.9844
    10.7388  11.5409

          k = 0.0452 0.1357 0.4071 (  2693 PWs)   bands (ev):

    -1.5969   0.0095   4.6893   6.0445   6.2614   7.6015   8.1818   9.3283
     9.9765  11.1021

          k = 0.0452 0.1357-0.4975 (  2706 PWs)   bands (ev):

    -0.8645  -0.8641   5.3849   5.3853   6.7808   6.7812   8.8397   8.8400
    10.3234  10.3239

          k = 0.0452 0.2261 0.2261 (  2695 PWs)   bands (ev):

    -2.3333   2.4499   2.4499   5.3915   7.0000   7.5677   9.9047   9.9048
    10.3396  10.3396

          k = 0.0452 0.2261 0.3166 (  2689 PWs)   bands (ev):

    -1.8910   1.3093   2.8774   5.7708   6.0059   7.9170   8.8385  10.3451
    10.5628  11.1642

          k = 0.0452 0.2261 0.4071 (  2697 PWs)   bands (ev):

    -1.3034   0.2998   3.4454   4.9907   6.3695   7.8804   8.4681   9.9492
    10.8964  11.3794

          k = 0.0452 0.2261-0.4975 (  2700 PWs)   bands (ev):

    -0.5725  -0.5720   4.1513   4.1517   7.0557   7.0562   9.1545   9.1549
    11.5807  11.5812

          k = 0.0452 0.3166 0.3166 (  2685 PWs)   bands (ev):

    -1.4500   1.7406   1.7406   4.8558   6.2318   8.3329   9.2545   9.2546
    11.3109  11.3110

          k = 0.0452 0.3166 0.4071 (  2688 PWs)   bands (ev):

    -0.8642   0.7342   2.3136   3.8760   6.7810   8.2946   8.8910   9.8051
    10.3969  11.3119

          k = 0.0452 0.3166-0.4975 (  2686 PWs)   bands (ev):

    -0.1354  -0.1350   3.0263   3.0267   7.4692   7.4697   9.5821   9.5825
    10.4909  10.4914

          k = 0.0452 0.4071 0.4071 (  2687 PWs)   bands (ev):

    -0.2806   1.3114   1.3114   2.8859   7.3320   8.8453   8.8454   9.4495
    10.3553  10.9548

          k = 0.0452 0.4071-0.4975 (  2690 PWs)   bands (ev):

     0.4452   0.4457   2.0293   2.0298   8.0203   8.0207   9.5323   9.5328
    10.1396  10.1400

          k = 0.0452-0.4975-0.4975 (  2688 PWs)   bands (ev):

     1.1675   1.1679   1.1679   1.1683   8.7081   8.7085   8.7085   8.7090
    10.8265  10.8270

          k = 0.1357 0.1357 0.1357 (  2695 PWs)   bands (ev):

    -2.7769   3.5646   3.5646   3.5646   8.3968   8.3968   8.3968   9.6893
     9.6893   9.6893

          k = 0.1357 0.1357 0.2261 (  2697 PWs)   bands (ev):

    -2.4810   2.3071   3.8466   3.8466   8.3538   8.3539   8.8033   8.8034
     9.8546  10.2769

          k = 0.1357 0.1357 0.3166 (  2693 PWs)   bands (ev):

    -2.0383   1.1652   4.2683   4.2683   7.3373   7.3374   9.1355   9.1355
    10.3356  12.1161

          k = 0.1357 0.1357 0.4071 (  2694 PWs)   bands (ev):

    -1.4500   0.1547   4.8263   4.8264   6.3793   6.3794   9.6597   9.6598
    10.8905  11.2545

          k = 0.1357 0.1357-0.4975 (  2708 PWs)   bands (ev):

    -0.7184  -0.7180   5.4174   5.4178   5.6531   5.6536  10.1196  10.1200
    10.6677  10.6682

          k = 0.1357 0.2261 0.2261 (  2699 PWs)   bands (ev):

    -2.1857   2.5925   2.5925   4.1276   7.2195   8.7123   8.7123   9.0074
    10.4852  10.4852

          k = 0.1357 0.2261 0.3166 (  2696 PWs)   bands (ev):

    -1.7439   1.4532   3.0196   4.5461   6.1274   7.6233   9.1348   9.4148
    10.8721  12.1472

          k = 0.1357 0.2261 0.4071 (  2692 PWs)   bands (ev):

    -1.1568   0.4448   3.5866   5.0102   5.2496   6.6575   9.6886   9.9598
    11.1968  11.2160

          k = 0.1357 0.2261-0.4975 (  2694 PWs)   bands (ev):

    -0.4266  -0.4262   4.2892   4.2897   5.8263   5.8267  10.3761  10.3766
    10.6241  10.6245

          k = 0.1357 0.3166 0.3166 (  2697 PWs)   bands (ev):

    -1.3033   1.8841   1.8841   4.8734   5.1119   8.0419   8.0420   9.8303
    11.0670  12.5872

          k = 0.1357 0.3166 0.4071 (  2686 PWs)   bands (ev):

    -0.7180   0.8788   2.4565   4.0146   5.5476   7.0754   8.5968  10.1117
    10.3796  11.8489

          k = 0.1357 0.3166-0.4975 (  2680 PWs)   bands (ev):

     0.0100   0.0104   3.1681   3.1685   6.2418   6.2423   9.2870   9.2875
    11.0572  11.0576

          k = 0.1357 0.4071 0.4071 (  2684 PWs)   bands (ev):

    -0.1351   1.4554   1.4554   3.0279   6.1030   7.6315   7.6315   9.1522
    10.9298  12.4081

          k = 0.1357 0.4071-0.4975 (  2696 PWs)   bands (ev):

     0.5901   0.5905   2.1726   2.1730   6.7988   6.7993   8.3242   8.3247
    11.6082  11.6086

          k = 0.1357-0.4975-0.4975 (  2696 PWs)   bands (ev):

     1.3116   1.3121   1.3121   1.3125   7.4935   7.4939   7.4939   7.4944
    12.2847  12.2850

          k = 0.2261 0.2261 0.2261 (  2698 PWs)   bands (ev):

    -1.8910   2.8773   2.8774   2.8774   7.5068   7.5068   7.5069  10.7591
    10.7591  10.7591

          k = 0.2261 0.2261 0.3166 (  2690 PWs)   bands (ev):

    -1.4500   1.7406   3.3032   3.3032   6.4065   6.4066   7.9264  10.9543
    11.1650  11.1650

          k = 0.2261 0.2261 0.4071 (  2695 PWs)   bands (ev):

    -0.8641   0.7343   3.8667   3.8668   5.4345   5.4346   8.4821   9.9987
    11.6922  11.6922

          k = 0.2261 0.2261-0.4975 (  2696 PWs)   bands (ev):

    -0.1354  -0.1350   4.4656   4.4660   4.6986   4.6991   9.1733   9.1737
    12.6223  12.6229

          k = 0.2261 0.3166 0.3166 (  2698 PWs)   bands (ev):

    -1.0104   2.1706   2.1706   3.7255   5.3000   6.8258   6.8259   9.8687
    11.5776  13.0477

          k = 0.2261 0.3166 0.4071 (  2688 PWs)   bands (ev):

    -0.4262   1.1675   2.7417   4.1915   4.4170   5.8521   7.3836   8.9079
    12.1168  13.3984

          k = 0.2261 0.3166-0.4975 (  2690 PWs)   bands (ev):

     0.3003   0.3008   3.4498   3.4502   5.0139   5.0143   8.0782   8.0786
    12.7725  12.7729

          k = 0.2261 0.4071 0.4071 (  2686 PWs)   bands (ev):

     0.1556   1.7430   1.7430   3.3101   4.8734   6.4116   6.4116   7.9426
    12.6592  14.0910

          k = 0.2261 0.4071-0.4975 (  2690 PWs)   bands (ev):

     0.8794   0.8798   2.4584   2.4589   5.5728   5.5732   7.1090   7.1095
    13.3221  13.3225

          k = 0.2261-0.4975-0.4975 (  2684 PWs)   bands (ev):

     1.5995   1.5999   1.5999   1.6003   6.2724   6.2728   6.2728   6.2733
    13.9849  13.9853

          k = 0.3166 0.3166 0.3166 (  2692 PWs)   bands (ev):

    -0.5720   2.5991   2.5991   2.5991   5.7182   5.7182   5.7183   8.7773
    13.4592  13.4592

          k = 0.3166 0.3166 0.4071 (  2681 PWs)   bands (ev):

     0.0104   1.5994   3.1667   3.1667   4.7397   4.7398   6.2784   7.8111
    13.9803  13.9803

          k = 0.3166 0.3166-0.4975 (  2694 PWs)   bands (ev):

     0.7349   0.7353   3.7793   3.7797   3.9893   3.9898   6.9767   6.9771
    14.7970  14.7979

          k = 0.3166 0.4071 0.4071 (  2693 PWs)   bands (ev):

     0.5906   2.1730   2.1730   3.6420   3.8458   5.3003   5.3003   6.8401
    14.5135  15.7854

          k = 0.3166 0.4071-0.4975 (  2684 PWs)   bands (ev):

     1.3122   1.3126   2.8848   2.8852   4.4577   4.4581   6.0016   6.0021
    15.1467  15.1471

          k = 0.3166-0.4975-0.4975 (  2680 PWs)   bands (ev):

     2.0300   2.0305   2.0305   2.0309   5.1600   5.1604   5.1604   5.1609
    15.7854  15.7857

          k = 0.4071 0.4071 0.4071 (  2668 PWs)   bands (ev):

     1.1685   2.7429   2.7430   2.7430   4.3182   4.3182   4.3183   5.8640
    16.4458  16.4460

          k = 0.4071 0.4071-0.4975 (  2682 PWs)   bands (ev):

     1.8871   1.8876   3.3664   3.3668   3.5565   3.5570   5.0215   5.0219
    17.0716  17.0719

          k = 0.4071-0.4975-0.4975 (  2696 PWs)   bands (ev):

     2.6008   2.6012   2.6012   2.6016   4.1767   4.1771   4.1771   4.1776
    17.5880  17.5883

          k =-0.4975-0.4975-0.4975 (  2608 PWs)   bands (ev):

     3.2283   3.2291   3.2291   3.2291   3.4113   3.4113   3.4113   3.4122
    19.0383  19.0387

     the Fermi energy is     7.7758 ev

!    total energy              =    -158.01111954 Ry
     Harris-Foulkes estimate   =    -158.01111993 Ry
     estimated scf accuracy    <       0.00000087 Ry

     total all-electron energy =     -1942.582242 Ry

     The total energy is the sum of the following terms:

     one-electron contribution =      12.52862505 Ry
     hartree contribution      =       0.02431838 Ry
     xc contribution           =     -10.33650769 Ry
     ewald contribution        =     -21.52245409 Ry
     one-center paw contrib.   =    -138.70554171 Ry
     smearing contrib. (-TS)   =       0.00044052 Ry

     convergence has been achieved in   6 iterations

     Forces acting on atoms (cartesian axes, Ry/au):

     atom    1 type  1   force =     0.00000000    0.00000000    0.00000000
     atom    2 type  1   force =     0.00000000    0.00000000    0.00000000
     atom    3 type  1   force =     0.00000000    0.00000000    0.00000000
     atom    4 type  1   force =     0.00000000    0.00000000    0.00000000

     Total force =     0.000000     Total SCF correction =     0.000000


     Computing stress (Cartesian axis) and pressure

          total   stress  (Ry/bohr**3)                   (kbar)     P=  -10.99
  -0.00007474   0.00000000   0.00000000        -10.99      0.00      0.00
   0.00000000  -0.00007474   0.00000000          0.00    -10.99      0.00
   0.00000000   0.00000000  -0.00007474          0.00      0.00    -10.99


     Writing output data file JYKCEmSVypdYGDGB.save/

     init_run     :      1.51s CPU      1.54s WALL (       1 calls)
     electrons    :     16.56s CPU     16.67s WALL (       1 calls)
     forces       :      0.32s CPU      0.32s WALL (       1 calls)
     stress       :      0.68s CPU      0.68s WALL (       1 calls)

     Called by init_run:
     wfcinit      :      1.17s CPU      1.19s WALL (       1 calls)
     potinit      :      0.14s CPU      0.15s WALL (       1 calls)
     hinit0       :      0.17s CPU      0.17s WALL (       1 calls)

     Called by electrons:
     c_bands      :     13.49s CPU     13.58s WALL (       7 calls)
     sum_band     :      2.15s CPU      2.16s WALL (       7 calls)
     v_of_rho     :      0.14s CPU      0.14s WALL (       7 calls)
     newd         :      0.08s CPU      0.08s WALL (       7 calls)
     PAW_pot      :      0.84s CPU      0.84s WALL (       7 calls)
     mix_rho      :      0.01s CPU      0.01s WALL (       7 calls)

     Called by c_bands:
     init_us_2    :      0.38s CPU      0.38s WALL (     952 calls)
     cegterg      :     12.96s CPU     13.04s WALL (     392 calls)

     Called by sum_band:
     sum_band:bec :      0.00s CPU      0.00s WALL (     392 calls)
     addusdens    :      0.06s CPU      0.06s WALL (       7 calls)

     Called by *egterg:
     h_psi        :     10.72s CPU     10.80s WALL (    1442 calls)
     s_psi        :      0.86s CPU      0.86s WALL (    1442 calls)
     g_psi        :      0.06s CPU      0.06s WALL (     994 calls)
     cdiaghg      :      0.18s CPU      0.18s WALL (    1330 calls)

     Called by h_psi:
     h_psi:pot    :     10.67s CPU     10.75s WALL (    1442 calls)
     h_psi:calbec :      1.08s CPU      1.09s WALL (    1442 calls)
     vloc_psi     :      8.74s CPU      8.80s WALL (    1442 calls)
     add_vuspsi   :      0.85s CPU      0.85s WALL (    1442 calls)

     General routines
     calbec       :      1.70s CPU      1.71s WALL (    2114 calls)
     fft          :      0.06s CPU      0.07s WALL (     103 calls)
     ffts         :      0.00s CPU      0.00s WALL (       7 calls)
     fftw         :      9.49s CPU      9.56s WALL (   27100 calls)

     Parallel routines

     PWSCF        :     19.37s CPU     19.56s WALL


   This run was terminated on:  12:14:48  14May2021            

=------------------------------------------------------------------------------=
   JOB DONE.
=------------------------------------------------------------------------------=
