
     Program PWSCF v.6.4.1 starts on 14May2021 at 12:11:31 

     This program is part of the open-source Quantum ESPRESSO suite
     for quantum simulation of materials; please cite
         "P. Giannozzi et al., J. Phys.:Condens. Matter 21 395502 (2009);
         "P. Giannozzi et al., J. Phys.:Condens. Matter 29 465901 (2017);
          URL http://www.quantum-espresso.org", 
     in publications or presentations arising from this work. More details at
     http://www.quantum-espresso.org/quote

     Parallel version (MPI), running on     1 processors

     MPI processes distributed on     1 nodes
     Reading input from /cloud/Code/python/qeeos/examples/aluminium/wd/eos/eos_002.in
Warning: card &IONS ignored
Warning: card ION_DYNAMICS = 'BFGS', ignored
Warning: card / ignored
Warning: card &CELL ignored
Warning: card CELL_DYNAMICS = 'BFGS', ignored
Warning: card CELL_FACTOR = 2.0, ignored
Warning: card PRESS = 0.0, ignored
Warning: card / ignored

     Current dimensions of program PWSCF are:
     Max number of different atomic species (ntypx) = 10
     Max number of k-points (npk) =  40000
     Max angular momentum in pseudopotentials (lmaxx) =  3
               file Al.pbe-nl-kjpaw_psl.1.0.0.UPF: wavefunction(s)  3S 3P renormalized

     Subspace diagonalization in iterative solution of the eigenvalue problem:
     a serial algorithm will be used

     Found symmetry operation: I + ( -0.5000 -0.5000  0.0000)
     This is a supercell, fractional translations are disabled
     Message from routine setup:
     DEPRECATED: symmetry with ibrav=0, use correct ibrav instead

     G-vector sticks info
     --------------------
     sticks:   dense  smooth     PW     G-vecs:    dense   smooth      PW
     Sum         925     925    277                20863    20863    3431



     bravais-lattice index     =            0
     lattice parameter (alat)  =       7.6308  a.u.
     unit-cell volume          =     439.0266 (a.u.)^3
     number of atoms/cell      =            4
     number of atomic types    =            1
     number of electrons       =        12.00
     number of Kohn-Sham states=           10
     kinetic-energy cutoff     =      50.0000  Ry
     charge density cutoff     =     200.0000  Ry
     convergence threshold     =      1.0E-06
     mixing beta               =       0.1000
     number of iterations used =           10  plain     mixing
     Exchange-correlation      = SLA PW PBX PBC ( 1  4  3  4 0 0)

     celldm(1)=   7.630815  celldm(2)=   0.000000  celldm(3)=   0.000000
     celldm(4)=   0.000000  celldm(5)=   0.000000  celldm(6)=   0.000000

     crystal axes: (cart. coord. in units of alat)
               a(1) = (   0.996000   0.000000   0.000000 )  
               a(2) = (   0.000000   0.996000   0.000000 )  
               a(3) = (   0.000000   0.000000   0.996000 )  

     reciprocal axes: (cart. coord. in units 2 pi/alat)
               b(1) = (  1.004016  0.000000  0.000000 )  
               b(2) = (  0.000000  1.004016  0.000000 )  
               b(3) = (  0.000000  0.000000  1.004016 )  


     PseudoPot. # 1 for Al read from file:
     /opt/pp/Al.pbe-nl-kjpaw_psl.1.0.0.UPF
     MD5 check sum: 1b67f78b73fe58c7924490f171ce8a1e
     Pseudo is Projector augmented-wave + core cor, Zval =  3.0
     Generated using "atomic" code by A. Dal Corso v.6.3
     Shape of augmentation charge: PSQ
     Using radial grid of 1135 points,  4 beta functions with: 
                l(1) =   0
                l(2) =   0
                l(3) =   1
                l(4) =   1
     Q(r) pseudized with 0 coefficients 


     atomic species   valence    mass     pseudopotential
        Al             3.00    26.98200     Al( 1.00)

     48 Sym. Ops., with inversion, found



   Cartesian axes

     site n.     atom                  positions (alat units)
         1           Al  tau(   1) = (   0.0000000   0.0000000   0.0000000  )
         2           Al  tau(   2) = (   0.4980001   0.4980001   0.0000000  )
         3           Al  tau(   3) = (   0.4980001   0.0000000   0.4980000  )
         4           Al  tau(   4) = (   0.0000000   0.4980001   0.4980000  )

     number of k points=    56  Marzari-Vanderbilt smearing, width (Ry)=  0.0400
                       cart. coord. in units 2pi/alat
        k(    1) = (   0.0456371   0.0456371   0.0456371), wk =   0.0120210
        k(    2) = (   0.0456371   0.0456371   0.1369113), wk =   0.0360631
        k(    3) = (   0.0456371   0.0456371   0.2281855), wk =   0.0360631
        k(    4) = (   0.0456371   0.0456371   0.3194597), wk =   0.0360631
        k(    5) = (   0.0456371   0.0456371   0.4107338), wk =   0.0360631
        k(    6) = (   0.0456371   0.0456371  -0.5020080), wk =   0.0180316
        k(    7) = (   0.0456371   0.1369113   0.1369113), wk =   0.0360631
        k(    8) = (   0.0456371   0.1369113   0.2281855), wk =   0.0721262
        k(    9) = (   0.0456371   0.1369113   0.3194597), wk =   0.0721262
        k(   10) = (   0.0456371   0.1369113   0.4107338), wk =   0.0721262
        k(   11) = (   0.0456371   0.1369113  -0.5020080), wk =   0.0360631
        k(   12) = (   0.0456371   0.2281855   0.2281855), wk =   0.0360631
        k(   13) = (   0.0456371   0.2281855   0.3194597), wk =   0.0721262
        k(   14) = (   0.0456371   0.2281855   0.4107338), wk =   0.0721262
        k(   15) = (   0.0456371   0.2281855  -0.5020080), wk =   0.0360631
        k(   16) = (   0.0456371   0.3194597   0.3194597), wk =   0.0360631
        k(   17) = (   0.0456371   0.3194597   0.4107338), wk =   0.0721262
        k(   18) = (   0.0456371   0.3194597  -0.5020080), wk =   0.0360631
        k(   19) = (   0.0456371   0.4107338   0.4107338), wk =   0.0360631
        k(   20) = (   0.0456371   0.4107338  -0.5020080), wk =   0.0360631
        k(   21) = (   0.0456371  -0.5020080  -0.5020080), wk =   0.0090158
        k(   22) = (   0.1369113   0.1369113   0.1369113), wk =   0.0120210
        k(   23) = (   0.1369113   0.1369113   0.2281855), wk =   0.0360631
        k(   24) = (   0.1369113   0.1369113   0.3194597), wk =   0.0360631
        k(   25) = (   0.1369113   0.1369113   0.4107338), wk =   0.0360631
        k(   26) = (   0.1369113   0.1369113  -0.5020080), wk =   0.0180316
        k(   27) = (   0.1369113   0.2281855   0.2281855), wk =   0.0360631
        k(   28) = (   0.1369113   0.2281855   0.3194597), wk =   0.0721262
        k(   29) = (   0.1369113   0.2281855   0.4107338), wk =   0.0721262
        k(   30) = (   0.1369113   0.2281855  -0.5020080), wk =   0.0360631
        k(   31) = (   0.1369113   0.3194597   0.3194597), wk =   0.0360631
        k(   32) = (   0.1369113   0.3194597   0.4107338), wk =   0.0721262
        k(   33) = (   0.1369113   0.3194597  -0.5020080), wk =   0.0360631
        k(   34) = (   0.1369113   0.4107338   0.4107338), wk =   0.0360631
        k(   35) = (   0.1369113   0.4107338  -0.5020080), wk =   0.0360631
        k(   36) = (   0.1369113  -0.5020080  -0.5020080), wk =   0.0090158
        k(   37) = (   0.2281855   0.2281855   0.2281855), wk =   0.0120210
        k(   38) = (   0.2281855   0.2281855   0.3194597), wk =   0.0360631
        k(   39) = (   0.2281855   0.2281855   0.4107338), wk =   0.0360631
        k(   40) = (   0.2281855   0.2281855  -0.5020080), wk =   0.0180316
        k(   41) = (   0.2281855   0.3194597   0.3194597), wk =   0.0360631
        k(   42) = (   0.2281855   0.3194597   0.4107338), wk =   0.0721262
        k(   43) = (   0.2281855   0.3194597  -0.5020080), wk =   0.0360631
        k(   44) = (   0.2281855   0.4107338   0.4107338), wk =   0.0360631
        k(   45) = (   0.2281855   0.4107338  -0.5020080), wk =   0.0360631
        k(   46) = (   0.2281855  -0.5020080  -0.5020080), wk =   0.0090158
        k(   47) = (   0.3194597   0.3194597   0.3194597), wk =   0.0120210
        k(   48) = (   0.3194597   0.3194597   0.4107338), wk =   0.0360631
        k(   49) = (   0.3194597   0.3194597  -0.5020080), wk =   0.0180316
        k(   50) = (   0.3194597   0.4107338   0.4107338), wk =   0.0360631
        k(   51) = (   0.3194597   0.4107338  -0.5020080), wk =   0.0360631
        k(   52) = (   0.3194597  -0.5020080  -0.5020080), wk =   0.0090158
        k(   53) = (   0.4107338   0.4107338   0.4107338), wk =   0.0120210
        k(   54) = (   0.4107338   0.4107338  -0.5020080), wk =   0.0180316
        k(   55) = (   0.4107338  -0.5020080  -0.5020080), wk =   0.0090158
        k(   56) = (  -0.5020080  -0.5020080  -0.5020080), wk =   0.0015026

     Dense  grid:    20863 G-vectors     FFT dimensions: (  36,  36,  36)

     Estimated max dynamical RAM per process >      54.66 MB

     Initial potential from superposition of free atoms

     starting charge   11.99084, renormalised to   12.00000
     Starting wfcs are   16 randomized atomic wfcs
     Checking if some PAW data can be deallocated... 

     total cpu time spent up to now is        1.8 secs

     Self-consistent Calculation

     iteration #  1     ecut=    50.00 Ry     beta= 0.10
     Davidson diagonalization with overlap
     ethr =  1.00E-02,  avg # of iterations =  3.4

     Threshold (ethr) on eigenvalues was too large:
     Diagonalizing with lowered threshold

     Davidson diagonalization with overlap
     ethr =  1.94E-04,  avg # of iterations =  3.2

     total cpu time spent up to now is        6.6 secs

     total energy              =    -158.01581104 Ry
     Harris-Foulkes estimate   =    -158.01700067 Ry
     estimated scf accuracy    <       0.02256813 Ry

     iteration #  2     ecut=    50.00 Ry     beta= 0.10
     Davidson diagonalization with overlap
     ethr =  1.88E-04,  avg # of iterations =  1.0

     total cpu time spent up to now is        8.3 secs

     total energy              =    -158.01078743 Ry
     Harris-Foulkes estimate   =    -158.01592313 Ry
     estimated scf accuracy    <       0.01800911 Ry

     iteration #  3     ecut=    50.00 Ry     beta= 0.10
     Davidson diagonalization with overlap
     ethr =  1.50E-04,  avg # of iterations =  1.0

     total cpu time spent up to now is       10.2 secs

     total energy              =    -158.01112851 Ry
     Harris-Foulkes estimate   =    -158.01112389 Ry
     estimated scf accuracy    <       0.00004726 Ry

     iteration #  4     ecut=    50.00 Ry     beta= 0.10
     Davidson diagonalization with overlap
     ethr =  3.94E-07,  avg # of iterations =  4.2

     total cpu time spent up to now is       13.3 secs

     total energy              =    -158.01134120 Ry
     Harris-Foulkes estimate   =    -158.01120811 Ry
     estimated scf accuracy    <       0.00003412 Ry

     iteration #  5     ecut=    50.00 Ry     beta= 0.10
     Davidson diagonalization with overlap
     ethr =  2.84E-07,  avg # of iterations =  2.2

     total cpu time spent up to now is       15.6 secs

     total energy              =    -158.01118118 Ry
     Harris-Foulkes estimate   =    -158.01134879 Ry
     estimated scf accuracy    <       0.00038236 Ry

     iteration #  6     ecut=    50.00 Ry     beta= 0.10
     Davidson diagonalization with overlap
     ethr =  2.84E-07,  avg # of iterations =  2.6

     total cpu time spent up to now is       18.0 secs

     End of self-consistent calculation

          k = 0.0456 0.0456 0.0456 (  2607 PWs)   bands (ev):

    -3.1288   4.7795   4.7795   4.7795   6.8684   6.8684   6.8684  12.3619
    12.3619  12.3620

          k = 0.0456 0.0456 0.1369 (  2618 PWs)   bands (ev):

    -2.9776   3.4838   4.9199   4.9199   7.0110   7.0110   8.4247  11.0669
    11.0669  12.5024

          k = 0.0456 0.0456 0.2282 (  2632 PWs)   bands (ev):

    -2.6758   2.2039   5.2004   5.2004   7.2923   7.2924   9.8346   9.8346
    10.2245  12.0010

          k = 0.0456 0.0456 0.3195 (  2630 PWs)   bands (ev):

    -2.2242   1.0409   5.6205   5.6205   7.6947   7.6948   8.7405   8.7406
    10.9652  10.9654

          k = 0.0456 0.0456 0.4107 (  2632 PWs)   bands (ev):

    -1.6244   0.0114   6.1781   6.1781   7.6837   7.6838   8.3017   8.3019
    10.0574  10.0577

          k = 0.0456 0.0456-0.5020 (  2616 PWs)   bands (ev):

    -0.8785  -0.8780   6.8027   6.8032   6.9507   6.9513   8.6587   8.6591
     9.5395   9.5400

          k = 0.0456 0.1369 0.1369 (  2627 PWs)   bands (ev):

    -2.8266   3.6273   3.6273   5.0601   7.1497   8.5613   8.5613   9.8517
    11.2081  11.2082

          k = 0.0456 0.1369 0.2282 (  2615 PWs)   bands (ev):

    -2.5251   2.3493   3.9140   5.3402   7.4090   8.6581   8.8241   9.9834
    10.3481  11.4953

          k = 0.0456 0.1369 0.3195 (  2627 PWs)   bands (ev):

    -2.0740   1.1877   4.3428   5.7582   7.3633   8.0213   8.7984   9.2895
    11.1295  11.8576

          k = 0.0456 0.1369 0.4107 (  2633 PWs)   bands (ev):

    -1.4748   0.1593   4.9117   6.2684   6.5182   7.8629   8.4918   9.5936
    10.3926  11.4767

          k = 0.0456 0.1369-0.5020 (  2622 PWs)   bands (ev):

    -0.7297  -0.7293   5.6154   5.6159   7.0322   7.0327   9.1409   9.1413
    10.7015  10.7020

          k = 0.0456 0.2282 0.2282 (  2640 PWs)   bands (ev):

    -2.2242   2.6396   2.6396   5.6180   7.2342   7.8987  10.1933  10.1934
    10.6660  10.6660

          k = 0.0456 0.2282 0.3195 (  2628 PWs)   bands (ev):

    -1.7741   1.4807   3.0738   5.9906   6.2599   8.2315   9.1192  10.6499
    10.8509  11.5918

          k = 0.0456 0.2282 0.4107 (  2627 PWs)   bands (ev):

    -1.1761   0.4545   3.6504   5.2161   6.6159   8.1477   8.7858  10.2702
    11.2116  11.7682

          k = 0.0456 0.2282-0.5020 (  2612 PWs)   bands (ev):

    -0.4326  -0.4322   4.3665   4.3670   7.3110   7.3115   9.4776   9.4781
    11.9078  11.9084

          k = 0.0456 0.3195 0.3195 (  2631 PWs)   bands (ev):

    -1.3254   1.9190   1.9190   5.0794   6.4763   8.6510   9.5433   9.5433
    11.6575  11.6576

          k = 0.0456 0.3195 0.4107 (  2617 PWs)   bands (ev):

    -0.7293   0.8962   2.5013   4.0873   7.0326   8.5688   9.2167  10.1032
    10.7413  11.6351

          k = 0.0456 0.3195-0.5020 (  2618 PWs)   bands (ev):

     0.0119   0.0123   3.2250   3.2255   7.7309   7.7314   9.9173   9.9177
    10.8004  10.8010

          k = 0.0456 0.4107 0.4107 (  2614 PWs)   bands (ev):

    -0.1357   1.4830   1.4830   3.0825   7.5918   9.1285   9.1285   9.7849
    10.6629  11.3135

          k = 0.0456 0.4107-0.5020 (  2624 PWs)   bands (ev):

     0.6024   0.6028   2.2125   2.2130   8.2906   8.2911   9.8265   9.8271
    10.4861  10.4865

          k = 0.0456-0.5020-0.5020 (  2628 PWs)   bands (ev):

     1.3366   1.3371   1.3371   1.3375   8.9892   8.9896   8.9896   8.9902
    11.1853  11.1854

          k = 0.1369 0.1369 0.1369 (  2629 PWs)   bands (ev):

    -2.6758   3.7707   3.7707   3.7707   8.6841   8.6841   8.6841  10.0069
    10.0069  10.0069

          k = 0.1369 0.1369 0.2282 (  2626 PWs)   bands (ev):

    -2.3746   2.4945   4.0569   4.0569   8.6107   8.6108   9.1391   9.1392
    10.1381  10.6283

          k = 0.1369 0.1369 0.3195 (  2626 PWs)   bands (ev):

    -1.9240   1.3343   4.4844   4.4845   7.6010   7.6010   9.4526   9.4527
    10.6462  12.4753

          k = 0.1369 0.1369 0.4107 (  2625 PWs)   bands (ev):

    -1.3254   0.3070   5.0488   5.0489   6.6341   6.6342   9.9716   9.9718
    11.2134  11.6391

          k = 0.1369 0.1369-0.5020 (  2630 PWs)   bands (ev):

    -0.5811  -0.5806   5.6255   5.6259   5.9210   5.9215  10.3996  10.4000
    11.0816  11.0821

          k = 0.1369 0.2282 0.2282 (  2628 PWs)   bands (ev):

    -2.0740   2.7844   2.7844   4.3417   7.4823   8.9974   8.9974   9.3279
    10.8215  10.8215

          k = 0.1369 0.2282 0.3195 (  2629 PWs)   bands (ev):

    -1.6244   1.6270   3.2180   4.7644   6.3801   7.8954   9.4305   9.7378
    11.2035  12.4945

          k = 0.1369 0.2282 0.4107 (  2624 PWs)   bands (ev):

    -1.0270   0.6019   3.7933   5.2112   5.5147   6.9164   9.9946  10.2877
    11.5161  11.5286

          k = 0.1369 0.2282-0.5020 (  2614 PWs)   bands (ev):

    -0.2843  -0.2838   4.5045   4.5050   6.0751   6.0756  10.6940  10.6945
    10.9530  10.9534

          k = 0.1369 0.3195 0.3195 (  2624 PWs)   bands (ev):

    -1.1761   2.0648   2.0648   5.0721   5.3755   8.3219   8.3220  10.1601
    11.3972  12.9130

          k = 0.1369 0.3195 0.4107 (  2619 PWs)   bands (ev):

    -0.5807   1.0431   2.6464   4.2259   5.7926   7.3410   8.8863  10.4263
    10.7176  12.2005

          k = 0.1369 0.3195-0.5020 (  2618 PWs)   bands (ev):

     0.1598   0.1602   3.3686   3.3691   6.4952   6.4957   9.5880   9.5885
    11.4038  11.4043

          k = 0.1369 0.4107 0.4107 (  2614 PWs)   bands (ev):

     0.0123   1.6293   1.6293   3.2263   6.3544   7.9061   7.9061   9.4514
    11.2779  12.7785

          k = 0.1369 0.4107-0.5020 (  2604 PWs)   bands (ev):

     0.7496   0.7501   2.3579   2.3584   7.0606   7.0611   8.6100   8.6105
    11.9672  11.9677

          k = 0.1369-0.5020-0.5020 (  2604 PWs)   bands (ev):

     1.4831   1.4836   1.4836   1.4840   7.7662   7.7666   7.7666   7.7671
    12.6562  12.6565

          k = 0.2282 0.2282 0.2282 (  2617 PWs)   bands (ev):

    -1.7741   3.0736   3.0736   3.0736   7.7785   7.7785   7.7786  11.0999
    11.0999  11.0999

          k = 0.2282 0.2282 0.3195 (  2623 PWs)   bands (ev):

    -1.3254   1.9190   3.5055   3.5056   6.6635   6.6636   8.2062  11.2845
    11.5102  11.5103

          k = 0.2282 0.2282 0.4107 (  2617 PWs)   bands (ev):

    -0.7293   0.8962   4.0756   4.0757   5.6794   5.6795   8.7716  10.3134
    12.0382  12.0383

          k = 0.2282 0.2282-0.5020 (  2622 PWs)   bands (ev):

     0.0119   0.0124   4.6571   4.6575   4.9590   4.9595   9.4743   9.4748
    12.4886  13.0575

          k = 0.2282 0.3195 0.3195 (  2611 PWs)   bands (ev):

    -0.8781   2.3559   2.3559   3.9323   5.5432   7.0896   7.0897  10.1820
    11.9315  13.4168

          k = 0.2282 0.3195 0.4107 (  2606 PWs)   bands (ev):

    -0.2838   1.3366   2.9356   4.3784   4.6740   6.1016   7.6566   9.2057
    12.4785  13.7393

          k = 0.2282 0.3195-0.5020 (  2612 PWs)   bands (ev):

     0.4551   0.4555   3.6526   3.6531   5.2527   5.2531   8.3625   8.3630
    13.1388  13.1392

          k = 0.2282 0.4107 0.4107 (  2611 PWs)   bands (ev):

     0.3079   1.9214   1.9214   3.5109   5.1100   6.6696   6.6696   8.2250
    13.0319  14.4832

          k = 0.2282 0.4107-0.5020 (  2618 PWs)   bands (ev):

     1.0437   1.0442   2.6480   2.6484   5.8181   5.8186   7.3781   7.3786
    13.7054  13.7059

          k = 0.2282-0.5020-0.5020 (  2632 PWs)   bands (ev):

     1.7756   1.7761   1.7761   1.7765   6.5283   6.5288   6.5288   6.5293
    14.3813  14.3817

          k = 0.3195 0.3195 0.3195 (  2629 PWs)   bands (ev):

    -0.4321   2.7908   2.7908   2.7908   5.9660   5.9660   5.9661   9.0737
    13.8410  13.8410

          k = 0.3195 0.3195 0.4107 (  2617 PWs)   bands (ev):

     0.1603   1.7755   3.3652   3.3653   4.9746   4.9747   6.5348   8.0921
    14.3673  14.3674

          k = 0.3195 0.3195-0.5020 (  2614 PWs)   bands (ev):

     0.8969   0.8973   3.9593   3.9598   4.2407   4.2412   7.2442   7.2447
    15.2578  15.2582

          k = 0.3195 0.4107 0.4107 (  2595 PWs)   bands (ev):

     0.7502   2.3580   2.3580   3.8197   4.0952   5.5419   5.5420   7.1057
    14.9150  16.1797

          k = 0.3195 0.4107-0.5020 (  2606 PWs)   bands (ev):

     1.4837   1.4841   3.0792   3.0797   4.6881   4.6885   6.2540   6.2544
    15.5570  15.5575

          k = 0.3195-0.5020-0.5020 (  2616 PWs)   bands (ev):

     2.2127   2.2132   2.2132   2.2137   5.3994   5.3998   5.3998   5.4004
    16.2111  16.2115

          k = 0.4107 0.4107 0.4107 (  2605 PWs)   bands (ev):

     1.3377   2.9352   2.9353   2.9353   4.5464   4.5464   4.5465   6.1144
    16.8783  16.8784

          k = 0.4107 0.4107-0.5020 (  2602 PWs)   bands (ev):

     2.0676   2.0681   3.5397   3.5401   3.8016   3.8021   5.2588   5.2593
    17.5548  17.5557

          k = 0.4107-0.5020-0.5020 (  2576 PWs)   bands (ev):

     2.7909   2.7914   2.7914   2.7918   4.4026   4.4030   4.4030   4.4035
    18.0457  18.0462

          k =-0.5020-0.5020-0.5020 (  2608 PWs)   bands (ev):

     3.3992   3.4001   3.4001   3.4001   3.6542   3.6542   3.6542   3.6551
    19.6049  19.6050

     the Fermi energy is     8.0563 ev

!    total energy              =    -158.01119499 Ry
     Harris-Foulkes estimate   =    -158.01119533 Ry
     estimated scf accuracy    <       0.00000076 Ry

     total all-electron energy =     -1942.582317 Ry

     The total energy is the sum of the following terms:

     one-electron contribution =      12.78905166 Ry
     hartree contribution      =       0.02492204 Ry
     xc contribution           =     -10.39406320 Ry
     ewald contribution        =     -21.71693409 Ry
     one-center paw contrib.   =    -138.71473465 Ry
     smearing contrib. (-TS)   =       0.00056325 Ry

     convergence has been achieved in   6 iterations

     Forces acting on atoms (cartesian axes, Ry/au):

     atom    1 type  1   force =     0.00000000    0.00000000    0.00000000
     atom    2 type  1   force =     0.00000000    0.00000000    0.00000000
     atom    3 type  1   force =     0.00000000    0.00000000    0.00000000
     atom    4 type  1   force =     0.00000000    0.00000000    0.00000000

     Total force =     0.000000     Total SCF correction =     0.000000


     Computing stress (Cartesian axis) and pressure

          total   stress  (Ry/bohr**3)                   (kbar)     P=    9.96
   0.00006772   0.00000000   0.00000000          9.96      0.00      0.00
   0.00000000   0.00006772   0.00000000          0.00      9.96      0.00
   0.00000000   0.00000000   0.00006772          0.00      0.00      9.96


     Writing output data file JysbCCTBMdkUxasw.save/

     init_run     :      1.48s CPU      1.49s WALL (       1 calls)
     electrons    :     16.19s CPU     16.26s WALL (       1 calls)
     forces       :      0.30s CPU      0.30s WALL (       1 calls)
     stress       :      0.64s CPU      0.64s WALL (       1 calls)

     Called by init_run:
     wfcinit      :      1.15s CPU      1.16s WALL (       1 calls)
     potinit      :      0.15s CPU      0.15s WALL (       1 calls)
     hinit0       :      0.16s CPU      0.16s WALL (       1 calls)

     Called by electrons:
     c_bands      :     13.16s CPU     13.21s WALL (       7 calls)
     sum_band     :      2.12s CPU      2.13s WALL (       7 calls)
     v_of_rho     :      0.14s CPU      0.14s WALL (       7 calls)
     newd         :      0.08s CPU      0.08s WALL (       7 calls)
     PAW_pot      :      0.83s CPU      0.84s WALL (       7 calls)
     mix_rho      :      0.01s CPU      0.01s WALL (       7 calls)

     Called by c_bands:
     init_us_2    :      0.36s CPU      0.36s WALL (     952 calls)
     cegterg      :     12.65s CPU     12.69s WALL (     392 calls)

     Called by sum_band:
     sum_band:bec :      0.00s CPU      0.00s WALL (     392 calls)
     addusdens    :      0.06s CPU      0.06s WALL (       7 calls)

     Called by *egterg:
     h_psi        :     10.53s CPU     10.56s WALL (    1433 calls)
     s_psi        :      0.83s CPU      0.83s WALL (    1433 calls)
     g_psi        :      0.06s CPU      0.06s WALL (     985 calls)
     cdiaghg      :      0.17s CPU      0.17s WALL (    1321 calls)

     Called by h_psi:
     h_psi:pot    :     10.49s CPU     10.52s WALL (    1433 calls)
     h_psi:calbec :      1.04s CPU      1.04s WALL (    1433 calls)
     vloc_psi     :      8.64s CPU      8.66s WALL (    1433 calls)
     add_vuspsi   :      0.81s CPU      0.82s WALL (    1433 calls)

     General routines
     calbec       :      1.63s CPU      1.64s WALL (    2105 calls)
     fft          :      0.07s CPU      0.07s WALL (     103 calls)
     ffts         :      0.00s CPU      0.00s WALL (       7 calls)
     fftw         :      9.40s CPU      9.43s WALL (   27038 calls)

     Parallel routines

     PWSCF        :     18.91s CPU     19.02s WALL


   This run was terminated on:  12:11:50  14May2021            

=------------------------------------------------------------------------------=
   JOB DONE.
=------------------------------------------------------------------------------=
