
     Program PWSCF v.6.4.1 starts on 14May2021 at 12:13:49 

     This program is part of the open-source Quantum ESPRESSO suite
     for quantum simulation of materials; please cite
         "P. Giannozzi et al., J. Phys.:Condens. Matter 21 395502 (2009);
         "P. Giannozzi et al., J. Phys.:Condens. Matter 29 465901 (2017);
          URL http://www.quantum-espresso.org", 
     in publications or presentations arising from this work. More details at
     http://www.quantum-espresso.org/quote

     Parallel version (MPI), running on     1 processors

     MPI processes distributed on     1 nodes
     Reading input from /cloud/Code/python/qeeos/examples/aluminium/wd/eos/eos_009.in
Warning: card &IONS ignored
Warning: card ION_DYNAMICS = 'BFGS', ignored
Warning: card / ignored
Warning: card &CELL ignored
Warning: card CELL_DYNAMICS = 'BFGS', ignored
Warning: card CELL_FACTOR = 2.0, ignored
Warning: card PRESS = 0.0, ignored
Warning: card / ignored

     Current dimensions of program PWSCF are:
     Max number of different atomic species (ntypx) = 10
     Max number of k-points (npk) =  40000
     Max angular momentum in pseudopotentials (lmaxx) =  3
               file Al.pbe-nl-kjpaw_psl.1.0.0.UPF: wavefunction(s)  3S 3P renormalized

     Subspace diagonalization in iterative solution of the eigenvalue problem:
     a serial algorithm will be used

     Found symmetry operation: I + ( -0.5000 -0.5000  0.0000)
     This is a supercell, fractional translations are disabled
     Message from routine setup:
     DEPRECATED: symmetry with ibrav=0, use correct ibrav instead

     G-vector sticks info
     --------------------
     sticks:   dense  smooth     PW     G-vecs:    dense   smooth      PW
     Sum         941     941    285                21367    21367    3575



     bravais-lattice index     =            0
     lattice parameter (alat)  =       7.6308  a.u.
     unit-cell volume          =     448.3483 (a.u.)^3
     number of atoms/cell      =            4
     number of atomic types    =            1
     number of electrons       =        12.00
     number of Kohn-Sham states=           10
     kinetic-energy cutoff     =      50.0000  Ry
     charge density cutoff     =     200.0000  Ry
     convergence threshold     =      1.0E-06
     mixing beta               =       0.1000
     number of iterations used =           10  plain     mixing
     Exchange-correlation      = SLA PW PBX PBC ( 1  4  3  4 0 0)

     celldm(1)=   7.630815  celldm(2)=   0.000000  celldm(3)=   0.000000
     celldm(4)=   0.000000  celldm(5)=   0.000000  celldm(6)=   0.000000

     crystal axes: (cart. coord. in units of alat)
               a(1) = (   1.003000   0.000000   0.000000 )  
               a(2) = (   0.000000   1.003000   0.000000 )  
               a(3) = (   0.000000   0.000000   1.003000 )  

     reciprocal axes: (cart. coord. in units 2 pi/alat)
               b(1) = (  0.997009  0.000000  0.000000 )  
               b(2) = (  0.000000  0.997009  0.000000 )  
               b(3) = (  0.000000  0.000000  0.997009 )  


     PseudoPot. # 1 for Al read from file:
     /opt/pp/Al.pbe-nl-kjpaw_psl.1.0.0.UPF
     MD5 check sum: 1b67f78b73fe58c7924490f171ce8a1e
     Pseudo is Projector augmented-wave + core cor, Zval =  3.0
     Generated using "atomic" code by A. Dal Corso v.6.3
     Shape of augmentation charge: PSQ
     Using radial grid of 1135 points,  4 beta functions with: 
                l(1) =   0
                l(2) =   0
                l(3) =   1
                l(4) =   1
     Q(r) pseudized with 0 coefficients 


     atomic species   valence    mass     pseudopotential
        Al             3.00    26.98200     Al( 1.00)

     48 Sym. Ops., with inversion, found



   Cartesian axes

     site n.     atom                  positions (alat units)
         1           Al  tau(   1) = (   0.0000000   0.0000000   0.0000000  )
         2           Al  tau(   2) = (   0.5015001   0.5015001   0.0000000  )
         3           Al  tau(   3) = (   0.5015001   0.0000000   0.5015000  )
         4           Al  tau(   4) = (   0.0000000   0.5015001   0.5015000  )

     number of k points=    56  Marzari-Vanderbilt smearing, width (Ry)=  0.0400
                       cart. coord. in units 2pi/alat
        k(    1) = (   0.0453186   0.0453186   0.0453186), wk =   0.0120210
        k(    2) = (   0.0453186   0.0453186   0.1359558), wk =   0.0360631
        k(    3) = (   0.0453186   0.0453186   0.2265929), wk =   0.0360631
        k(    4) = (   0.0453186   0.0453186   0.3172301), wk =   0.0360631
        k(    5) = (   0.0453186   0.0453186   0.4078673), wk =   0.0360631
        k(    6) = (   0.0453186   0.0453186  -0.4985045), wk =   0.0180316
        k(    7) = (   0.0453186   0.1359558   0.1359558), wk =   0.0360631
        k(    8) = (   0.0453186   0.1359558   0.2265929), wk =   0.0721262
        k(    9) = (   0.0453186   0.1359558   0.3172301), wk =   0.0721262
        k(   10) = (   0.0453186   0.1359558   0.4078673), wk =   0.0721262
        k(   11) = (   0.0453186   0.1359558  -0.4985045), wk =   0.0360631
        k(   12) = (   0.0453186   0.2265929   0.2265929), wk =   0.0360631
        k(   13) = (   0.0453186   0.2265929   0.3172301), wk =   0.0721262
        k(   14) = (   0.0453186   0.2265929   0.4078673), wk =   0.0721262
        k(   15) = (   0.0453186   0.2265929  -0.4985045), wk =   0.0360631
        k(   16) = (   0.0453186   0.3172301   0.3172301), wk =   0.0360631
        k(   17) = (   0.0453186   0.3172301   0.4078673), wk =   0.0721262
        k(   18) = (   0.0453186   0.3172301  -0.4985045), wk =   0.0360631
        k(   19) = (   0.0453186   0.4078673   0.4078673), wk =   0.0360631
        k(   20) = (   0.0453186   0.4078673  -0.4985045), wk =   0.0360631
        k(   21) = (   0.0453186  -0.4985045  -0.4985045), wk =   0.0090158
        k(   22) = (   0.1359558   0.1359558   0.1359558), wk =   0.0120210
        k(   23) = (   0.1359558   0.1359558   0.2265929), wk =   0.0360631
        k(   24) = (   0.1359558   0.1359558   0.3172301), wk =   0.0360631
        k(   25) = (   0.1359558   0.1359558   0.4078673), wk =   0.0360631
        k(   26) = (   0.1359558   0.1359558  -0.4985045), wk =   0.0180316
        k(   27) = (   0.1359558   0.2265929   0.2265929), wk =   0.0360631
        k(   28) = (   0.1359558   0.2265929   0.3172301), wk =   0.0721262
        k(   29) = (   0.1359558   0.2265929   0.4078673), wk =   0.0721262
        k(   30) = (   0.1359558   0.2265929  -0.4985045), wk =   0.0360631
        k(   31) = (   0.1359558   0.3172301   0.3172301), wk =   0.0360631
        k(   32) = (   0.1359558   0.3172301   0.4078673), wk =   0.0721262
        k(   33) = (   0.1359558   0.3172301  -0.4985045), wk =   0.0360631
        k(   34) = (   0.1359558   0.4078673   0.4078673), wk =   0.0360631
        k(   35) = (   0.1359558   0.4078673  -0.4985045), wk =   0.0360631
        k(   36) = (   0.1359558  -0.4985045  -0.4985045), wk =   0.0090158
        k(   37) = (   0.2265929   0.2265929   0.2265929), wk =   0.0120210
        k(   38) = (   0.2265929   0.2265929   0.3172301), wk =   0.0360631
        k(   39) = (   0.2265929   0.2265929   0.4078673), wk =   0.0360631
        k(   40) = (   0.2265929   0.2265929  -0.4985045), wk =   0.0180316
        k(   41) = (   0.2265929   0.3172301   0.3172301), wk =   0.0360631
        k(   42) = (   0.2265929   0.3172301   0.4078673), wk =   0.0721262
        k(   43) = (   0.2265929   0.3172301  -0.4985045), wk =   0.0360631
        k(   44) = (   0.2265929   0.4078673   0.4078673), wk =   0.0360631
        k(   45) = (   0.2265929   0.4078673  -0.4985045), wk =   0.0360631
        k(   46) = (   0.2265929  -0.4985045  -0.4985045), wk =   0.0090158
        k(   47) = (   0.3172301   0.3172301   0.3172301), wk =   0.0120210
        k(   48) = (   0.3172301   0.3172301   0.4078673), wk =   0.0360631
        k(   49) = (   0.3172301   0.3172301  -0.4985045), wk =   0.0180316
        k(   50) = (   0.3172301   0.4078673   0.4078673), wk =   0.0360631
        k(   51) = (   0.3172301   0.4078673  -0.4985045), wk =   0.0360631
        k(   52) = (   0.3172301  -0.4985045  -0.4985045), wk =   0.0090158
        k(   53) = (   0.4078673   0.4078673   0.4078673), wk =   0.0120210
        k(   54) = (   0.4078673   0.4078673  -0.4985045), wk =   0.0180316
        k(   55) = (   0.4078673  -0.4985045  -0.4985045), wk =   0.0090158
        k(   56) = (  -0.4985045  -0.4985045  -0.4985045), wk =   0.0015026

     Dense  grid:    21367 G-vectors     FFT dimensions: (  36,  36,  36)

     Estimated max dynamical RAM per process >      55.82 MB

     Initial potential from superposition of free atoms

     starting charge   11.99084, renormalised to   12.00000
     Starting wfcs are   16 randomized atomic wfcs
     Checking if some PAW data can be deallocated... 

     total cpu time spent up to now is        1.8 secs

     Self-consistent Calculation

     iteration #  1     ecut=    50.00 Ry     beta= 0.10
     Davidson diagonalization with overlap
     ethr =  1.00E-02,  avg # of iterations =  3.4

     Threshold (ethr) on eigenvalues was too large:
     Diagonalizing with lowered threshold

     Davidson diagonalization with overlap
     ethr =  1.95E-04,  avg # of iterations =  3.2

     total cpu time spent up to now is        6.8 secs

     total energy              =    -158.01589713 Ry
     Harris-Foulkes estimate   =    -158.01708758 Ry
     estimated scf accuracy    <       0.02261412 Ry

     iteration #  2     ecut=    50.00 Ry     beta= 0.10
     Davidson diagonalization with overlap
     ethr =  1.88E-04,  avg # of iterations =  1.0

     total cpu time spent up to now is        8.6 secs

     total energy              =    -158.01085900 Ry
     Harris-Foulkes estimate   =    -158.01600751 Ry
     estimated scf accuracy    <       0.01804249 Ry

     iteration #  3     ecut=    50.00 Ry     beta= 0.10
     Davidson diagonalization with overlap
     ethr =  1.50E-04,  avg # of iterations =  1.0

     total cpu time spent up to now is       10.5 secs

     total energy              =    -158.01121444 Ry
     Harris-Foulkes estimate   =    -158.01120959 Ry
     estimated scf accuracy    <       0.00004629 Ry

     iteration #  4     ecut=    50.00 Ry     beta= 0.10
     Davidson diagonalization with overlap
     ethr =  3.86E-07,  avg # of iterations =  4.6

     total cpu time spent up to now is       13.7 secs

     total energy              =    -158.01144138 Ry
     Harris-Foulkes estimate   =    -158.01129627 Ry
     estimated scf accuracy    <       0.00003429 Ry

     iteration #  5     ecut=    50.00 Ry     beta= 0.10
     Davidson diagonalization with overlap
     ethr =  2.86E-07,  avg # of iterations =  2.2

     total cpu time spent up to now is       16.0 secs

     total energy              =    -158.01126695 Ry
     Harris-Foulkes estimate   =    -158.01145001 Ry
     estimated scf accuracy    <       0.00041254 Ry

     iteration #  6     ecut=    50.00 Ry     beta= 0.10
     Davidson diagonalization with overlap
     ethr =  2.86E-07,  avg # of iterations =  2.9

     total cpu time spent up to now is       18.5 secs

     End of self-consistent calculation

          k = 0.0453 0.0453 0.0453 (  2686 PWs)   bands (ev):

    -3.2015   4.6114   4.6114   4.6114   6.6548   6.6548   6.6548  12.1065
    12.1065  12.1066

          k = 0.0453 0.0453 0.1360 (  2666 PWs)   bands (ev):

    -3.0524   3.3264   4.7503   4.7503   6.7964   6.7964   8.1979  10.8217
    10.8218  12.2445

          k = 0.0453 0.0453 0.2266 (  2683 PWs)   bands (ev):

    -2.7547   2.0613   5.0277   5.0277   7.0767   7.0767   9.6025   9.6025
     9.9780  11.6971

          k = 0.0453 0.0453 0.3172 (  2691 PWs)   bands (ev):

    -2.3093   0.9128   5.4432   5.4432   7.4818   7.4818   8.5173   8.5173
    10.6679  10.6681

          k = 0.0453 0.0453 0.4079 (  2686 PWs)   bands (ev):

    -1.7176  -0.1035   5.9952   5.9952   7.4897   7.4898   8.0758   8.0760
     9.7580   9.7583

          k = 0.0453 0.0453-0.4985 (  2682 PWs)   bands (ev):

    -0.9817  -0.9812   6.6218   6.6223   6.7504   6.7509   8.4668   8.4672
     9.2135   9.2140

          k = 0.0453 0.1360 0.1360 (  2670 PWs)   bands (ev):

    -2.9035   3.4682   3.4682   4.8890   6.9352   8.3343   8.3343   9.6095
    10.9607  10.9607

          k = 0.0453 0.1360 0.2266 (  2684 PWs)   bands (ev):

    -2.6061   2.2049   3.7516   5.1660   7.1990   8.4203   8.5990   9.7474
    10.1041  11.2421

          k = 0.0453 0.1360 0.3172 (  2685 PWs)   bands (ev):

    -2.1611   1.0577   4.1755   5.5800   7.1783   7.7664   8.5911   9.0519
    10.8243  11.6108

          k = 0.0453 0.1360 0.4079 (  2688 PWs)   bands (ev):

    -1.5700   0.0424   4.7383   6.0938   6.3180   7.6591   8.2502   9.3867
    10.0680  11.1842

          k = 0.0453 0.1360-0.4985 (  2688 PWs)   bands (ev):

    -0.8349  -0.8344   5.4357   5.4362   6.8361   6.8366   8.9063   8.9068
    10.4061  10.4066

          k = 0.0453 0.2266 0.2266 (  2679 PWs)   bands (ev):

    -2.3093   2.4916   2.4916   5.4414   7.0516   7.6406   9.9683   9.9684
    10.4117  10.4118

          k = 0.0453 0.2266 0.3172 (  2682 PWs)   bands (ev):

    -1.8653   1.3470   2.9207   5.8192   6.0619   7.9862   8.9004  10.4123
    10.6262  11.2582

          k = 0.0453 0.2266 0.4079 (  2672 PWs)   bands (ev):

    -1.2754   0.3338   3.4906   5.0404   6.4237   7.9393   8.5381  10.0202
    10.9658  11.4645

          k = 0.0453 0.2266-0.4985 (  2686 PWs)   bands (ev):

    -0.5417  -0.5412   4.1987   4.1992   7.1119   7.1124   9.2258   9.2262
    11.6528  11.6534

          k = 0.0453 0.3172 0.3172 (  2671 PWs)   bands (ev):

    -1.4226   1.7799   1.7799   4.9051   6.2856   8.4029   9.3181   9.3182
    11.3876  11.3877

          k = 0.0453 0.3172 0.4079 (  2670 PWs)   bands (ev):

    -0.8345   0.7699   2.3550   3.9226   6.8364   8.3550   8.9627   9.8707
    10.4729  11.3832

          k = 0.0453 0.3172-0.4985 (  2676 PWs)   bands (ev):

    -0.1031  -0.1026   3.0700   3.0705   7.5268   7.5273   9.6559   9.6564
    10.5590  10.5596

          k = 0.0453 0.4079 0.4079 (  2678 PWs)   bands (ev):

    -0.2487   1.3492   1.3492   2.9292   7.3892   8.9077   8.9078   9.5234
    10.4230  11.0339

          k = 0.0453 0.4079-0.4985 (  2674 PWs)   bands (ev):

     0.4798   0.4803   2.0696   2.0701   8.0798   8.0803   9.5971   9.5976
    10.2159  10.2164

          k = 0.0453-0.4985-0.4985 (  2688 PWs)   bands (ev):

     1.2047   1.2051   1.2051   1.2056   8.7699   8.7704   8.7704   8.7710
    10.9056  10.9058

          k = 0.1360 0.1360 0.1360 (  2671 PWs)   bands (ev):

    -2.7547   3.6100   3.6100   3.6100   8.4603   8.4603   8.4604   9.7591
     9.7591   9.7592

          k = 0.1360 0.1360 0.2266 (  2681 PWs)   bands (ev):

    -2.4576   2.3483   3.8929   3.8929   8.4104   8.4105   8.8773   8.8774
     9.9170  10.3545

          k = 0.1360 0.1360 0.3172 (  2687 PWs)   bands (ev):

    -2.0131   1.2024   4.3159   4.3159   7.3954   7.3955   9.2054   9.2054
    10.4041  12.1953

          k = 0.1360 0.1360 0.4079 (  2678 PWs)   bands (ev):

    -1.4226   0.1882   4.8754   4.8754   6.4354   6.4355   9.7286   9.7287
    10.9617  11.3388

          k = 0.1360 0.1360-0.4985 (  2680 PWs)   bands (ev):

    -0.6882  -0.6878   5.4631   5.4636   5.7122   5.7127  10.1811  10.1815
    10.7587  10.7592

          k = 0.1360 0.2266 0.2266 (  2677 PWs)   bands (ev):

    -2.1612   2.6348   2.6348   4.1748   7.2775   8.7751   8.7752   9.0779
    10.5594  10.5594

          k = 0.1360 0.2266 0.3172 (  2685 PWs)   bands (ev):

    -1.7176   1.4914   3.0633   4.5942   6.1830   7.6833   9.2000   9.4860
    10.9453  12.2236

          k = 0.1360 0.2266 0.4079 (  2674 PWs)   bands (ev):

    -1.1283   0.4793   3.6321   5.0544   5.3081   6.7145   9.7560  10.0321
    11.2699  11.2820

          k = 0.1360 0.2266-0.4985 (  2686 PWs)   bands (ev):

    -0.3954  -0.3949   4.3367   4.3372   5.8810   5.8815  10.4461  10.4466
    10.6968  10.6972

          k = 0.1360 0.3172 0.3172 (  2673 PWs)   bands (ev):

    -1.2754   1.9239   1.9239   4.9170   5.1701   8.1036   8.1037   9.9029
    11.1398  12.6590

          k = 0.1360 0.3172 0.4079 (  2671 PWs)   bands (ev):

    -0.6878   0.9149   2.4983   4.0612   5.6015   7.1339   8.6605  10.1810
    10.4541  11.9266

          k = 0.1360 0.3172-0.4985 (  2678 PWs)   bands (ev):

     0.0429   0.0434   3.2123   3.2127   6.2976   6.2981   9.3533   9.3538
    11.1336  11.1341

          k = 0.1360 0.4079 0.4079 (  2674 PWs)   bands (ev):

    -0.1026   1.4937   1.4937   3.0716   6.1583   7.6919   7.6920   9.2181
    11.0065  12.4897

          k = 0.1360 0.4079-0.4985 (  2666 PWs)   bands (ev):

     0.6252   0.6256   2.2134   2.2139   6.8564   6.8569   8.3871   8.3876
    11.6873  11.6878

          k = 0.1360-0.4985-0.4985 (  2684 PWs)   bands (ev):

     1.3493   1.3498   1.3498   1.3503   7.5535   7.5540   7.5540   7.5545
    12.3667  12.3672

          k = 0.2266 0.2266 0.2266 (  2692 PWs)   bands (ev):

    -1.8653   2.9206   2.9206   2.9206   7.5666   7.5666   7.5667  10.8342
    10.8342  10.8342

          k = 0.2266 0.2266 0.3172 (  2674 PWs)   bands (ev):

    -1.4226   1.7799   3.3478   3.3478   6.4631   6.4632   7.9880  11.0270
    11.2411  11.2412

          k = 0.2266 0.2266 0.4079 (  2675 PWs)   bands (ev):

    -0.8345   0.7699   3.9128   3.9128   5.4883   5.4884   8.5459  10.0680
    11.7686  11.7687

          k = 0.2266 0.2266-0.4985 (  2676 PWs)   bands (ev):

    -0.1030  -0.1026   4.5076   4.5081   4.7561   4.7566   9.2395   9.2401
    12.2409  12.7183

          k = 0.2266 0.3172 0.3172 (  2672 PWs)   bands (ev):

    -0.9813   2.2114   2.2114   3.7712   5.3535   6.8839   6.8839   9.9377
    11.6556  13.1293

          k = 0.2266 0.3172 0.4079 (  2676 PWs)   bands (ev):

    -0.3949   1.2047   2.7844   4.2326   4.4736   5.9070   7.4437   8.9735
    12.1966  13.4734

          k = 0.2266 0.3172-0.4985 (  2662 PWs)   bands (ev):

     0.3344   0.3349   3.4945   3.4950   5.0663   5.0668   8.1407   8.1412
    12.8534  12.8539

          k = 0.2266 0.4079 0.4079 (  2662 PWs)   bands (ev):

     0.1891   1.7823   1.7823   3.3544   4.9254   6.4683   6.4684   8.0047
    12.7414  14.1776

          k = 0.2266 0.4079-0.4985 (  2666 PWs)   bands (ev):

     0.9155   0.9160   2.5002   2.5007   5.6267   5.6272   7.1682   7.1687
    13.4066  13.4071

          k = 0.2266-0.4985-0.4985 (  2676 PWs)   bands (ev):

     1.6382   1.6387   1.6387   1.6392   6.3287   6.3291   6.3291   6.3297
    14.0721  14.0727

          k = 0.3172 0.3172 0.3172 (  2674 PWs)   bands (ev):

    -0.5412   2.6413   2.6414   2.6414   5.7727   5.7727   5.7728   8.8426
    13.5435  13.5435

          k = 0.3172 0.3172 0.4079 (  2677 PWs)   bands (ev):

     0.0434   1.6381   3.2105   3.2105   4.7913   4.7914   6.3348   7.8729
    14.0658  14.0658

          k = 0.3172 0.3172-0.4985 (  2658 PWs)   bands (ev):

     0.7705   0.7710   3.8188   3.8193   4.0447   4.0452   7.0355   7.0360
    14.5583  14.8994

          k = 0.3172 0.4079 0.4079 (  2667 PWs)   bands (ev):

     0.6257   2.2138   2.2138   3.6810   3.9008   5.3534   5.3535   6.8985
    14.6021  15.8726

          k = 0.3172 0.4079-0.4985 (  2672 PWs)   bands (ev):

     1.3499   1.3504   2.9277   2.9281   4.5083   4.5087   6.0571   6.0576
    15.2373  15.2378

          k = 0.3172-0.4985-0.4985 (  2664 PWs)   bands (ev):

     2.0702   2.0707   2.0707   2.0712   5.2126   5.2130   5.2130   5.2136
    15.8795  15.8800

          k = 0.4079 0.4079 0.4079 (  2656 PWs)   bands (ev):

     1.2058   2.7853   2.7854   2.7854   4.3683   4.3683   4.3685   5.9191
    16.5415  16.5415

          k = 0.4079 0.4079-0.4985 (  2658 PWs)   bands (ev):

     1.9269   1.9273   3.4044   3.4049   3.6106   3.6111   5.0736   5.0741
    17.1782  17.1789

          k = 0.4079-0.4985-0.4985 (  2668 PWs)   bands (ev):

     2.6426   2.6432   2.6432   2.6436   4.2263   4.2267   4.2267   4.2273
    17.6892  17.6895

          k =-0.4985-0.4985-0.4985 (  2608 PWs)   bands (ev):

     3.2657   3.2666   3.2666   3.2666   3.4648   3.4648   3.4648   3.4658
    19.1634  19.1635

     the Fermi energy is     7.8376 ev

!    total energy              =    -158.01128300 Ry
     Harris-Foulkes estimate   =    -158.01128315 Ry
     estimated scf accuracy    <       0.00000033 Ry

     total all-electron energy =     -1942.582405 Ry

     The total energy is the sum of the following terms:

     one-electron contribution =      12.58579231 Ry
     hartree contribution      =       0.02442008 Ry
     xc contribution           =     -10.34912587 Ry
     ewald contribution        =     -21.56537025 Ry
     one-center paw contrib.   =    -138.70746580 Ry
     smearing contrib. (-TS)   =       0.00046652 Ry

     convergence has been achieved in   6 iterations

     Forces acting on atoms (cartesian axes, Ry/au):

     atom    1 type  1   force =     0.00000000    0.00000000    0.00000000
     atom    2 type  1   force =     0.00000000    0.00000000    0.00000000
     atom    3 type  1   force =     0.00000000    0.00000000    0.00000000
     atom    4 type  1   force =     0.00000000    0.00000000    0.00000000

     Total force =     0.000000     Total SCF correction =     0.000000


     Computing stress (Cartesian axis) and pressure

          total   stress  (Ry/bohr**3)                   (kbar)     P=   -6.64
  -0.00004515   0.00000000   0.00000000         -6.64      0.00      0.00
   0.00000000  -0.00004515   0.00000000          0.00     -6.64      0.00
   0.00000000   0.00000000  -0.00004515          0.00      0.00     -6.64


     Writing output data file OxxkgSdfwIaWlOqJ.save/

     init_run     :      1.50s CPU      1.51s WALL (       1 calls)
     electrons    :     16.62s CPU     16.69s WALL (       1 calls)
     forces       :      0.30s CPU      0.30s WALL (       1 calls)
     stress       :      0.64s CPU      0.64s WALL (       1 calls)

     Called by init_run:
     wfcinit      :      1.18s CPU      1.19s WALL (       1 calls)
     potinit      :      0.15s CPU      0.15s WALL (       1 calls)
     hinit0       :      0.16s CPU      0.16s WALL (       1 calls)

     Called by electrons:
     c_bands      :     13.59s CPU     13.64s WALL (       7 calls)
     sum_band     :      2.12s CPU      2.13s WALL (       7 calls)
     v_of_rho     :      0.14s CPU      0.14s WALL (       7 calls)
     newd         :      0.08s CPU      0.08s WALL (       7 calls)
     PAW_pot      :      0.83s CPU      0.83s WALL (       7 calls)
     mix_rho      :      0.01s CPU      0.01s WALL (       7 calls)

     Called by c_bands:
     init_us_2    :      0.37s CPU      0.37s WALL (     952 calls)
     cegterg      :     13.06s CPU     13.09s WALL (     392 calls)

     Called by sum_band:
     sum_band:bec :      0.00s CPU      0.00s WALL (     392 calls)
     addusdens    :      0.05s CPU      0.06s WALL (       7 calls)

     Called by *egterg:
     h_psi        :     10.80s CPU     10.83s WALL (    1468 calls)
     s_psi        :      0.85s CPU      0.86s WALL (    1468 calls)
     g_psi        :      0.06s CPU      0.06s WALL (    1020 calls)
     cdiaghg      :      0.18s CPU      0.18s WALL (    1356 calls)

     Called by h_psi:
     h_psi:pot    :     10.75s CPU     10.79s WALL (    1468 calls)
     h_psi:calbec :      1.09s CPU      1.09s WALL (    1468 calls)
     vloc_psi     :      8.81s CPU      8.84s WALL (    1468 calls)
     add_vuspsi   :      0.85s CPU      0.85s WALL (    1468 calls)

     General routines
     calbec       :      1.69s CPU      1.70s WALL (    2140 calls)
     fft          :      0.06s CPU      0.07s WALL (     103 calls)
     ffts         :      0.00s CPU      0.00s WALL (       7 calls)
     fftw         :      9.54s CPU      9.58s WALL (   27198 calls)

     Parallel routines

     PWSCF        :     19.37s CPU     19.47s WALL


   This run was terminated on:  12:14: 9  14May2021            

=------------------------------------------------------------------------------=
   JOB DONE.
=------------------------------------------------------------------------------=
