
     Program PWSCF v.6.4.1 starts on 14May2021 at 12:14: 9 

     This program is part of the open-source Quantum ESPRESSO suite
     for quantum simulation of materials; please cite
         "P. Giannozzi et al., J. Phys.:Condens. Matter 21 395502 (2009);
         "P. Giannozzi et al., J. Phys.:Condens. Matter 29 465901 (2017);
          URL http://www.quantum-espresso.org", 
     in publications or presentations arising from this work. More details at
     http://www.quantum-espresso.org/quote

     Parallel version (MPI), running on     1 processors

     MPI processes distributed on     1 nodes
     Reading input from /cloud/Code/python/qeeos/examples/aluminium/wd/eos/eos_010.in
Warning: card &IONS ignored
Warning: card ION_DYNAMICS = 'BFGS', ignored
Warning: card / ignored
Warning: card &CELL ignored
Warning: card CELL_DYNAMICS = 'BFGS', ignored
Warning: card CELL_FACTOR = 2.0, ignored
Warning: card PRESS = 0.0, ignored
Warning: card / ignored

     Current dimensions of program PWSCF are:
     Max number of different atomic species (ntypx) = 10
     Max number of k-points (npk) =  40000
     Max angular momentum in pseudopotentials (lmaxx) =  3
               file Al.pbe-nl-kjpaw_psl.1.0.0.UPF: wavefunction(s)  3S 3P renormalized

     Subspace diagonalization in iterative solution of the eigenvalue problem:
     a serial algorithm will be used

     Found symmetry operation: I + ( -0.5000 -0.5000  0.0000)
     This is a supercell, fractional translations are disabled
     Message from routine setup:
     DEPRECATED: symmetry with ibrav=0, use correct ibrav instead

     G-vector sticks info
     --------------------
     sticks:   dense  smooth     PW     G-vecs:    dense   smooth      PW
     Sum         941     941    293                21559    21559    3695



     bravais-lattice index     =            0
     lattice parameter (alat)  =       7.6308  a.u.
     unit-cell volume          =     449.6907 (a.u.)^3
     number of atoms/cell      =            4
     number of atomic types    =            1
     number of electrons       =        12.00
     number of Kohn-Sham states=           10
     kinetic-energy cutoff     =      50.0000  Ry
     charge density cutoff     =     200.0000  Ry
     convergence threshold     =      1.0E-06
     mixing beta               =       0.1000
     number of iterations used =           10  plain     mixing
     Exchange-correlation      = SLA PW PBX PBC ( 1  4  3  4 0 0)

     celldm(1)=   7.630815  celldm(2)=   0.000000  celldm(3)=   0.000000
     celldm(4)=   0.000000  celldm(5)=   0.000000  celldm(6)=   0.000000

     crystal axes: (cart. coord. in units of alat)
               a(1) = (   1.004000   0.000000   0.000000 )  
               a(2) = (   0.000000   1.004000   0.000000 )  
               a(3) = (   0.000000   0.000000   1.004000 )  

     reciprocal axes: (cart. coord. in units 2 pi/alat)
               b(1) = (  0.996016  0.000000  0.000000 )  
               b(2) = (  0.000000  0.996016  0.000000 )  
               b(3) = (  0.000000  0.000000  0.996016 )  


     PseudoPot. # 1 for Al read from file:
     /opt/pp/Al.pbe-nl-kjpaw_psl.1.0.0.UPF
     MD5 check sum: 1b67f78b73fe58c7924490f171ce8a1e
     Pseudo is Projector augmented-wave + core cor, Zval =  3.0
     Generated using "atomic" code by A. Dal Corso v.6.3
     Shape of augmentation charge: PSQ
     Using radial grid of 1135 points,  4 beta functions with: 
                l(1) =   0
                l(2) =   0
                l(3) =   1
                l(4) =   1
     Q(r) pseudized with 0 coefficients 


     atomic species   valence    mass     pseudopotential
        Al             3.00    26.98200     Al( 1.00)

     48 Sym. Ops., with inversion, found



   Cartesian axes

     site n.     atom                  positions (alat units)
         1           Al  tau(   1) = (   0.0000000   0.0000000   0.0000000  )
         2           Al  tau(   2) = (   0.5020001   0.5020001   0.0000000  )
         3           Al  tau(   3) = (   0.5020001   0.0000000   0.5020000  )
         4           Al  tau(   4) = (   0.0000000   0.5020001   0.5020000  )

     number of k points=    56  Marzari-Vanderbilt smearing, width (Ry)=  0.0400
                       cart. coord. in units 2pi/alat
        k(    1) = (   0.0452735   0.0452735   0.0452735), wk =   0.0120210
        k(    2) = (   0.0452735   0.0452735   0.1358204), wk =   0.0360631
        k(    3) = (   0.0452735   0.0452735   0.2263673), wk =   0.0360631
        k(    4) = (   0.0452735   0.0452735   0.3169142), wk =   0.0360631
        k(    5) = (   0.0452735   0.0452735   0.4074611), wk =   0.0360631
        k(    6) = (   0.0452735   0.0452735  -0.4980080), wk =   0.0180316
        k(    7) = (   0.0452735   0.1358204   0.1358204), wk =   0.0360631
        k(    8) = (   0.0452735   0.1358204   0.2263673), wk =   0.0721262
        k(    9) = (   0.0452735   0.1358204   0.3169142), wk =   0.0721262
        k(   10) = (   0.0452735   0.1358204   0.4074611), wk =   0.0721262
        k(   11) = (   0.0452735   0.1358204  -0.4980080), wk =   0.0360631
        k(   12) = (   0.0452735   0.2263673   0.2263673), wk =   0.0360631
        k(   13) = (   0.0452735   0.2263673   0.3169142), wk =   0.0721262
        k(   14) = (   0.0452735   0.2263673   0.4074611), wk =   0.0721262
        k(   15) = (   0.0452735   0.2263673  -0.4980080), wk =   0.0360631
        k(   16) = (   0.0452735   0.3169142   0.3169142), wk =   0.0360631
        k(   17) = (   0.0452735   0.3169142   0.4074611), wk =   0.0721262
        k(   18) = (   0.0452735   0.3169142  -0.4980080), wk =   0.0360631
        k(   19) = (   0.0452735   0.4074611   0.4074611), wk =   0.0360631
        k(   20) = (   0.0452735   0.4074611  -0.4980080), wk =   0.0360631
        k(   21) = (   0.0452735  -0.4980080  -0.4980080), wk =   0.0090158
        k(   22) = (   0.1358204   0.1358204   0.1358204), wk =   0.0120210
        k(   23) = (   0.1358204   0.1358204   0.2263673), wk =   0.0360631
        k(   24) = (   0.1358204   0.1358204   0.3169142), wk =   0.0360631
        k(   25) = (   0.1358204   0.1358204   0.4074611), wk =   0.0360631
        k(   26) = (   0.1358204   0.1358204  -0.4980080), wk =   0.0180316
        k(   27) = (   0.1358204   0.2263673   0.2263673), wk =   0.0360631
        k(   28) = (   0.1358204   0.2263673   0.3169142), wk =   0.0721262
        k(   29) = (   0.1358204   0.2263673   0.4074611), wk =   0.0721262
        k(   30) = (   0.1358204   0.2263673  -0.4980080), wk =   0.0360631
        k(   31) = (   0.1358204   0.3169142   0.3169142), wk =   0.0360631
        k(   32) = (   0.1358204   0.3169142   0.4074611), wk =   0.0721262
        k(   33) = (   0.1358204   0.3169142  -0.4980080), wk =   0.0360631
        k(   34) = (   0.1358204   0.4074611   0.4074611), wk =   0.0360631
        k(   35) = (   0.1358204   0.4074611  -0.4980080), wk =   0.0360631
        k(   36) = (   0.1358204  -0.4980080  -0.4980080), wk =   0.0090158
        k(   37) = (   0.2263673   0.2263673   0.2263673), wk =   0.0120210
        k(   38) = (   0.2263673   0.2263673   0.3169142), wk =   0.0360631
        k(   39) = (   0.2263673   0.2263673   0.4074611), wk =   0.0360631
        k(   40) = (   0.2263673   0.2263673  -0.4980080), wk =   0.0180316
        k(   41) = (   0.2263673   0.3169142   0.3169142), wk =   0.0360631
        k(   42) = (   0.2263673   0.3169142   0.4074611), wk =   0.0721262
        k(   43) = (   0.2263673   0.3169142  -0.4980080), wk =   0.0360631
        k(   44) = (   0.2263673   0.4074611   0.4074611), wk =   0.0360631
        k(   45) = (   0.2263673   0.4074611  -0.4980080), wk =   0.0360631
        k(   46) = (   0.2263673  -0.4980080  -0.4980080), wk =   0.0090158
        k(   47) = (   0.3169142   0.3169142   0.3169142), wk =   0.0120210
        k(   48) = (   0.3169142   0.3169142   0.4074611), wk =   0.0360631
        k(   49) = (   0.3169142   0.3169142  -0.4980080), wk =   0.0180316
        k(   50) = (   0.3169142   0.4074611   0.4074611), wk =   0.0360631
        k(   51) = (   0.3169142   0.4074611  -0.4980080), wk =   0.0360631
        k(   52) = (   0.3169142  -0.4980080  -0.4980080), wk =   0.0090158
        k(   53) = (   0.4074611   0.4074611   0.4074611), wk =   0.0120210
        k(   54) = (   0.4074611   0.4074611  -0.4980080), wk =   0.0180316
        k(   55) = (   0.4074611  -0.4980080  -0.4980080), wk =   0.0090158
        k(   56) = (  -0.4980080  -0.4980080  -0.4980080), wk =   0.0015026

     Dense  grid:    21559 G-vectors     FFT dimensions: (  36,  36,  36)

     Estimated max dynamical RAM per process >      56.14 MB

     Initial potential from superposition of free atoms

     starting charge   11.99084, renormalised to   12.00000
     Starting wfcs are   16 randomized atomic wfcs
     Checking if some PAW data can be deallocated... 

     total cpu time spent up to now is        1.9 secs

     Self-consistent Calculation

     iteration #  1     ecut=    50.00 Ry     beta= 0.10
     Davidson diagonalization with overlap
     ethr =  1.00E-02,  avg # of iterations =  3.4

     Threshold (ethr) on eigenvalues was too large:
     Diagonalizing with lowered threshold

     Davidson diagonalization with overlap
     ethr =  1.95E-04,  avg # of iterations =  3.2

     total cpu time spent up to now is        7.0 secs

     total energy              =    -158.01582138 Ry
     Harris-Foulkes estimate   =    -158.01701236 Ry
     estimated scf accuracy    <       0.02262275 Ry

     iteration #  2     ecut=    50.00 Ry     beta= 0.10
     Davidson diagonalization with overlap
     ethr =  1.89E-04,  avg # of iterations =  1.0

     total cpu time spent up to now is        8.9 secs

     total energy              =    -158.01078650 Ry
     Harris-Foulkes estimate   =    -158.01593430 Ry
     estimated scf accuracy    <       0.01804463 Ry

     iteration #  3     ecut=    50.00 Ry     beta= 0.10
     Davidson diagonalization with overlap
     ethr =  1.50E-04,  avg # of iterations =  1.0

     total cpu time spent up to now is       10.7 secs

     total energy              =    -158.01114222 Ry
     Harris-Foulkes estimate   =    -158.01113737 Ry
     estimated scf accuracy    <       0.00004737 Ry

     iteration #  4     ecut=    50.00 Ry     beta= 0.10
     Davidson diagonalization with overlap
     ethr =  3.95E-07,  avg # of iterations =  4.2

     total cpu time spent up to now is       14.1 secs

     total energy              =    -158.01136862 Ry
     Harris-Foulkes estimate   =    -158.01122483 Ry
     estimated scf accuracy    <       0.00003445 Ry

     iteration #  5     ecut=    50.00 Ry     beta= 0.10
     Davidson diagonalization with overlap
     ethr =  2.87E-07,  avg # of iterations =  2.2

     total cpu time spent up to now is       16.5 secs

     total energy              =    -158.01119474 Ry
     Harris-Foulkes estimate   =    -158.01137710 Ry
     estimated scf accuracy    <       0.00040882 Ry

     iteration #  6     ecut=    50.00 Ry     beta= 0.10
     Davidson diagonalization with overlap
     ethr =  2.87E-07,  avg # of iterations =  2.9

     total cpu time spent up to now is       19.0 secs

     End of self-consistent calculation

          k = 0.0453 0.0453 0.0453 (  2686 PWs)   bands (ev):

    -3.2115   4.5879   4.5879   4.5879   6.6247   6.6247   6.6248  12.0705
    12.0705  12.0706

          k = 0.0453 0.0453 0.1358 (  2686 PWs)   bands (ev):

    -3.0628   3.3043   4.7265   4.7265   6.7662   6.7662   8.1660  10.7873
    10.7873  12.2085

          k = 0.0453 0.0453 0.2264 (  2693 PWs)   bands (ev):

    -2.7656   2.0414   5.0035   5.0035   7.0462   7.0462   9.5699   9.5700
     9.9433  11.6546

          k = 0.0453 0.0453 0.3169 (  2707 PWs)   bands (ev):

    -2.3211   0.8949   5.4184   5.4184   7.4517   7.4517   8.4860   8.4860
    10.6264  10.6266

          k = 0.0453 0.0453 0.4075 (  2686 PWs)   bands (ev):

    -1.7306  -0.1195   5.9695   5.9696   7.4625   7.4625   8.0439   8.0440
     9.7165   9.7167

          k = 0.0453 0.0453-0.4980 (  2710 PWs)   bands (ev):

    -0.9960  -0.9956   6.5964   6.5968   6.7223   6.7227   8.4398   8.4401
     9.1680   9.1684

          k = 0.0453 0.1358 0.1358 (  2676 PWs)   bands (ev):

    -2.9141   3.4460   3.4460   4.8650   6.9049   8.3023   8.3023   9.5755
    10.9259  10.9260

          k = 0.0453 0.1358 0.2264 (  2694 PWs)   bands (ev):

    -2.6173   2.1847   3.7288   5.1416   7.1693   8.3871   8.5672   9.7143
    10.0696  11.2066

          k = 0.0453 0.1358 0.3169 (  2695 PWs)   bands (ev):

    -2.1733   1.0395   4.1521   5.5550   7.1522   7.7306   8.5619   9.0184
    10.7818  11.5760

          k = 0.0453 0.1358 0.4075 (  2688 PWs)   bands (ev):

    -1.5833   0.0261   4.7140   6.0692   6.2899   7.6305   8.2162   9.3575
    10.0227  11.1434

          k = 0.0453 0.1358-0.4980 (  2694 PWs)   bands (ev):

    -0.8495  -0.8491   5.4105   5.4109   6.8086   6.8091   8.8732   8.8735
    10.3651  10.3655

          k = 0.0453 0.2264 0.2264 (  2693 PWs)   bands (ev):

    -2.3211   2.4709   2.4710   5.4167   7.0259   7.6045   9.9366   9.9367
    10.3759  10.3759

          k = 0.0453 0.2264 0.3169 (  2689 PWs)   bands (ev):

    -1.8780   1.3283   2.8992   5.7951   6.0341   7.9518   8.8696  10.3789
    10.5946  11.2117

          k = 0.0453 0.2264 0.4075 (  2679 PWs)   bands (ev):

    -1.2892   0.3170   3.4682   5.0157   6.3968   7.9100   8.5033   9.9849
    10.9313  11.4222

          k = 0.0453 0.2264-0.4980 (  2690 PWs)   bands (ev):

    -0.5569  -0.5565   4.1752   4.1756   7.0840   7.0845   9.1904   9.1907
    11.6170  11.6175

          k = 0.0453 0.3169 0.3169 (  2681 PWs)   bands (ev):

    -1.4362   1.7604   1.7604   4.8806   6.2589   8.3681   9.2865   9.2865
    11.3494  11.3495

          k = 0.0453 0.3169 0.4075 (  2674 PWs)   bands (ev):

    -0.8492   0.7522   2.3345   3.8995   6.8089   8.3250   8.9270   9.8381
    10.4351  11.3477

          k = 0.0453 0.3169-0.4980 (  2676 PWs)   bands (ev):

    -0.1190  -0.1187   3.0484   3.0488   7.4982   7.4987   9.6193   9.6196
    10.5252  10.5256

          k = 0.0453 0.4075 0.4075 (  2687 PWs)   bands (ev):

    -0.2645   1.3305   1.3305   2.9077   7.3608   8.8767   8.8768   9.4867
    10.3894  10.9946

          k = 0.0453 0.4075-0.4980 (  2682 PWs)   bands (ev):

     0.4627   0.4631   2.0497   2.0501   8.0502   8.0507   9.5649   9.5653
    10.1780  10.1784

          k = 0.0453-0.4980-0.4980 (  2688 PWs)   bands (ev):

     1.1863   1.1867   1.1867   1.1871   8.7392   8.7396   8.7396   8.7401
    10.8663  10.8665

          k = 0.1358 0.1358 0.1358 (  2689 PWs)   bands (ev):

    -2.7657   3.5874   3.5874   3.5874   8.4287   8.4287   8.4288   9.7244
     9.7244   9.7245

          k = 0.1358 0.1358 0.2264 (  2683 PWs)   bands (ev):

    -2.4692   2.3279   3.8699   3.8699   8.3822   8.3823   8.8406   8.8407
     9.8859  10.3160

          k = 0.1358 0.1358 0.3169 (  2693 PWs)   bands (ev):

    -2.0255   1.1840   4.2923   4.2923   7.3665   7.3666   9.1707   9.1707
    10.3700  12.1560

          k = 0.1358 0.1358 0.4075 (  2690 PWs)   bands (ev):

    -1.4362   0.1716   4.8510   4.8511   6.4076   6.4076   9.6943   9.6944
    10.9263  11.2969

          k = 0.1358 0.1358-0.4980 (  2704 PWs)   bands (ev):

    -0.7031  -0.7027   5.4404   5.4408   5.6830   5.6834  10.1504  10.1507
    10.7137  10.7142

          k = 0.1358 0.2264 0.2264 (  2689 PWs)   bands (ev):

    -2.1733   2.6138   2.6138   4.1514   7.2487   8.7439   8.7439   9.0429
    10.5225  10.5225

          k = 0.1358 0.2264 0.3169 (  2685 PWs)   bands (ev):

    -1.7306   1.4725   3.0416   4.5703   6.1554   7.6535   9.1676   9.4506
    10.9089  12.1855

          k = 0.1358 0.2264 0.4075 (  2684 PWs)   bands (ev):

    -1.1424   0.4622   3.6095   5.0324   5.2792   6.6862   9.7225   9.9961
    11.2336  11.2491

          k = 0.1358 0.2264-0.4980 (  2694 PWs)   bands (ev):

    -0.4108  -0.4104   4.3132   4.3136   5.8539   5.8543  10.4114  10.4118
    10.6606  10.6610

          k = 0.1358 0.3169 0.3169 (  2680 PWs)   bands (ev):

    -1.2892   1.9041   1.9042   4.8953   5.1413   8.0730   8.0730   9.8668
    11.1036  12.6231

          k = 0.1358 0.3169 0.4075 (  2684 PWs)   bands (ev):

    -0.7028   0.8970   2.4776   4.0381   5.5747   7.1048   8.6288  10.1466
    10.4171  11.8879

          k = 0.1358 0.3169-0.4980 (  2678 PWs)   bands (ev):

     0.0266   0.0270   3.1904   3.1908   6.2699   6.2703   9.3204   9.3208
    11.0956  11.0960

          k = 0.1358 0.4075 0.4075 (  2674 PWs)   bands (ev):

    -0.1187   1.4747   1.4747   3.0499   6.1308   7.6619   7.6620   9.1854
    10.9684  12.4491

          k = 0.1358 0.4075-0.4980 (  2680 PWs)   bands (ev):

     0.6078   0.6082   2.1932   2.1936   6.8278   6.8282   8.3559   8.3563
    11.6480  11.6484

          k = 0.1358-0.4980-0.4980 (  2696 PWs)   bands (ev):

     1.3307   1.3311   1.3311   1.3315   7.5238   7.5241   7.5241   7.5246
    12.3259  12.3262

          k = 0.2264 0.2264 0.2264 (  2698 PWs)   bands (ev):

    -1.8780   2.8991   2.8991   2.8991   7.5369   7.5369   7.5370  10.7969
    10.7969  10.7969

          k = 0.2264 0.2264 0.3169 (  2684 PWs)   bands (ev):

    -1.4362   1.7604   3.3256   3.3256   6.4350   6.4351   7.9574  10.9909
    11.2033  11.2033

          k = 0.2264 0.2264 0.4075 (  2681 PWs)   bands (ev):

    -0.8492   0.7523   3.8899   3.8900   5.4616   5.4617   8.5142  10.0335
    11.7306  11.7306

          k = 0.2264 0.2264-0.4980 (  2676 PWs)   bands (ev):

    -0.1190  -0.1186   4.4867   4.4871   4.7277   4.7281   9.2066   9.2071
    12.6703  12.6711

          k = 0.2264 0.3169 0.3169 (  2691 PWs)   bands (ev):

    -0.9957   2.1912   2.1912   3.7485   5.3269   6.8550   6.8551   9.9034
    11.6168  13.0887

          k = 0.2264 0.3169 0.4075 (  2688 PWs)   bands (ev):

    -0.4104   1.1862   2.7632   4.2121   4.4456   5.8798   7.4139   8.9409
    12.1569  13.4359

          k = 0.2264 0.3169-0.4980 (  2672 PWs)   bands (ev):

     0.3176   0.3180   3.4723   3.4727   5.0403   5.0407   8.1097   8.1101
    12.8132  12.8136

          k = 0.2264 0.4075 0.4075 (  2682 PWs)   bands (ev):

     0.1726   1.7628   1.7628   3.3324   4.8996   6.4401   6.4402   7.9739
    12.7005  14.1346

          k = 0.2264 0.4075-0.4980 (  2682 PWs)   bands (ev):

     0.8976   0.8980   2.4795   2.4799   5.6000   5.6004   7.1389   7.1393
    13.3646  13.3650

          k = 0.2264-0.4980-0.4980 (  2676 PWs)   bands (ev):

     1.6191   1.6195   1.6195   1.6199   6.3008   6.3011   6.3011   6.3016
    14.0287  14.0292

          k = 0.3169 0.3169 0.3169 (  2692 PWs)   bands (ev):

    -0.5565   2.6204   2.6204   2.6204   5.7456   5.7456   5.7457   8.8101
    13.5016  13.5016

          k = 0.3169 0.3169 0.4075 (  2677 PWs)   bands (ev):

     0.0271   1.6189   3.1888   3.1888   4.7657   4.7658   6.3068   7.8422
    14.0233  14.0233

          k = 0.3169 0.3169-0.4980 (  2666 PWs)   bands (ev):

     0.7529   0.7533   3.7992   3.7995   4.0173   4.0178   7.0063   7.0067
    14.8483  14.8490

          k = 0.3169 0.4075 0.4075 (  2678 PWs)   bands (ev):

     0.6083   2.1936   2.1936   3.6615   3.8736   5.3270   5.3271   6.8695
    14.5581  15.8291

          k = 0.3169 0.4075-0.4980 (  2684 PWs)   bands (ev):

     1.3313   1.3317   2.9064   2.9068   4.4832   4.4836   6.0296   6.0300
    15.1923  15.1927

          k = 0.3169-0.4980-0.4980 (  2680 PWs)   bands (ev):

     2.0504   2.0508   2.0508   2.0512   5.1865   5.1869   5.1869   5.1873
    15.8329  15.8330

          k = 0.4075 0.4075 0.4075 (  2668 PWs)   bands (ev):

     1.1873   2.7643   2.7644   2.7644   4.3435   4.3435   4.3436   5.8918
    16.4939  16.4940

          k = 0.4075 0.4075-0.4980 (  2666 PWs)   bands (ev):

     1.9072   1.9076   3.3855   3.3859   3.5839   3.5843   5.0478   5.0482
    17.1254  17.1258

          k = 0.4075-0.4980-0.4980 (  2680 PWs)   bands (ev):

     2.6219   2.6224   2.6224   2.6227   4.2018   4.2021   4.2021   4.2026
    17.6389  17.6394

          k =-0.4980-0.4980-0.4980 (  2608 PWs)   bands (ev):

     3.2472   3.2479   3.2479   3.2479   3.4384   3.4384   3.4384   3.4392
    19.1015  19.1019

     the Fermi energy is     7.8069 ev

!    total energy              =    -158.01121148 Ry
     Harris-Foulkes estimate   =    -158.01121149 Ry
     estimated scf accuracy    <       0.00000010 Ry

     total all-electron energy =     -1942.582334 Ry

     The total energy is the sum of the following terms:

     one-electron contribution =      12.55701698 Ry
     hartree contribution      =       0.02436376 Ry
     xc contribution           =     -10.34275011 Ry
     ewald contribution        =     -21.54389079 Ry
     one-center paw contrib.   =    -138.70640494 Ry
     smearing contrib. (-TS)   =       0.00045362 Ry

     convergence has been achieved in   6 iterations

     Forces acting on atoms (cartesian axes, Ry/au):

     atom    1 type  1   force =     0.00000000    0.00000000    0.00000000
     atom    2 type  1   force =     0.00000000    0.00000000    0.00000000
     atom    3 type  1   force =     0.00000000    0.00000000    0.00000000
     atom    4 type  1   force =     0.00000000    0.00000000    0.00000000

     Total force =     0.000000     Total SCF correction =     0.000000


     Computing stress (Cartesian axis) and pressure

          total   stress  (Ry/bohr**3)                   (kbar)     P=   -8.94
  -0.00006081   0.00000000   0.00000000         -8.94      0.00      0.00
   0.00000000  -0.00006081   0.00000000          0.00     -8.94      0.00
   0.00000000   0.00000000  -0.00006081          0.00      0.00     -8.94


     Writing output data file yuGTJlfbhSskubiM.save/

     init_run     :      1.51s CPU      1.56s WALL (       1 calls)
     electrons    :     16.96s CPU     17.11s WALL (       1 calls)
     forces       :      0.31s CPU      0.31s WALL (       1 calls)
     stress       :      0.65s CPU      0.66s WALL (       1 calls)

     Called by init_run:
     wfcinit      :      1.19s CPU      1.21s WALL (       1 calls)
     potinit      :      0.14s CPU      0.15s WALL (       1 calls)
     hinit0       :      0.16s CPU      0.17s WALL (       1 calls)

     Called by electrons:
     c_bands      :     13.82s CPU     13.94s WALL (       7 calls)
     sum_band     :      2.22s CPU      2.24s WALL (       7 calls)
     v_of_rho     :      0.14s CPU      0.14s WALL (       7 calls)
     newd         :      0.08s CPU      0.09s WALL (       7 calls)
     PAW_pot      :      0.84s CPU      0.85s WALL (       7 calls)
     mix_rho      :      0.01s CPU      0.01s WALL (       7 calls)

     Called by c_bands:
     init_us_2    :      0.38s CPU      0.38s WALL (     952 calls)
     cegterg      :     13.28s CPU     13.39s WALL (     392 calls)

     Called by sum_band:
     sum_band:bec :      0.00s CPU      0.00s WALL (     392 calls)
     addusdens    :      0.06s CPU      0.06s WALL (       7 calls)

     Called by *egterg:
     h_psi        :     10.97s CPU     11.08s WALL (    1447 calls)
     s_psi        :      0.87s CPU      0.88s WALL (    1447 calls)
     g_psi        :      0.06s CPU      0.06s WALL (     999 calls)
     cdiaghg      :      0.18s CPU      0.19s WALL (    1335 calls)

     Called by h_psi:
     h_psi:pot    :     10.92s CPU     11.03s WALL (    1447 calls)
     h_psi:calbec :      1.11s CPU      1.12s WALL (    1447 calls)
     vloc_psi     :      8.94s CPU      9.03s WALL (    1447 calls)
     add_vuspsi   :      0.87s CPU      0.88s WALL (    1447 calls)

     General routines
     calbec       :      1.73s CPU      1.74s WALL (    2119 calls)
     fft          :      0.06s CPU      0.07s WALL (     103 calls)
     ffts         :      0.00s CPU      0.00s WALL (       7 calls)
     fftw         :      9.72s CPU      9.81s WALL (   27168 calls)

     Parallel routines

     PWSCF        :     19.76s CPU     19.98s WALL


   This run was terminated on:  12:14:29  14May2021            

=------------------------------------------------------------------------------=
   JOB DONE.
=------------------------------------------------------------------------------=
