
     Program PWSCF v.6.4.1 starts on 14May2021 at 12:11:50 

     This program is part of the open-source Quantum ESPRESSO suite
     for quantum simulation of materials; please cite
         "P. Giannozzi et al., J. Phys.:Condens. Matter 21 395502 (2009);
         "P. Giannozzi et al., J. Phys.:Condens. Matter 29 465901 (2017);
          URL http://www.quantum-espresso.org", 
     in publications or presentations arising from this work. More details at
     http://www.quantum-espresso.org/quote

     Parallel version (MPI), running on     1 processors

     MPI processes distributed on     1 nodes
     Reading input from /cloud/Code/python/qeeos/examples/aluminium/wd/eos/eos_003.in
Warning: card &IONS ignored
Warning: card ION_DYNAMICS = 'BFGS', ignored
Warning: card / ignored
Warning: card &CELL ignored
Warning: card CELL_DYNAMICS = 'BFGS', ignored
Warning: card CELL_FACTOR = 2.0, ignored
Warning: card PRESS = 0.0, ignored
Warning: card / ignored

     Current dimensions of program PWSCF are:
     Max number of different atomic species (ntypx) = 10
     Max number of k-points (npk) =  40000
     Max angular momentum in pseudopotentials (lmaxx) =  3
               file Al.pbe-nl-kjpaw_psl.1.0.0.UPF: wavefunction(s)  3S 3P renormalized

     Subspace diagonalization in iterative solution of the eigenvalue problem:
     a serial algorithm will be used

     Found symmetry operation: I + ( -0.5000 -0.5000  0.0000)
     This is a supercell, fractional translations are disabled
     Message from routine setup:
     DEPRECATED: symmetry with ibrav=0, use correct ibrav instead

     G-vector sticks info
     --------------------
     sticks:   dense  smooth     PW     G-vecs:    dense   smooth      PW
     Sum         933     933    277                21079    21079    3431



     bravais-lattice index     =            0
     lattice parameter (alat)  =       7.6308  a.u.
     unit-cell volume          =     440.3503 (a.u.)^3
     number of atoms/cell      =            4
     number of atomic types    =            1
     number of electrons       =        12.00
     number of Kohn-Sham states=           10
     kinetic-energy cutoff     =      50.0000  Ry
     charge density cutoff     =     200.0000  Ry
     convergence threshold     =      1.0E-06
     mixing beta               =       0.1000
     number of iterations used =           10  plain     mixing
     Exchange-correlation      = SLA PW PBX PBC ( 1  4  3  4 0 0)

     celldm(1)=   7.630815  celldm(2)=   0.000000  celldm(3)=   0.000000
     celldm(4)=   0.000000  celldm(5)=   0.000000  celldm(6)=   0.000000

     crystal axes: (cart. coord. in units of alat)
               a(1) = (   0.997000   0.000000   0.000000 )  
               a(2) = (   0.000000   0.997000   0.000000 )  
               a(3) = (   0.000000   0.000000   0.997000 )  

     reciprocal axes: (cart. coord. in units 2 pi/alat)
               b(1) = (  1.003009  0.000000  0.000000 )  
               b(2) = (  0.000000  1.003009  0.000000 )  
               b(3) = (  0.000000  0.000000  1.003009 )  


     PseudoPot. # 1 for Al read from file:
     /opt/pp/Al.pbe-nl-kjpaw_psl.1.0.0.UPF
     MD5 check sum: 1b67f78b73fe58c7924490f171ce8a1e
     Pseudo is Projector augmented-wave + core cor, Zval =  3.0
     Generated using "atomic" code by A. Dal Corso v.6.3
     Shape of augmentation charge: PSQ
     Using radial grid of 1135 points,  4 beta functions with: 
                l(1) =   0
                l(2) =   0
                l(3) =   1
                l(4) =   1
     Q(r) pseudized with 0 coefficients 


     atomic species   valence    mass     pseudopotential
        Al             3.00    26.98200     Al( 1.00)

     48 Sym. Ops., with inversion, found



   Cartesian axes

     site n.     atom                  positions (alat units)
         1           Al  tau(   1) = (   0.0000000   0.0000000   0.0000000  )
         2           Al  tau(   2) = (   0.4985001   0.4985001   0.0000000  )
         3           Al  tau(   3) = (   0.4985001   0.0000000   0.4985000  )
         4           Al  tau(   4) = (   0.0000000   0.4985001   0.4985000  )

     number of k points=    56  Marzari-Vanderbilt smearing, width (Ry)=  0.0400
                       cart. coord. in units 2pi/alat
        k(    1) = (   0.0455913   0.0455913   0.0455913), wk =   0.0120210
        k(    2) = (   0.0455913   0.0455913   0.1367740), wk =   0.0360631
        k(    3) = (   0.0455913   0.0455913   0.2279566), wk =   0.0360631
        k(    4) = (   0.0455913   0.0455913   0.3191392), wk =   0.0360631
        k(    5) = (   0.0455913   0.0455913   0.4103219), wk =   0.0360631
        k(    6) = (   0.0455913   0.0455913  -0.5015045), wk =   0.0180316
        k(    7) = (   0.0455913   0.1367740   0.1367740), wk =   0.0360631
        k(    8) = (   0.0455913   0.1367740   0.2279566), wk =   0.0721262
        k(    9) = (   0.0455913   0.1367740   0.3191392), wk =   0.0721262
        k(   10) = (   0.0455913   0.1367740   0.4103219), wk =   0.0721262
        k(   11) = (   0.0455913   0.1367740  -0.5015045), wk =   0.0360631
        k(   12) = (   0.0455913   0.2279566   0.2279566), wk =   0.0360631
        k(   13) = (   0.0455913   0.2279566   0.3191392), wk =   0.0721262
        k(   14) = (   0.0455913   0.2279566   0.4103219), wk =   0.0721262
        k(   15) = (   0.0455913   0.2279566  -0.5015045), wk =   0.0360631
        k(   16) = (   0.0455913   0.3191392   0.3191392), wk =   0.0360631
        k(   17) = (   0.0455913   0.3191392   0.4103219), wk =   0.0721262
        k(   18) = (   0.0455913   0.3191392  -0.5015045), wk =   0.0360631
        k(   19) = (   0.0455913   0.4103219   0.4103219), wk =   0.0360631
        k(   20) = (   0.0455913   0.4103219  -0.5015045), wk =   0.0360631
        k(   21) = (   0.0455913  -0.5015045  -0.5015045), wk =   0.0090158
        k(   22) = (   0.1367740   0.1367740   0.1367740), wk =   0.0120210
        k(   23) = (   0.1367740   0.1367740   0.2279566), wk =   0.0360631
        k(   24) = (   0.1367740   0.1367740   0.3191392), wk =   0.0360631
        k(   25) = (   0.1367740   0.1367740   0.4103219), wk =   0.0360631
        k(   26) = (   0.1367740   0.1367740  -0.5015045), wk =   0.0180316
        k(   27) = (   0.1367740   0.2279566   0.2279566), wk =   0.0360631
        k(   28) = (   0.1367740   0.2279566   0.3191392), wk =   0.0721262
        k(   29) = (   0.1367740   0.2279566   0.4103219), wk =   0.0721262
        k(   30) = (   0.1367740   0.2279566  -0.5015045), wk =   0.0360631
        k(   31) = (   0.1367740   0.3191392   0.3191392), wk =   0.0360631
        k(   32) = (   0.1367740   0.3191392   0.4103219), wk =   0.0721262
        k(   33) = (   0.1367740   0.3191392  -0.5015045), wk =   0.0360631
        k(   34) = (   0.1367740   0.4103219   0.4103219), wk =   0.0360631
        k(   35) = (   0.1367740   0.4103219  -0.5015045), wk =   0.0360631
        k(   36) = (   0.1367740  -0.5015045  -0.5015045), wk =   0.0090158
        k(   37) = (   0.2279566   0.2279566   0.2279566), wk =   0.0120210
        k(   38) = (   0.2279566   0.2279566   0.3191392), wk =   0.0360631
        k(   39) = (   0.2279566   0.2279566   0.4103219), wk =   0.0360631
        k(   40) = (   0.2279566   0.2279566  -0.5015045), wk =   0.0180316
        k(   41) = (   0.2279566   0.3191392   0.3191392), wk =   0.0360631
        k(   42) = (   0.2279566   0.3191392   0.4103219), wk =   0.0721262
        k(   43) = (   0.2279566   0.3191392  -0.5015045), wk =   0.0360631
        k(   44) = (   0.2279566   0.4103219   0.4103219), wk =   0.0360631
        k(   45) = (   0.2279566   0.4103219  -0.5015045), wk =   0.0360631
        k(   46) = (   0.2279566  -0.5015045  -0.5015045), wk =   0.0090158
        k(   47) = (   0.3191392   0.3191392   0.3191392), wk =   0.0120210
        k(   48) = (   0.3191392   0.3191392   0.4103219), wk =   0.0360631
        k(   49) = (   0.3191392   0.3191392  -0.5015045), wk =   0.0180316
        k(   50) = (   0.3191392   0.4103219   0.4103219), wk =   0.0360631
        k(   51) = (   0.3191392   0.4103219  -0.5015045), wk =   0.0360631
        k(   52) = (   0.3191392  -0.5015045  -0.5015045), wk =   0.0090158
        k(   53) = (   0.4103219   0.4103219   0.4103219), wk =   0.0120210
        k(   54) = (   0.4103219   0.4103219  -0.5015045), wk =   0.0180316
        k(   55) = (   0.4103219  -0.5015045  -0.5015045), wk =   0.0090158
        k(   56) = (  -0.5015045  -0.5015045  -0.5015045), wk =   0.0015026

     Dense  grid:    21079 G-vectors     FFT dimensions: (  36,  36,  36)

     Estimated max dynamical RAM per process >      55.01 MB

     Initial potential from superposition of free atoms

     starting charge   11.99084, renormalised to   12.00000
     Starting wfcs are   16 randomized atomic wfcs
     Checking if some PAW data can be deallocated... 

     total cpu time spent up to now is        1.8 secs

     Self-consistent Calculation

     iteration #  1     ecut=    50.00 Ry     beta= 0.10
     Davidson diagonalization with overlap
     ethr =  1.00E-02,  avg # of iterations =  3.3

     Threshold (ethr) on eigenvalues was too large:
     Diagonalizing with lowered threshold

     Davidson diagonalization with overlap
     ethr =  1.95E-04,  avg # of iterations =  3.2

     total cpu time spent up to now is        6.7 secs

     total energy              =    -158.01588753 Ry
     Harris-Foulkes estimate   =    -158.01707768 Ry
     estimated scf accuracy    <       0.02258056 Ry

     iteration #  2     ecut=    50.00 Ry     beta= 0.10
     Davidson diagonalization with overlap
     ethr =  1.88E-04,  avg # of iterations =  1.0

     total cpu time spent up to now is        8.5 secs

     total energy              =    -158.01086233 Ry
     Harris-Foulkes estimate   =    -158.01599998 Ry
     estimated scf accuracy    <       0.01801602 Ry

     iteration #  3     ecut=    50.00 Ry     beta= 0.10
     Davidson diagonalization with overlap
     ethr =  1.50E-04,  avg # of iterations =  1.0

     total cpu time spent up to now is       10.4 secs

     total energy              =    -158.01120606 Ry
     Harris-Foulkes estimate   =    -158.01120133 Ry
     estimated scf accuracy    <       0.00004756 Ry

     iteration #  4     ecut=    50.00 Ry     beta= 0.10
     Davidson diagonalization with overlap
     ethr =  3.96E-07,  avg # of iterations =  4.2

     total cpu time spent up to now is       13.5 secs

     total energy              =    -158.01141601 Ry
     Harris-Foulkes estimate   =    -158.01128557 Ry
     estimated scf accuracy    <       0.00003424 Ry

     iteration #  5     ecut=    50.00 Ry     beta= 0.10
     Davidson diagonalization with overlap
     ethr =  2.85E-07,  avg # of iterations =  2.2

     total cpu time spent up to now is       15.9 secs

     total energy              =    -158.01125696 Ry
     Harris-Foulkes estimate   =    -158.01142335 Ry
     estimated scf accuracy    <       0.00037446 Ry

     iteration #  6     ecut=    50.00 Ry     beta= 0.10
     Davidson diagonalization with overlap
     ethr =  2.85E-07,  avg # of iterations =  2.7

     total cpu time spent up to now is       18.3 secs

     End of self-consistent calculation

          k = 0.0456 0.0456 0.0456 (  2613 PWs)   bands (ev):

    -3.1391   4.7556   4.7556   4.7556   6.8379   6.8379   6.8380  12.3255
    12.3255  12.3256

          k = 0.0456 0.0456 0.1368 (  2628 PWs)   bands (ev):

    -2.9882   3.4613   4.8957   4.8957   6.9804   6.9804   8.3923  11.0319
    11.0319  12.4654

          k = 0.0456 0.0456 0.2280 (  2632 PWs)   bands (ev):

    -2.6869   2.1836   5.1758   5.1758   7.2616   7.2616   9.8014   9.8015
    10.1893  11.9575

          k = 0.0456 0.0456 0.3191 (  2637 PWs)   bands (ev):

    -2.2363   1.0227   5.5952   5.5952   7.6644   7.6644   8.7087   8.7087
    10.9227  10.9229

          k = 0.0456 0.0456 0.4103 (  2645 PWs)   bands (ev):

    -1.6376  -0.0049   6.1520   6.1520   7.6560   7.6560   8.2696   8.2697
    10.0145  10.0148

          k = 0.0456 0.0456-0.5015 (  2634 PWs)   bands (ev):

    -0.8932  -0.8927   6.7768   6.7773   6.9222   6.9228   8.6311   8.6314
     9.4932   9.4937

          k = 0.0456 0.1368 0.1368 (  2627 PWs)   bands (ev):

    -2.8375   3.6047   3.6047   5.0357   7.1191   8.5289   8.5289   9.8171
    11.1728  11.1729

          k = 0.0456 0.1368 0.2280 (  2636 PWs)   bands (ev):

    -2.5366   2.3287   3.8909   5.3153   7.3791   8.6241   8.7920   9.9498
    10.3133  11.4592

          k = 0.0456 0.1368 0.3191 (  2637 PWs)   bands (ev):

    -2.0864   1.1692   4.3189   5.7328   7.3368   7.9850   8.7687   9.2557
    11.0858  11.8223

          k = 0.0456 0.1368 0.4103 (  2639 PWs)   bands (ev):

    -1.4883   0.1426   4.8870   6.2434   6.4898   7.8338   8.4573   9.5638
    10.3464  11.4348

          k = 0.0456 0.1368-0.5015 (  2634 PWs)   bands (ev):

    -0.7447  -0.7442   5.5898   5.5903   7.0042   7.0047   9.1075   9.1079
    10.6592  10.6597

          k = 0.0456 0.2280 0.2280 (  2647 PWs)   bands (ev):

    -2.2363   2.6185   2.6185   5.5928   7.2081   7.8619  10.1611  10.1612
    10.6297  10.6298

          k = 0.0456 0.2280 0.3191 (  2642 PWs)   bands (ev):

    -1.7870   1.4616   3.0520   5.9661   6.2318   8.1965   9.0880  10.6160
    10.8187  11.5443

          k = 0.0456 0.2280 0.4103 (  2627 PWs)   bands (ev):

    -1.1902   0.4373   3.6277   5.1911   6.5884   8.1179   8.7505  10.2346
    11.1765  11.7247

          k = 0.0456 0.2280-0.5015 (  2626 PWs)   bands (ev):

    -0.4481  -0.4477   4.3426   4.3430   7.2826   7.2831   9.4417   9.4421
    11.8714  11.8720

          k = 0.0456 0.3191 0.3191 (  2642 PWs)   bands (ev):

    -1.3392   1.8992   1.8992   5.0546   6.4491   8.6156   9.5111   9.5112
    11.6191  11.6192

          k = 0.0456 0.3191 0.4103 (  2625 PWs)   bands (ev):

    -0.7443   0.8782   2.4805   4.0638   7.0046   8.5383   9.1804  10.0700
    10.7030  11.5992

          k = 0.0456 0.3191-0.5015 (  2626 PWs)   bands (ev):

    -0.0045  -0.0040   3.2029   3.2034   7.7018   7.7023   9.8800   9.8804
    10.7660  10.7665

          k = 0.0456 0.4103 0.4103 (  2628 PWs)   bands (ev):

    -0.1518   1.4639   1.4639   3.0607   7.5629   9.0969   9.0970   9.7476
    10.6286  11.2735

          k = 0.0456 0.4103-0.5015 (  2624 PWs)   bands (ev):

     0.5849   0.5854   2.1922   2.1926   8.2605   8.2610   9.7938   9.7943
    10.4475  10.4480

          k = 0.0456-0.5015-0.5015 (  2636 PWs)   bands (ev):

     1.3178   1.3183   1.3183   1.3188   8.9579   8.9583   8.9583   8.9589
    11.1453  11.1455

          k = 0.1368 0.1368 0.1368 (  2629 PWs)   bands (ev):

    -2.6870   3.7478   3.7478   3.7478   8.6522   8.6522   8.6522   9.9715
     9.9715   9.9716

          k = 0.1368 0.1368 0.2280 (  2638 PWs)   bands (ev):

    -2.3863   2.4737   4.0335   4.0335   8.5820   8.5821   9.1019   9.1019
    10.1064  10.5893

          k = 0.1368 0.1368 0.3191 (  2627 PWs)   bands (ev):

    -1.9366   1.3155   4.4604   4.4604   7.5716   7.5717   9.4174   9.4174
    10.6116  12.4353

          k = 0.1368 0.1368 0.4103 (  2643 PWs)   bands (ev):

    -1.3392   0.2901   5.0241   5.0241   6.6057   6.6059   9.9370   9.9371
    11.1774  11.5961

          k = 0.1368 0.1368-0.5015 (  2638 PWs)   bands (ev):

    -0.5963  -0.5959   5.6022   5.6026   5.8913   5.8919  10.3682  10.3686
    11.0357  11.0362

          k = 0.1368 0.2280 0.2280 (  2636 PWs)   bands (ev):

    -2.0864   2.7631   2.7631   4.3179   7.4531   8.9656   8.9657   9.2922
    10.7841  10.7841

          k = 0.1368 0.2280 0.3191 (  2636 PWs)   bands (ev):

    -1.6376   1.6077   3.1960   4.7401   6.3520   7.8651   9.3976   9.7018
    11.1667  12.4558

          k = 0.1368 0.2280 0.4103 (  2624 PWs)   bands (ev):

    -1.0414   0.5845   3.7704   5.1887   5.4854   6.8876   9.9606  10.2512
    11.4824  11.4916

          k = 0.1368 0.2280-0.5015 (  2620 PWs)   bands (ev):

    -0.3001  -0.2996   4.4806   4.4810   6.0474   6.0479  10.6586  10.6591
    10.9165  10.9169

          k = 0.1368 0.3191 0.3191 (  2624 PWs)   bands (ev):

    -1.1902   2.0448   2.0448   5.0499   5.3464   8.2907   8.2908  10.1234
    11.3605  12.8766

          k = 0.1368 0.3191 0.4103 (  2626 PWs)   bands (ev):

    -0.5959   1.0249   2.6253   4.2024   5.7653   7.3114   8.8540  10.3913
    10.6800  12.1614

          k = 0.1368 0.3191-0.5015 (  2628 PWs)   bands (ev):

     0.1431   0.1436   3.3463   3.3468   6.4670   6.4675   9.5545   9.5550
    11.3652  11.3657

          k = 0.1368 0.4103 0.4103 (  2625 PWs)   bands (ev):

    -0.0040   1.6100   1.6100   3.2043   6.3264   7.8755   7.8756   9.4181
    11.2391  12.7372

          k = 0.1368 0.4103-0.5015 (  2620 PWs)   bands (ev):

     0.7319   0.7324   2.3373   2.3378   7.0314   7.0319   8.5782   8.5787
    11.9272  11.9277

          k = 0.1368-0.5015-0.5015 (  2620 PWs)   bands (ev):

     1.4641   1.4645   1.4645   1.4650   7.7358   7.7362   7.7362   7.7368
    12.6148  12.6153

          k = 0.2280 0.2280 0.2280 (  2635 PWs)   bands (ev):

    -1.7870   3.0518   3.0518   3.0518   7.7482   7.7482   7.7484  11.0620
    11.0620  11.0620

          k = 0.2280 0.2280 0.3191 (  2634 PWs)   bands (ev):

    -1.3392   1.8992   3.4831   3.4831   6.6349   6.6350   8.1751  11.2478
    11.4718  11.4719

          k = 0.2280 0.2280 0.4103 (  2627 PWs)   bands (ev):

    -0.7443   0.8783   4.0524   4.0525   5.6521   5.6522   8.7394  10.2783
    11.9997  11.9998

          k = 0.2280 0.2280-0.5015 (  2630 PWs)   bands (ev):

    -0.0044  -0.0040   4.6356   4.6361   4.9302   4.9308   9.4408   9.4413
    13.0084  13.0090

          k = 0.2280 0.3191 0.3191 (  2629 PWs)   bands (ev):

    -0.8927   2.3353   2.3353   3.9094   5.5161   7.0603   7.0603  10.1471
    11.8921  13.3758

          k = 0.2280 0.3191 0.4103 (  2612 PWs)   bands (ev):

    -0.2996   1.3178   2.9140   4.3575   4.6456   6.0739   7.6262   9.1726
    12.4383  13.7011

          k = 0.2280 0.3191-0.5015 (  2612 PWs)   bands (ev):

     0.4379   0.4384   3.6301   3.6306   5.2261   5.2265   8.3308   8.3313
    13.0981  13.0985

          k = 0.2280 0.4103 0.4103 (  2621 PWs)   bands (ev):

     0.2910   1.9016   1.9016   3.4886   5.0837   6.6408   6.6409   8.1936
    12.9905  14.4396

          k = 0.2280 0.4103-0.5015 (  2622 PWs)   bands (ev):

     1.0255   1.0260   2.6269   2.6274   5.7908   5.7913   7.3482   7.3487
    13.6628  13.6632

          k = 0.2280-0.5015-0.5015 (  2640 PWs)   bands (ev):

     1.7560   1.7565   1.7565   1.7570   6.4999   6.5003   6.5003   6.5008
    14.3370  14.3374

          k = 0.3191 0.3191 0.3191 (  2629 PWs)   bands (ev):

    -0.4476   2.7695   2.7695   2.7695   5.9384   5.9384   5.9386   9.0407
    13.7986  13.7986

          k = 0.3191 0.3191 0.4103 (  2623 PWs)   bands (ev):

     0.1437   1.7559   3.3432   3.3433   4.9484   4.9486   6.5063   8.0608
    14.3243  14.3244

          k = 0.3191 0.3191-0.5015 (  2624 PWs)   bands (ev):

     0.8789   0.8794   3.9392   3.9396   4.2129   4.2134   7.2144   7.2149
    15.2065  15.2074

          k = 0.3191 0.4103 0.4103 (  2618 PWs)   bands (ev):

     0.7325   2.3375   2.3375   3.7998   4.0676   5.5150   5.5151   7.0761
    14.8703  16.1358

          k = 0.3191 0.4103-0.5015 (  2618 PWs)   bands (ev):

     1.4646   1.4651   3.0576   3.0581   4.6624   4.6629   6.2259   6.2263
    15.5114  15.5119

          k = 0.3191-0.5015-0.5015 (  2616 PWs)   bands (ev):

     2.1925   2.1929   2.1929   2.1934   5.3728   5.3732   5.3732   5.3737
    16.1638  16.1641

          k = 0.4103 0.4103 0.4103 (  2611 PWs)   bands (ev):

     1.3189   2.9139   2.9139   2.9139   4.5210   4.5210   4.5211   6.0865
    16.8303  16.8304

          k = 0.4103 0.4103-0.5015 (  2602 PWs)   bands (ev):

     2.0476   2.0480   3.5203   3.5207   3.7745   3.7751   5.2324   5.2329
    17.5017  17.5021

          k = 0.4103-0.5015-0.5015 (  2584 PWs)   bands (ev):

     2.7698   2.7703   2.7703   2.7707   4.3774   4.3778   4.3778   4.3784
    17.9951  17.9953

          k =-0.5015-0.5015-0.5015 (  2608 PWs)   bands (ev):

     3.3801   3.3809   3.3809   3.3809   3.6273   3.6273   3.6273   3.6283
    19.5421  19.5425

     the Fermi energy is     8.0251 ev

!    total energy              =    -158.01127238 Ry
     Harris-Foulkes estimate   =    -158.01127244 Ry
     estimated scf accuracy    <       0.00000021 Ry

     total all-electron energy =     -1942.582394 Ry

     The total energy is the sum of the following terms:

     one-electron contribution =      12.75953214 Ry
     hartree contribution      =       0.02483496 Ry
     xc contribution           =     -10.38750407 Ry
     ewald contribution        =     -21.69515181 Ry
     one-center paw contrib.   =    -138.71353278 Ry
     smearing contrib. (-TS)   =       0.00054919 Ry

     convergence has been achieved in   6 iterations

     Forces acting on atoms (cartesian axes, Ry/au):

     atom    1 type  1   force =     0.00000000    0.00000000    0.00000000
     atom    2 type  1   force =     0.00000000    0.00000000    0.00000000
     atom    3 type  1   force =     0.00000000    0.00000000    0.00000000
     atom    4 type  1   force =     0.00000000    0.00000000    0.00000000

     Total force =     0.000000     Total SCF correction =     0.000000


     Computing stress (Cartesian axis) and pressure

          total   stress  (Ry/bohr**3)                   (kbar)     P=    7.32
   0.00004979   0.00000000   0.00000000          7.32      0.00      0.00
   0.00000000   0.00004979   0.00000000          0.00      7.32      0.00
   0.00000000   0.00000000   0.00004979          0.00      0.00      7.32


     Writing output data file peTGkxNSUjFYCkTA.save/

     init_run     :      1.45s CPU      1.48s WALL (       1 calls)
     electrons    :     16.47s CPU     16.55s WALL (       1 calls)
     forces       :      0.30s CPU      0.30s WALL (       1 calls)
     stress       :      0.63s CPU      0.63s WALL (       1 calls)

     Called by init_run:
     wfcinit      :      1.13s CPU      1.15s WALL (       1 calls)
     potinit      :      0.15s CPU      0.15s WALL (       1 calls)
     hinit0       :      0.16s CPU      0.16s WALL (       1 calls)

     Called by electrons:
     c_bands      :     13.42s CPU     13.49s WALL (       7 calls)
     sum_band     :      2.11s CPU      2.12s WALL (       7 calls)
     v_of_rho     :      0.14s CPU      0.14s WALL (       7 calls)
     newd         :      0.08s CPU      0.08s WALL (       7 calls)
     PAW_pot      :      0.85s CPU      0.85s WALL (       7 calls)
     mix_rho      :      0.01s CPU      0.01s WALL (       7 calls)

     Called by c_bands:
     init_us_2    :      0.36s CPU      0.36s WALL (     952 calls)
     cegterg      :     12.90s CPU     12.95s WALL (     392 calls)

     Called by sum_band:
     sum_band:bec :      0.00s CPU      0.00s WALL (     392 calls)
     addusdens    :      0.06s CPU      0.06s WALL (       7 calls)

     Called by *egterg:
     h_psi        :     10.69s CPU     10.74s WALL (    1435 calls)
     s_psi        :      0.84s CPU      0.84s WALL (    1435 calls)
     g_psi        :      0.06s CPU      0.06s WALL (     987 calls)
     cdiaghg      :      0.18s CPU      0.18s WALL (    1323 calls)

     Called by h_psi:
     h_psi:pot    :     10.65s CPU     10.70s WALL (    1435 calls)
     h_psi:calbec :      1.07s CPU      1.07s WALL (    1435 calls)
     vloc_psi     :      8.75s CPU      8.79s WALL (    1435 calls)
     add_vuspsi   :      0.83s CPU      0.83s WALL (    1435 calls)

     General routines
     calbec       :      1.66s CPU      1.67s WALL (    2107 calls)
     fft          :      0.07s CPU      0.07s WALL (     103 calls)
     ffts         :      0.00s CPU      0.00s WALL (       7 calls)
     fftw         :      9.48s CPU      9.52s WALL (   27088 calls)

     Parallel routines

     PWSCF        :     19.16s CPU     19.28s WALL


   This run was terminated on:  12:12: 9  14May2021            

=------------------------------------------------------------------------------=
   JOB DONE.
=------------------------------------------------------------------------------=
