
     Program PWSCF v.6.4.1 starts on 14May2021 at 12:11:11 

     This program is part of the open-source Quantum ESPRESSO suite
     for quantum simulation of materials; please cite
         "P. Giannozzi et al., J. Phys.:Condens. Matter 21 395502 (2009);
         "P. Giannozzi et al., J. Phys.:Condens. Matter 29 465901 (2017);
          URL http://www.quantum-espresso.org", 
     in publications or presentations arising from this work. More details at
     http://www.quantum-espresso.org/quote

     Parallel version (MPI), running on     1 processors

     MPI processes distributed on     1 nodes
     Reading input from /cloud/Code/python/qeeos/examples/aluminium/wd/eos/eos_001.in
Warning: card &IONS ignored
Warning: card ION_DYNAMICS = 'BFGS', ignored
Warning: card / ignored
Warning: card &CELL ignored
Warning: card CELL_DYNAMICS = 'BFGS', ignored
Warning: card CELL_FACTOR = 2.0, ignored
Warning: card PRESS = 0.0, ignored
Warning: card / ignored

     Current dimensions of program PWSCF are:
     Max number of different atomic species (ntypx) = 10
     Max number of k-points (npk) =  40000
     Max angular momentum in pseudopotentials (lmaxx) =  3
               file Al.pbe-nl-kjpaw_psl.1.0.0.UPF: wavefunction(s)  3S 3P renormalized

     Subspace diagonalization in iterative solution of the eigenvalue problem:
     a serial algorithm will be used

     Found symmetry operation: I + ( -0.5000 -0.5000  0.0000)
     This is a supercell, fractional translations are disabled
     Message from routine setup:
     DEPRECATED: symmetry with ibrav=0, use correct ibrav instead

     G-vector sticks info
     --------------------
     sticks:   dense  smooth     PW     G-vecs:    dense   smooth      PW
     Sum         925     925    277                20863    20863    3431



     bravais-lattice index     =            0
     lattice parameter (alat)  =       7.6308  a.u.
     unit-cell volume          =     437.7055 (a.u.)^3
     number of atoms/cell      =            4
     number of atomic types    =            1
     number of electrons       =        12.00
     number of Kohn-Sham states=           10
     kinetic-energy cutoff     =      50.0000  Ry
     charge density cutoff     =     200.0000  Ry
     convergence threshold     =      1.0E-06
     mixing beta               =       0.1000
     number of iterations used =           10  plain     mixing
     Exchange-correlation      = SLA PW PBX PBC ( 1  4  3  4 0 0)

     celldm(1)=   7.630815  celldm(2)=   0.000000  celldm(3)=   0.000000
     celldm(4)=   0.000000  celldm(5)=   0.000000  celldm(6)=   0.000000

     crystal axes: (cart. coord. in units of alat)
               a(1) = (   0.995000   0.000000   0.000000 )  
               a(2) = (   0.000000   0.995000   0.000000 )  
               a(3) = (   0.000000   0.000000   0.995000 )  

     reciprocal axes: (cart. coord. in units 2 pi/alat)
               b(1) = (  1.005025  0.000000  0.000000 )  
               b(2) = (  0.000000  1.005025  0.000000 )  
               b(3) = (  0.000000  0.000000  1.005025 )  


     PseudoPot. # 1 for Al read from file:
     /opt/pp/Al.pbe-nl-kjpaw_psl.1.0.0.UPF
     MD5 check sum: 1b67f78b73fe58c7924490f171ce8a1e
     Pseudo is Projector augmented-wave + core cor, Zval =  3.0
     Generated using "atomic" code by A. Dal Corso v.6.3
     Shape of augmentation charge: PSQ
     Using radial grid of 1135 points,  4 beta functions with: 
                l(1) =   0
                l(2) =   0
                l(3) =   1
                l(4) =   1
     Q(r) pseudized with 0 coefficients 


     atomic species   valence    mass     pseudopotential
        Al             3.00    26.98200     Al( 1.00)

     48 Sym. Ops., with inversion, found



   Cartesian axes

     site n.     atom                  positions (alat units)
         1           Al  tau(   1) = (   0.0000000   0.0000000   0.0000000  )
         2           Al  tau(   2) = (   0.4975001   0.4975001   0.0000000  )
         3           Al  tau(   3) = (   0.4975001   0.0000000   0.4975000  )
         4           Al  tau(   4) = (   0.0000000   0.4975001   0.4975000  )

     number of k points=    56  Marzari-Vanderbilt smearing, width (Ry)=  0.0400
                       cart. coord. in units 2pi/alat
        k(    1) = (   0.0456830   0.0456830   0.0456830), wk =   0.0120210
        k(    2) = (   0.0456830   0.0456830   0.1370489), wk =   0.0360631
        k(    3) = (   0.0456830   0.0456830   0.2284148), wk =   0.0360631
        k(    4) = (   0.0456830   0.0456830   0.3197807), wk =   0.0360631
        k(    5) = (   0.0456830   0.0456830   0.4111466), wk =   0.0360631
        k(    6) = (   0.0456830   0.0456830  -0.5025126), wk =   0.0180316
        k(    7) = (   0.0456830   0.1370489   0.1370489), wk =   0.0360631
        k(    8) = (   0.0456830   0.1370489   0.2284148), wk =   0.0721262
        k(    9) = (   0.0456830   0.1370489   0.3197807), wk =   0.0721262
        k(   10) = (   0.0456830   0.1370489   0.4111466), wk =   0.0721262
        k(   11) = (   0.0456830   0.1370489  -0.5025126), wk =   0.0360631
        k(   12) = (   0.0456830   0.2284148   0.2284148), wk =   0.0360631
        k(   13) = (   0.0456830   0.2284148   0.3197807), wk =   0.0721262
        k(   14) = (   0.0456830   0.2284148   0.4111466), wk =   0.0721262
        k(   15) = (   0.0456830   0.2284148  -0.5025126), wk =   0.0360631
        k(   16) = (   0.0456830   0.3197807   0.3197807), wk =   0.0360631
        k(   17) = (   0.0456830   0.3197807   0.4111466), wk =   0.0721262
        k(   18) = (   0.0456830   0.3197807  -0.5025126), wk =   0.0360631
        k(   19) = (   0.0456830   0.4111466   0.4111466), wk =   0.0360631
        k(   20) = (   0.0456830   0.4111466  -0.5025126), wk =   0.0360631
        k(   21) = (   0.0456830  -0.5025126  -0.5025126), wk =   0.0090158
        k(   22) = (   0.1370489   0.1370489   0.1370489), wk =   0.0120210
        k(   23) = (   0.1370489   0.1370489   0.2284148), wk =   0.0360631
        k(   24) = (   0.1370489   0.1370489   0.3197807), wk =   0.0360631
        k(   25) = (   0.1370489   0.1370489   0.4111466), wk =   0.0360631
        k(   26) = (   0.1370489   0.1370489  -0.5025126), wk =   0.0180316
        k(   27) = (   0.1370489   0.2284148   0.2284148), wk =   0.0360631
        k(   28) = (   0.1370489   0.2284148   0.3197807), wk =   0.0721262
        k(   29) = (   0.1370489   0.2284148   0.4111466), wk =   0.0721262
        k(   30) = (   0.1370489   0.2284148  -0.5025126), wk =   0.0360631
        k(   31) = (   0.1370489   0.3197807   0.3197807), wk =   0.0360631
        k(   32) = (   0.1370489   0.3197807   0.4111466), wk =   0.0721262
        k(   33) = (   0.1370489   0.3197807  -0.5025126), wk =   0.0360631
        k(   34) = (   0.1370489   0.4111466   0.4111466), wk =   0.0360631
        k(   35) = (   0.1370489   0.4111466  -0.5025126), wk =   0.0360631
        k(   36) = (   0.1370489  -0.5025126  -0.5025126), wk =   0.0090158
        k(   37) = (   0.2284148   0.2284148   0.2284148), wk =   0.0120210
        k(   38) = (   0.2284148   0.2284148   0.3197807), wk =   0.0360631
        k(   39) = (   0.2284148   0.2284148   0.4111466), wk =   0.0360631
        k(   40) = (   0.2284148   0.2284148  -0.5025126), wk =   0.0180316
        k(   41) = (   0.2284148   0.3197807   0.3197807), wk =   0.0360631
        k(   42) = (   0.2284148   0.3197807   0.4111466), wk =   0.0721262
        k(   43) = (   0.2284148   0.3197807  -0.5025126), wk =   0.0360631
        k(   44) = (   0.2284148   0.4111466   0.4111466), wk =   0.0360631
        k(   45) = (   0.2284148   0.4111466  -0.5025126), wk =   0.0360631
        k(   46) = (   0.2284148  -0.5025126  -0.5025126), wk =   0.0090158
        k(   47) = (   0.3197807   0.3197807   0.3197807), wk =   0.0120210
        k(   48) = (   0.3197807   0.3197807   0.4111466), wk =   0.0360631
        k(   49) = (   0.3197807   0.3197807  -0.5025126), wk =   0.0180316
        k(   50) = (   0.3197807   0.4111466   0.4111466), wk =   0.0360631
        k(   51) = (   0.3197807   0.4111466  -0.5025126), wk =   0.0360631
        k(   52) = (   0.3197807  -0.5025126  -0.5025126), wk =   0.0090158
        k(   53) = (   0.4111466   0.4111466   0.4111466), wk =   0.0120210
        k(   54) = (   0.4111466   0.4111466  -0.5025126), wk =   0.0180316
        k(   55) = (   0.4111466  -0.5025126  -0.5025126), wk =   0.0090158
        k(   56) = (  -0.5025126  -0.5025126  -0.5025126), wk =   0.0015026

     Dense  grid:    20863 G-vectors     FFT dimensions: (  36,  36,  36)

     Estimated max dynamical RAM per process >      54.58 MB

     Initial potential from superposition of free atoms

     starting charge   11.99084, renormalised to   12.00000
     Starting wfcs are   16 randomized atomic wfcs
     Checking if some PAW data can be deallocated... 

     total cpu time spent up to now is        1.8 secs

     Self-consistent Calculation

     iteration #  1     ecut=    50.00 Ry     beta= 0.10
     Davidson diagonalization with overlap
     ethr =  1.00E-02,  avg # of iterations =  3.4

     Threshold (ethr) on eigenvalues was too large:
     Diagonalizing with lowered threshold

     Davidson diagonalization with overlap
     ethr =  1.94E-04,  avg # of iterations =  3.2

     total cpu time spent up to now is        6.6 secs

     total energy              =    -158.01572111 Ry
     Harris-Foulkes estimate   =    -158.01691035 Ry
     estimated scf accuracy    <       0.02256378 Ry

     iteration #  2     ecut=    50.00 Ry     beta= 0.10
     Davidson diagonalization with overlap
     ethr =  1.88E-04,  avg # of iterations =  1.1

     total cpu time spent up to now is        8.5 secs

     total energy              =    -158.01068809 Ry
     Harris-Foulkes estimate   =    -158.01582741 Ry
     estimated scf accuracy    <       0.01801049 Ry

     iteration #  3     ecut=    50.00 Ry     beta= 0.10
     Davidson diagonalization with overlap
     ethr =  1.50E-04,  avg # of iterations =  1.0

     total cpu time spent up to now is       10.4 secs

     total energy              =    -158.01102990 Ry
     Harris-Foulkes estimate   =    -158.01102507 Ry
     estimated scf accuracy    <       0.00004554 Ry

     iteration #  4     ecut=    50.00 Ry     beta= 0.10
     Davidson diagonalization with overlap
     ethr =  3.79E-07,  avg # of iterations =  4.0

     total cpu time spent up to now is       13.6 secs

     total energy              =    -158.01123647 Ry
     Harris-Foulkes estimate   =    -158.01110868 Ry
     estimated scf accuracy    <       0.00003427 Ry

     iteration #  5     ecut=    50.00 Ry     beta= 0.10
     Davidson diagonalization with overlap
     ethr =  2.86E-07,  avg # of iterations =  2.2

     total cpu time spent up to now is       15.9 secs

     total energy              =    -158.01108124 Ry
     Harris-Foulkes estimate   =    -158.01124357 Ry
     estimated scf accuracy    <       0.00036825 Ry

     iteration #  6     ecut=    50.00 Ry     beta= 0.10
     Davidson diagonalization with overlap
     ethr =  2.86E-07,  avg # of iterations =  2.7

     total cpu time spent up to now is       18.3 secs

     End of self-consistent calculation

          k = 0.0457 0.0457 0.0457 (  2589 PWs)   bands (ev):

    -3.1181   4.8041   4.8041   4.8041   6.8994   6.8994   6.8994  12.3989
    12.3990  12.3991

          k = 0.0457 0.0457 0.1370 (  2609 PWs)   bands (ev):

    -2.9666   3.5067   4.9447   4.9447   7.0421   7.0421   8.4575  11.1025
    11.1026  12.5395

          k = 0.0457 0.0457 0.2284 (  2625 PWs)   bands (ev):

    -2.6641   2.2247   5.2256   5.2257   7.3236   7.3236   9.8684   9.8684
    10.2602  12.0453

          k = 0.0457 0.0457 0.3198 (  2610 PWs)   bands (ev):

    -2.2117   1.0597   5.6463   5.6463   7.7255   7.7255   8.7731   8.7731
    11.0088  11.0090

          k = 0.0457 0.0457 0.4111 (  2624 PWs)   bands (ev):

    -1.6107   0.0282   6.2047   6.2048   7.7119   7.7119   8.3344   8.3345
    10.1015  10.1017

          k = 0.0457 0.0457-0.5025 (  2616 PWs)   bands (ev):

    -0.8634  -0.8629   6.8291   6.8295   6.9799   6.9804   8.6865   8.6869
     9.5873   9.5878

          k = 0.0457 0.1370 0.1370 (  2619 PWs)   bands (ev):

    -2.8153   3.6505   3.6506   5.0851   7.1807   8.5942   8.5942   9.8870
    11.2441  11.2442

          k = 0.0457 0.1370 0.2284 (  2615 PWs)   bands (ev):

    -2.5132   2.3704   3.9377   5.3656   7.4393   8.6929   8.8567  10.0178
    10.3834  11.5321

          k = 0.0457 0.1370 0.3198 (  2621 PWs)   bands (ev):

    -2.0612   1.2067   4.3671   5.7842   7.3901   8.0584   8.8285   9.3239
    11.1743  11.8934

          k = 0.0457 0.1370 0.4111 (  2621 PWs)   bands (ev):

    -1.4608   0.1764   4.9369   6.2938   6.5474   7.8926   8.5268   9.6236
    10.4401  11.5195

          k = 0.0457 0.1370-0.5025 (  2622 PWs)   bands (ev):

    -0.7143  -0.7139   5.6416   5.6420   7.0608   7.0613   9.1748   9.1752
    10.7450  10.7455

          k = 0.0457 0.2284 0.2284 (  2622 PWs)   bands (ev):

    -2.2117   2.6611   2.6612   5.6438   7.2607   7.9363  10.2259  10.2260
    10.7027  10.7028

          k = 0.0457 0.2284 0.3198 (  2619 PWs)   bands (ev):

    -1.7607   1.5002   3.0962   6.0156   6.2887   8.2673   9.1510  10.6844
    10.8835  11.6406

          k = 0.0457 0.2284 0.4111 (  2620 PWs)   bands (ev):

    -1.1616   0.4721   3.6738   5.2417   6.6439   8.1780   8.8218  10.3063
    11.2473  11.8128

          k = 0.0457 0.2284-0.5025 (  2608 PWs)   bands (ev):

    -0.4166  -0.4162   4.3909   4.3914   7.3401   7.3405   9.5142   9.5146
    11.9449  11.9454

          k = 0.0457 0.3198 0.3198 (  2617 PWs)   bands (ev):

    -1.3111   1.9394   1.9394   5.1047   6.5041   8.6871   9.5760   9.5761
    11.6966  11.6967

          k = 0.0457 0.3198 0.4111 (  2617 PWs)   bands (ev):

    -0.7139   0.9147   2.5227   4.1113   7.0612   8.5999   9.2537  10.1370
    10.7803  11.6718

          k = 0.0457 0.3198-0.5025 (  2612 PWs)   bands (ev):

     0.0287   0.0292   3.2476   3.2481   7.7606   7.7611   9.9553   9.9557
    10.8356  10.8360

          k = 0.0457 0.4111 0.4111 (  2606 PWs)   bands (ev):

    -0.1192   1.5025   1.5025   3.1048   7.6213   9.1606   9.1607   9.8229
    10.6978  11.3541

          k = 0.0457 0.4111-0.5025 (  2622 PWs)   bands (ev):

     0.6203   0.6207   2.2334   2.2338   8.3213   8.3218   9.8599   9.8604
    10.5254  10.5258

          k = 0.0457-0.5025-0.5025 (  2612 PWs)   bands (ev):

     1.3559   1.3564   1.3564   1.3568   9.0211   9.0215   9.0216   9.0221
    11.2259  11.2262

          k = 0.1370 0.1370 0.1370 (  2626 PWs)   bands (ev):

    -2.6642   3.7941   3.7942   3.7942   8.7165   8.7165   8.7165  10.0430
    10.0430  10.0431

          k = 0.1370 0.1370 0.2284 (  2626 PWs)   bands (ev):

    -2.3624   2.5158   4.0808   4.0808   8.6398   8.6399   9.1772   9.1773
    10.1701  10.6681

          k = 0.1370 0.1370 0.3198 (  2616 PWs)   bands (ev):

    -1.9109   1.3535   4.5090   4.5090   7.6308   7.6309   9.4886   9.4887
    10.6813  12.5159

          k = 0.1370 0.1370 0.4111 (  2621 PWs)   bands (ev):

    -1.3111   0.3243   5.0740   5.0741   6.6630   6.6632  10.0068  10.0069
    11.2499  11.6831

          k = 0.1370 0.1370-0.5025 (  2608 PWs)   bands (ev):

    -0.5654  -0.5649   5.6491   5.6495   5.9514   5.9519  10.4313  10.4317
    11.1289  11.1294

          k = 0.1370 0.2284 0.2284 (  2626 PWs)   bands (ev):

    -2.0612   2.8063   2.8063   4.3660   7.5121   9.0296   9.0297   9.3643
    10.8596  10.8596

          k = 0.1370 0.2284 0.3198 (  2621 PWs)   bands (ev):

    -1.6107   1.6468   3.2406   4.7891   6.4088   7.9262   9.4640   9.7744
    11.2409  12.8812

          k = 0.1370 0.2284 0.4111 (  2617 PWs)   bands (ev):

    -1.0122   0.6198   3.8168   5.2340   5.5448   6.9458  10.0293  10.3248
    11.5500  11.5662

          k = 0.1370 0.2284-0.5025 (  2604 PWs)   bands (ev):

    -0.2680  -0.2676   4.5289   4.5293   6.1035   6.1039  10.7301  10.7305
    10.9901  10.9905

          k = 0.1370 0.3198 0.3198 (  2614 PWs)   bands (ev):

    -1.1616   2.0854   2.0854   5.0947   5.4055   8.3537   8.3537  10.1975
    11.4346  12.9499

          k = 0.1370 0.3198 0.4111 (  2604 PWs)   bands (ev):

    -0.5650   1.0619   2.6679   4.2499   5.8205   7.3712   8.9191  10.4620
    10.7559  12.2401

          k = 0.1370 0.3198-0.5025 (  2608 PWs)   bands (ev):

     0.1769   0.1773   3.3914   3.3919   6.5241   6.5245   9.6222   9.6227
    11.4431  11.4435

          k = 0.1370 0.4111 0.4111 (  2610 PWs)   bands (ev):

     0.0291   1.6491   1.6491   3.2489   6.3830   7.9373   7.9373   9.4854
    11.3173  12.8204

          k = 0.1370 0.4111-0.5025 (  2604 PWs)   bands (ev):

     0.7679   0.7683   2.3790   2.3795   7.0903   7.0908   8.6425   8.6429
    12.0079  12.0083

          k = 0.1370-0.5025-0.5025 (  2596 PWs)   bands (ev):

     1.5027   1.5031   1.5031   1.5036   7.7972   7.7976   7.7976   7.7981
    12.6983  12.6986

          k = 0.2284 0.2284 0.2284 (  2608 PWs)   bands (ev):

    -1.7607   3.0959   3.0959   3.0959   7.8093   7.8093   7.8094  11.1385
    11.1385  11.1385

          k = 0.2284 0.2284 0.3198 (  2614 PWs)   bands (ev):

    -1.3111   1.9394   3.5286   3.5286   6.6927   6.6928   8.2380  11.3220
    11.5493  11.5493

          k = 0.2284 0.2284 0.4111 (  2617 PWs)   bands (ev):

    -0.7139   0.9147   4.0993   4.0994   5.7073   5.7074   8.8044  10.3491
    12.0772  12.0773

          k = 0.2284 0.2284-0.5025 (  2610 PWs)   bands (ev):

     0.0287   0.0292   4.6788   4.6793   4.9887   4.9892   9.5085   9.5090
    12.5242  13.1068

          k = 0.2284 0.3198 0.3198 (  2611 PWs)   bands (ev):

    -0.8629   2.3770   2.3770   3.9558   5.5709   7.1196   7.1197  10.2175
    11.9716  13.4584

          k = 0.2284 0.3198 0.4111 (  2599 PWs)   bands (ev):

    -0.2676   1.3559   2.9576   4.3997   4.7032   6.1300   7.6876   9.2395
    12.5194  13.7778

          k = 0.2284 0.3198-0.5025 (  2608 PWs)   bands (ev):

     0.4727   0.4732   3.6756   3.6761   5.2799   5.2804   8.3948   8.3952
    13.1801  13.1805

          k = 0.2284 0.4111 0.4111 (  2607 PWs)   bands (ev):

     0.3253   1.9417   1.9417   3.5337   5.1370   6.6989   6.6990   8.2571
    13.0741  14.5275

          k = 0.2284 0.4111-0.5025 (  2598 PWs)   bands (ev):

     1.0625   1.0629   2.6695   2.6700   5.8461   5.8465   7.4087   7.4092
    13.7488  13.7492

          k = 0.2284-0.5025-0.5025 (  2616 PWs)   bands (ev):

     1.7957   1.7961   1.7961   1.7966   6.5575   6.5579   6.5579   6.5584
    14.4259  14.4263

          k = 0.3198 0.3198 0.3198 (  2617 PWs)   bands (ev):

    -0.4161   2.8126   2.8126   2.8126   5.9942   5.9942   5.9943   9.1073
    13.8842  13.8842

          k = 0.3198 0.3198 0.4111 (  2606 PWs)   bands (ev):

     0.1774   1.7956   3.3878   3.3878   5.0014   5.0015   6.5640   8.1240
    14.4110  14.4110

          k = 0.3198 0.3198-0.5025 (  2614 PWs)   bands (ev):

     0.9154   0.9158   3.9798   3.9802   4.2693   4.2698   7.2747   7.2751
    15.3103  15.3107

          k = 0.3198 0.4111 0.4111 (  2595 PWs)   bands (ev):

     0.7684   2.3791   2.3791   3.8399   4.1236   5.5694   5.5695   7.1359
    14.9603  16.2244

          k = 0.3198 0.4111-0.5025 (  2592 PWs)   bands (ev):

     1.5032   1.5037   3.1013   3.1017   4.7144   4.7148   6.2827   6.2831
    15.6034  15.6038

          k = 0.3198-0.5025-0.5025 (  2608 PWs)   bands (ev):

     2.2336   2.2340   2.2340   2.2344   5.4267   5.4271   5.4271   5.4276
    16.2594  16.2596

          k = 0.4111 0.4111 0.4111 (  2587 PWs)   bands (ev):

     1.3569   2.9570   2.9571   2.9571   4.5724   4.5724   4.5726   6.1429
    16.9271  16.9271

          k = 0.4111 0.4111-0.5025 (  2594 PWs)   bands (ev):

     2.0882   2.0886   3.5594   3.5598   3.8296   3.8300   5.2859   5.2863
    17.6095  17.6104

          k = 0.4111-0.5025-0.5025 (  2576 PWs)   bands (ev):

     2.8125   2.8130   2.8130   2.8133   4.4284   4.4287   4.4287   4.4293
    18.0974  18.0979

          k =-0.5025-0.5025-0.5025 (  2608 PWs)   bands (ev):

     3.4187   3.4196   3.4196   3.4196   3.6819   3.6819   3.6819   3.6828
    19.6694  19.6698

     the Fermi energy is     8.0881 ev

!    total energy              =    -158.01109553 Ry
     Harris-Foulkes estimate   =    -158.01109557 Ry
     estimated scf accuracy    <       0.00000015 Ry

     total all-electron energy =     -1942.582218 Ry

     The total energy is the sum of the following terms:

     one-electron contribution =      12.81832738 Ry
     hartree contribution      =       0.02500941 Ry
     xc contribution           =     -10.40051744 Ry
     ewald contribution        =     -21.73876016 Ry
     one-center paw contrib.   =    -138.71573273 Ry
     smearing contrib. (-TS)   =       0.00057801 Ry

     convergence has been achieved in   6 iterations

     Forces acting on atoms (cartesian axes, Ry/au):

     atom    1 type  1   force =     0.00000000    0.00000000    0.00000000
     atom    2 type  1   force =     0.00000000    0.00000000    0.00000000
     atom    3 type  1   force =     0.00000000    0.00000000    0.00000000
     atom    4 type  1   force =     0.00000000    0.00000000    0.00000000

     Total force =     0.000000     Total SCF correction =     0.000000


     Computing stress (Cartesian axis) and pressure

          total   stress  (Ry/bohr**3)                   (kbar)     P=   12.39
   0.00008419   0.00000000   0.00000000         12.39      0.00      0.00
   0.00000000   0.00008419   0.00000000          0.00     12.39      0.00
   0.00000000   0.00000000   0.00008419          0.00      0.00     12.39


     Writing output data file lHWeKHDzjLvRdVFD.save/

     init_run     :      1.43s CPU      1.47s WALL (       1 calls)
     electrons    :     16.39s CPU     16.51s WALL (       1 calls)
     forces       :      0.30s CPU      0.31s WALL (       1 calls)
     stress       :      0.63s CPU      0.64s WALL (       1 calls)

     Called by init_run:
     wfcinit      :      1.12s CPU      1.14s WALL (       1 calls)
     potinit      :      0.14s CPU      0.15s WALL (       1 calls)
     hinit0       :      0.16s CPU      0.16s WALL (       1 calls)

     Called by electrons:
     c_bands      :     13.34s CPU     13.44s WALL (       7 calls)
     sum_band     :      2.13s CPU      2.14s WALL (       7 calls)
     v_of_rho     :      0.14s CPU      0.14s WALL (       7 calls)
     newd         :      0.08s CPU      0.08s WALL (       7 calls)
     PAW_pot      :      0.83s CPU      0.84s WALL (       7 calls)
     mix_rho      :      0.01s CPU      0.01s WALL (       7 calls)

     Called by c_bands:
     init_us_2    :      0.37s CPU      0.37s WALL (     952 calls)
     cegterg      :     12.83s CPU     12.90s WALL (     392 calls)

     Called by sum_band:
     sum_band:bec :      0.00s CPU      0.00s WALL (     392 calls)
     addusdens    :      0.06s CPU      0.06s WALL (       7 calls)

     Called by *egterg:
     h_psi        :     10.63s CPU     10.71s WALL (    1429 calls)
     s_psi        :      0.83s CPU      0.84s WALL (    1429 calls)
     g_psi        :      0.06s CPU      0.06s WALL (     981 calls)
     cdiaghg      :      0.18s CPU      0.18s WALL (    1317 calls)

     Called by h_psi:
     h_psi:pot    :     10.59s CPU     10.67s WALL (    1429 calls)
     h_psi:calbec :      1.05s CPU      1.06s WALL (    1429 calls)
     vloc_psi     :      8.71s CPU      8.78s WALL (    1429 calls)
     add_vuspsi   :      0.82s CPU      0.83s WALL (    1429 calls)

     General routines
     calbec       :      1.65s CPU      1.66s WALL (    2101 calls)
     fft          :      0.07s CPU      0.07s WALL (     103 calls)
     ffts         :      0.00s CPU      0.00s WALL (       7 calls)
     fftw         :      9.46s CPU      9.53s WALL (   27042 calls)

     Parallel routines

     PWSCF        :     19.07s CPU     19.25s WALL


   This run was terminated on:  12:11:31  14May2021            

=------------------------------------------------------------------------------=
   JOB DONE.
=------------------------------------------------------------------------------=
