
     Program PWSCF v.6.4.1 starts on 20Jul2020 at 17:17: 2 

     This program is part of the open-source Quantum ESPRESSO suite
     for quantum simulation of materials; please cite
         "P. Giannozzi et al., J. Phys.:Condens. Matter 21 395502 (2009);
         "P. Giannozzi et al., J. Phys.:Condens. Matter 29 465901 (2017);
          URL http://www.quantum-espresso.org", 
     in publications or presentations arising from this work. More details at
     http://www.quantum-espresso.org/quote

     Parallel version (MPI), running on     1 processors

     MPI processes distributed on     1 nodes
     Waiting for input...
     Reading input from standard input
Warning: card &IONS ignored
Warning: card ION_DYNAMICS = 'BFGS', ignored
Warning: card / ignored
Warning: card &CELL ignored
Warning: card CELL_DYNAMICS = 'BFGS', ignored
Warning: card CELL_FACTOR = 2.0, ignored
Warning: card PRESS = 0.0, ignored
Warning: card / ignored

     Current dimensions of program PWSCF are:
     Max number of different atomic species (ntypx) = 10
     Max number of k-points (npk) =  40000
     Max angular momentum in pseudopotentials (lmaxx) =  3
               file Al.pbe-nl-kjpaw_psl.1.0.0.UPF: wavefunction(s)  3S 3P renormalized

     Subspace diagonalization in iterative solution of the eigenvalue problem:
     a serial algorithm will be used

     Found symmetry operation: I + (  0.5000  0.5000  0.0000)
     This is a supercell, fractional translations are disabled
     Message from routine setup:
     DEPRECATED: symmetry with ibrav=0, use correct ibrav instead

     G-vector sticks info
     --------------------
     sticks:   dense  smooth     PW     G-vecs:    dense   smooth      PW
     Sum         465     465    145                 7441     7441    1357



     bravais-lattice index     =            0
     lattice parameter (alat)  =       7.6303  a.u.
     unit-cell volume          =     441.5834 (a.u.)^3
     number of atoms/cell      =            4
     number of atomic types    =            1
     number of electrons       =        12.00
     number of Kohn-Sham states=           10
     kinetic-energy cutoff     =      25.0000  Ry
     charge density cutoff     =     100.0000  Ry
     convergence threshold     =      1.0E-06
     mixing beta               =       0.1000
     number of iterations used =           10  TF        mixing
     Exchange-correlation      = SLA PW PBX PBC ( 1  4  3  4 0 0)

     celldm(1)=   7.630278  celldm(2)=   0.000000  celldm(3)=   0.000000
     celldm(4)=   0.000000  celldm(5)=   0.000000  celldm(6)=   0.000000

     crystal axes: (cart. coord. in units of alat)
               a(1) = (   0.998000   0.000000   0.000000 )  
               a(2) = (   0.000000   0.998000   0.000000 )  
               a(3) = (   0.000000   0.000000   0.998000 )  

     reciprocal axes: (cart. coord. in units 2 pi/alat)
               b(1) = (  1.002004  0.000000  0.000000 )  
               b(2) = (  0.000000  1.002004  0.000000 )  
               b(3) = (  0.000000  0.000000  1.002004 )  


     PseudoPot. # 1 for Al read from file:
     /opt/pp/Al.pbe-nl-kjpaw_psl.1.0.0.UPF
     MD5 check sum: 1b67f78b73fe58c7924490f171ce8a1e
     Pseudo is Projector augmented-wave + core cor, Zval =  3.0
     Generated using "atomic" code by A. Dal Corso v.6.3
     Shape of augmentation charge: PSQ
     Using radial grid of 1135 points,  4 beta functions with: 
                l(1) =   0
                l(2) =   0
                l(3) =   1
                l(4) =   1
     Q(r) pseudized with 0 coefficients 


     atomic species   valence    mass     pseudopotential
        Al             3.00    26.98200     Al( 1.00)

     48 Sym. Ops., with inversion, found



   Cartesian axes

     site n.     atom                  positions (alat units)
         1           Al  tau(   1) = (   0.0000000   0.0000000   0.0000000  )
         2           Al  tau(   2) = (   0.4989999   0.4989999   0.0000000  )
         3           Al  tau(   3) = (   0.4989999   0.0000000   0.4989995  )
         4           Al  tau(   4) = (   0.0000000   0.4989999   0.4989995  )

     number of k points=     4  Marzari-Vanderbilt smearing, width (Ry)=  0.0410
                       cart. coord. in units 2pi/alat
        k(    1) = (   0.1670007   0.1670007   0.1670007), wk =   0.5925926
        k(    2) = (   0.1670007   0.1670007  -0.5010020), wk =   0.8888889
        k(    3) = (   0.1670007  -0.5010020  -0.5010020), wk =   0.4444444
        k(    4) = (  -0.5010020  -0.5010020  -0.5010020), wk =   0.0740741

     Dense  grid:     7441 G-vectors     FFT dimensions: (  25,  25,  25)

     Estimated max dynamical RAM per process >      12.14 MB

     Initial potential from superposition of free atoms

     starting charge   11.99084, renormalised to   12.00000
     Starting wfcs are   16 randomized atomic wfcs
     Checking if some PAW data can be deallocated... 

     total cpu time spent up to now is        0.7 secs

     Self-consistent Calculation

     iteration #  1     ecut=    25.00 Ry     beta= 0.10
     Davidson diagonalization with overlap
     ethr =  1.00E-02,  avg # of iterations =  2.8

     Threshold (ethr) on eigenvalues was too large:
     Diagonalizing with lowered threshold

     Davidson diagonalization with overlap
     ethr =  1.87E-04,  avg # of iterations =  2.2

     total cpu time spent up to now is        1.0 secs

     total energy              =    -158.05257075 Ry
     Harris-Foulkes estimate   =    -158.05321754 Ry
     estimated scf accuracy    <       0.02175377 Ry

     iteration #  2     ecut=    25.00 Ry     beta= 0.10
     Davidson diagonalization with overlap
     ethr =  1.81E-04,  avg # of iterations =  1.0

     total cpu time spent up to now is        1.1 secs

     total energy              =    -158.04748851 Ry
     Harris-Foulkes estimate   =    -158.05270024 Ry
     estimated scf accuracy    <       0.01874310 Ry

     iteration #  3     ecut=    25.00 Ry     beta= 0.10
     Davidson diagonalization with overlap
     ethr =  1.56E-04,  avg # of iterations =  1.0

     total cpu time spent up to now is        1.3 secs

     total energy              =    -158.04766329 Ry
     Harris-Foulkes estimate   =    -158.04771762 Ry
     estimated scf accuracy    <       0.00009114 Ry

     iteration #  4     ecut=    25.00 Ry     beta= 0.10
     Davidson diagonalization with overlap
     ethr =  7.60E-07,  avg # of iterations =  4.0

     total cpu time spent up to now is        1.5 secs

     total energy              =    -158.04779851 Ry
     Harris-Foulkes estimate   =    -158.04771504 Ry
     estimated scf accuracy    <       0.00004629 Ry

     iteration #  5     ecut=    25.00 Ry     beta= 0.10
     Davidson diagonalization with overlap
     ethr =  3.86E-07,  avg # of iterations =  1.0

     total cpu time spent up to now is        1.7 secs

     total energy              =    -158.04775665 Ry
     Harris-Foulkes estimate   =    -158.04779998 Ry
     estimated scf accuracy    <       0.00009391 Ry

     iteration #  6     ecut=    25.00 Ry     beta= 0.10
     Davidson diagonalization with overlap
     ethr =  3.86E-07,  avg # of iterations =  1.2

     total cpu time spent up to now is        1.9 secs

     total energy              =    -158.04775988 Ry
     Harris-Foulkes estimate   =    -158.04776005 Ry
     estimated scf accuracy    <       0.00000100 Ry

     iteration #  7     ecut=    25.00 Ry     beta= 0.10
     Davidson diagonalization with overlap
     ethr =  8.37E-09,  avg # of iterations =  3.2

     total cpu time spent up to now is        2.1 secs

     End of self-consistent calculation

          k = 0.1670 0.1670 0.1670 (   922 PWs)   bands (ev):

    -2.4450   3.4542   3.4542   3.4542   9.0271   9.0271   9.0272   9.5275
     9.5275   9.5276

          k = 0.1670 0.1670-0.5010 (   926 PWs)   bands (ev):

    -0.4435  -0.4434   5.2335   5.2336   5.5261   5.5263  11.0090  11.0091
    11.0195  11.0196

          k = 0.1670-0.5010-0.5010 (   944 PWs)   bands (ev):

     1.5304   1.5305   1.5305   1.5306   7.2921   7.2922   7.2922   7.2924
    13.1421  13.1421

          k =-0.5010-0.5010-0.5010 (   912 PWs)   bands (ev):

     3.3646   3.3647   3.3647   3.3647   3.6075   3.6075   3.6075   3.6078
    19.4887  19.4888

     the Fermi energy is     8.6007 ev

!    total energy              =    -158.04776016 Ry
     Harris-Foulkes estimate   =    -158.04776067 Ry
     estimated scf accuracy    <       0.00000046 Ry

     total all-electron energy =     -1942.618882 Ry

     The total energy is the sum of the following terms:

     one-electron contribution =      12.70424859 Ry
     hartree contribution      =       0.02562400 Ry
     xc contribution           =     -10.38390166 Ry
     ewald contribution        =     -21.67493853 Ry
     one-center paw contrib.   =    -138.71688185 Ry
     smearing contrib. (-TS)   =      -0.00191072 Ry

     convergence has been achieved in   7 iterations

     Forces acting on atoms (cartesian axes, Ry/au):

     atom    1 type  1   force =     0.00000000    0.00000000    0.00000000
     atom    2 type  1   force =     0.00000000    0.00000000    0.00000000
     atom    3 type  1   force =     0.00000000    0.00000000    0.00000000
     atom    4 type  1   force =     0.00000000    0.00000000    0.00000000

     Total force =     0.000000     Total SCF correction =     0.000000


     Computing stress (Cartesian axis) and pressure

          total   stress  (Ry/bohr**3)                   (kbar)     P=    4.69
   0.00003190   0.00000000   0.00000000          4.69      0.00      0.00
   0.00000000   0.00003190   0.00000000          0.00      4.69      0.00
   0.00000000   0.00000000   0.00003190          0.00      0.00      4.69


     Writing output data file ibmJNQArpguomqoF.save/

     init_run     :      0.28s CPU      0.28s WALL (       1 calls)
     electrons    :      1.36s CPU      1.38s WALL (       1 calls)
     forces       :      0.02s CPU      0.03s WALL (       1 calls)
     stress       :      0.05s CPU      0.05s WALL (       1 calls)

     Called by init_run:
     wfcinit      :      0.03s CPU      0.03s WALL (       1 calls)
     potinit      :      0.14s CPU      0.14s WALL (       1 calls)
     hinit0       :      0.11s CPU      0.11s WALL (       1 calls)

     Called by electrons:
     c_bands      :      0.30s CPU      0.30s WALL (       8 calls)
     sum_band     :      0.09s CPU      0.09s WALL (       8 calls)
     v_of_rho     :      0.04s CPU      0.05s WALL (       8 calls)
     newd         :      0.03s CPU      0.03s WALL (       8 calls)
     PAW_pot      :      1.04s CPU      1.04s WALL (       8 calls)
     mix_rho      :      0.00s CPU      0.00s WALL (       8 calls)

     Called by c_bands:
     init_us_2    :      0.01s CPU      0.01s WALL (      76 calls)
     cegterg      :      0.28s CPU      0.29s WALL (      32 calls)

     Called by sum_band:
     sum_band:bec :      0.00s CPU      0.00s WALL (      32 calls)
     addusdens    :      0.03s CPU      0.03s WALL (       8 calls)

     Called by *egterg:
     h_psi        :      0.20s CPU      0.21s WALL (     102 calls)
     s_psi        :      0.02s CPU      0.02s WALL (     102 calls)
     g_psi        :      0.00s CPU      0.00s WALL (      66 calls)
     cdiaghg      :      0.01s CPU      0.01s WALL (      94 calls)

     Called by h_psi:
     h_psi:pot    :      0.20s CPU      0.21s WALL (     102 calls)
     h_psi:calbec :      0.03s CPU      0.03s WALL (     102 calls)
     vloc_psi     :      0.15s CPU      0.15s WALL (     102 calls)
     add_vuspsi   :      0.02s CPU      0.02s WALL (     102 calls)

     General routines
     calbec       :      0.05s CPU      0.05s WALL (     154 calls)
     fft          :      0.01s CPU      0.01s WALL (     114 calls)
     ffts         :      0.00s CPU      0.00s WALL (       8 calls)
     fftw         :      0.16s CPU      0.16s WALL (    2036 calls)

     Parallel routines

     PWSCF        :      2.05s CPU      2.18s WALL


   This run was terminated on:  17:17: 4  20Jul2020            

=------------------------------------------------------------------------------=
   JOB DONE.
=------------------------------------------------------------------------------=
