
     Program PWSCF v.6.3 starts on 15Jun2020 at  5:16:25 

     This program is part of the open-source Quantum ESPRESSO suite
     for quantum simulation of materials; please cite
         "P. Giannozzi et al., J. Phys.:Condens. Matter 21 395502 (2009);
         "P. Giannozzi et al., J. Phys.:Condens. Matter 29 465901 (2017);
          URL http://www.quantum-espresso.org", 
     in publications or presentations arising from this work. More details at
     http://www.quantum-espresso.org/quote

     Parallel version (MPI & OpenMP), running on      20 processor cores
     Number of MPI processes:                20
     Threads/MPI process:                     1

     MPI processes distributed on     1 nodes
     R & G space division:  proc/nbgrp/npool/nimage =      20
     Reading input from wd/eos/eos_005.in
Warning: card &IONS ignored
Warning: card ION_DYNAMICS = 'BFGS', ignored
Warning: card / ignored
Warning: card &CELL ignored
Warning: card CELL_DYNAMICS = 'BFGS', ignored
Warning: card CELL_FACTOR = 2.0, ignored
Warning: card PRESS = 0.0, ignored
Warning: card / ignored

     Current dimensions of program PWSCF are:
     Max number of different atomic species (ntypx) = 10
     Max number of k-points (npk) =  40000
     Max angular momentum in pseudopotentials (lmaxx) =  3
     Message from routine read_upf::
     Pseudo file /rds/homes/b/bxp912/pp/Cr.pbe-spn-kjpaw_psl.1.0.0.UPF has been successfully fixed on the fly.
To avoid this message in the future you can permanently fix 
 your pseudo files following instructions given in: 
https://gitlab.com/QEF/q-e/blob/master/upftools/how_to_fix_upf.md
               file Cr.pbe-spn-kjpaw_psl.1.0.0.UPF: wavefunction(s)  3S 3P 3D renormalized
     Message from routine read_upf::
     Pseudo file /rds/homes/b/bxp912/pp/Cr.pbe-spn-kjpaw_psl.1.0.0.UPF has been successfully fixed on the fly.
To avoid this message in the future you can permanently fix 
 your pseudo files following instructions given in: 
https://gitlab.com/QEF/q-e/blob/master/upftools/how_to_fix_upf.md
               file Cr.pbe-spn-kjpaw_psl.1.0.0.UPF: wavefunction(s)  3S 3P 3D renormalized

     Subspace diagonalization in iterative solution of the eigenvalue problem:
     a serial algorithm will be used

     Found symmetry operation: I + (  0.0000  0.0000  0.5000)
     This is a supercell, fractional translations are disabled
 
     Parallelization info
     --------------------
     sticks:   dense  smooth     PW     G-vecs:    dense   smooth      PW
     Min         194     128     36                 9096     4878     725
     Max         195     129     38                 9099     4883     728
     Sum        3885    2561    725               181955    97569   14531
 


     bravais-lattice index     =            0
     lattice parameter (alat)  =      10.7442  a.u.
     unit-cell volume          =    1208.6665 (a.u.)^3
     number of atoms/cell      =           16
     number of atomic types    =            2
     number of electrons       =       224.00
     number of Kohn-Sham states=          134
     kinetic-energy cutoff     =      71.0000  Ry
     charge density cutoff     =     430.0000  Ry
     convergence threshold     =      1.0E-06
     mixing beta               =       0.1000
     number of iterations used =           10  plain     mixing
     Exchange-correlation      = SLA PW PBX PBC ( 1  4  3  4 0 0)

     celldm(1)=  10.744199  celldm(2)=   0.000000  celldm(3)=   0.000000
     celldm(4)=   0.000000  celldm(5)=   0.000000  celldm(6)=   0.000000

     crystal axes: (cart. coord. in units of alat)
               a(1) = (   0.991429   0.000000   0.000000 )  
               a(2) = (   0.000000   0.991429   0.000000 )  
               a(3) = (   0.000000   0.000000   0.991429 )  

     reciprocal axes: (cart. coord. in units 2 pi/alat)
               b(1) = (  1.008646  0.000000  0.000000 )  
               b(2) = (  0.000000  1.008646  0.000000 )  
               b(3) = (  0.000000  0.000000  1.008646 )  


     PseudoPot. # 1 for Cr read from file:
     /rds/homes/b/bxp912/pp/Cr.pbe-spn-kjpaw_psl.1.0.0.UPF
     MD5 check sum: cb1c17117da000fe5e03c4f1a6841d9c
     Pseudo is Projector augmented-wave + core cor, Zval = 14.0
     Generated using "atomic" code by A. Dal Corso v.5.1
     Shape of augmentation charge: PSQ
     Using radial grid of 1183 points,  6 beta functions with: 
                l(1) =   0
                l(2) =   0
                l(3) =   1
                l(4) =   1
                l(5) =   2
                l(6) =   2
     Q(r) pseudized with 0 coefficients 


     PseudoPot. # 2 for Cr read from file:
     /rds/homes/b/bxp912/pp/Cr.pbe-spn-kjpaw_psl.1.0.0.UPF
     MD5 check sum: cb1c17117da000fe5e03c4f1a6841d9c
     Pseudo is Projector augmented-wave + core cor, Zval = 14.0
     Generated using "atomic" code by A. Dal Corso v.5.1
     Shape of augmentation charge: PSQ
     Using radial grid of 1183 points,  6 beta functions with: 
                l(1) =   0
                l(2) =   0
                l(3) =   1
                l(4) =   1
                l(5) =   2
                l(6) =   2
     Q(r) pseudized with 0 coefficients 


     atomic species   valence    mass     pseudopotential
        Cr1           14.00    55.84500     Cr( 1.00)
        Cr2           14.00    55.84500     Cr( 1.00)

     Starting magnetic structure 
     atomic species   magnetization
        Cr1          0.100
        Cr2          0.100

     48 Sym. Ops., with inversion, found



   Cartesian axes

     site n.     atom                  positions (alat units)
         1           Cr1 tau(   1) = (   0.0000000   0.0000000   0.0000000  )
         2           Cr2 tau(   2) = (   0.2478575   0.2478575   0.2478571  )
         3           Cr1 tau(   3) = (   0.0000000   0.0000000   0.4957133  )
         4           Cr2 tau(   4) = (   0.2478575   0.2478575   0.7435705  )
         5           Cr1 tau(   5) = (   0.0000000   0.4957142   0.0000000  )
         6           Cr2 tau(   6) = (   0.2478575   0.7435707   0.2478571  )
         7           Cr1 tau(   7) = (   0.0000000   0.4957142   0.4957133  )
         8           Cr2 tau(   8) = (   0.2478575   0.7435707   0.7435705  )
         9           Cr1 tau(   9) = (   0.4957142   0.0000000   0.0000000  )
        10           Cr2 tau(  10) = (   0.7435707   0.2478575   0.2478571  )
        11           Cr1 tau(  11) = (   0.4957142   0.0000000   0.4957133  )
        12           Cr2 tau(  12) = (   0.7435707   0.2478575   0.7435705  )
        13           Cr1 tau(  13) = (   0.4957142   0.4957142   0.0000000  )
        14           Cr2 tau(  14) = (   0.7435707   0.7435707   0.2478571  )
        15           Cr1 tau(  15) = (   0.4957142   0.4957142   0.4957133  )
        16           Cr2 tau(  16) = (   0.7435707   0.7435707   0.7435705  )

     number of k points=    35  Marzari-Vanderbilt smearing, width (Ry)=  0.0400
                       cart. coord. in units 2pi/alat
        k(    1) = (   0.0560359   0.0560359   0.0560359), wk =   0.0109739
        k(    2) = (   0.0560359   0.0560359   0.1681076), wk =   0.0329218
        k(    3) = (   0.0560359   0.0560359   0.2801793), wk =   0.0329218
        k(    4) = (   0.0560359   0.0560359   0.3922510), wk =   0.0329218
        k(    5) = (   0.0560359   0.0560359  -0.5043228), wk =   0.0164609
        k(    6) = (   0.0560359   0.1681076   0.1681076), wk =   0.0329218
        k(    7) = (   0.0560359   0.1681076   0.2801793), wk =   0.0658436
        k(    8) = (   0.0560359   0.1681076   0.3922510), wk =   0.0658436
        k(    9) = (   0.0560359   0.1681076  -0.5043228), wk =   0.0329218
        k(   10) = (   0.0560359   0.2801793   0.2801793), wk =   0.0329218
        k(   11) = (   0.0560359   0.2801793   0.3922510), wk =   0.0658436
        k(   12) = (   0.0560359   0.2801793  -0.5043228), wk =   0.0329218
        k(   13) = (   0.0560359   0.3922510   0.3922510), wk =   0.0329218
        k(   14) = (   0.0560359   0.3922510  -0.5043228), wk =   0.0329218
        k(   15) = (   0.0560359  -0.5043228  -0.5043228), wk =   0.0082305
        k(   16) = (   0.1681076   0.1681076   0.1681076), wk =   0.0109739
        k(   17) = (   0.1681076   0.1681076   0.2801793), wk =   0.0329218
        k(   18) = (   0.1681076   0.1681076   0.3922510), wk =   0.0329218
        k(   19) = (   0.1681076   0.1681076  -0.5043228), wk =   0.0164609
        k(   20) = (   0.1681076   0.2801793   0.2801793), wk =   0.0329218
        k(   21) = (   0.1681076   0.2801793   0.3922510), wk =   0.0658436
        k(   22) = (   0.1681076   0.2801793  -0.5043228), wk =   0.0329218
        k(   23) = (   0.1681076   0.3922510   0.3922510), wk =   0.0329218
        k(   24) = (   0.1681076   0.3922510  -0.5043228), wk =   0.0329218
        k(   25) = (   0.1681076  -0.5043228  -0.5043228), wk =   0.0082305
        k(   26) = (   0.2801793   0.2801793   0.2801793), wk =   0.0109739
        k(   27) = (   0.2801793   0.2801793   0.3922510), wk =   0.0329218
        k(   28) = (   0.2801793   0.2801793  -0.5043228), wk =   0.0164609
        k(   29) = (   0.2801793   0.3922510   0.3922510), wk =   0.0329218
        k(   30) = (   0.2801793   0.3922510  -0.5043228), wk =   0.0329218
        k(   31) = (   0.2801793  -0.5043228  -0.5043228), wk =   0.0082305
        k(   32) = (   0.3922510   0.3922510   0.3922510), wk =   0.0109739
        k(   33) = (   0.3922510   0.3922510  -0.5043228), wk =   0.0164609
        k(   34) = (   0.3922510  -0.5043228  -0.5043228), wk =   0.0082305
        k(   35) = (  -0.5043228  -0.5043228  -0.5043228), wk =   0.0013717

     Dense  grid:   181955 G-vectors     FFT dimensions: (  72,  72,  72)

     Smooth grid:    97569 G-vectors     FFT dimensions: (  60,  60,  60)

     Estimated max dynamical RAM per process >     139.52 MB

     Estimated total dynamical RAM >       2.73 GB
     Generating pointlists ...
     new r_m :   0.1771 (alat units)  1.9026 (a.u.) for type    1
     new r_m :   0.1771 (alat units)  1.9026 (a.u.) for type    2

     Check: negative/imaginary core charge=   -0.000009    0.000000

     Initial potential from superposition of free atoms

     starting charge  223.98764, renormalised to  224.00000
     Starting wfcs are  160 randomized atomic wfcs
     Checking if some PAW data can be deallocated... 

     total cpu time spent up to now is       11.7 secs

     Self-consistent Calculation

     iteration #  1     ecut=    71.00 Ry     beta= 0.10
     Davidson diagonalization with overlap
     ethr =  1.00E-02,  avg # of iterations =  3.1

     Threshold (ethr) on eigenvalues was too large:
     Diagonalizing with lowered threshold

     Davidson diagonalization with overlap
     ethr =  7.93E-04,  avg # of iterations =  3.4

     total cpu time spent up to now is       70.7 secs

     total energy              =   -3971.38605972 Ry
     Harris-Foulkes estimate   =   -3971.56096561 Ry
     estimated scf accuracy    <       1.93171337 Ry

     total magnetization       =     4.52 Bohr mag/cell
     absolute magnetization    =     4.71 Bohr mag/cell

     iteration #  2     ecut=    71.00 Ry     beta= 0.10
     Davidson diagonalization with overlap
     ethr =  8.62E-04,  avg # of iterations =  1.0

     total cpu time spent up to now is       90.9 secs

     total energy              =   -3971.08624425 Ry
     Harris-Foulkes estimate   =   -3971.40861537 Ry
     estimated scf accuracy    <       1.25528100 Ry

     total magnetization       =     4.40 Bohr mag/cell
     absolute magnetization    =     4.55 Bohr mag/cell

     iteration #  3     ecut=    71.00 Ry     beta= 0.10
     Davidson diagonalization with overlap
     ethr =  5.60E-04,  avg # of iterations =  3.1

     total cpu time spent up to now is      123.7 secs

     total energy              =   -3971.37450504 Ry
     Harris-Foulkes estimate   =   -3971.42809046 Ry
     estimated scf accuracy    <       0.29118605 Ry

     total magnetization       =     3.60 Bohr mag/cell
     absolute magnetization    =     3.72 Bohr mag/cell

     iteration #  4     ecut=    71.00 Ry     beta= 0.10
     Davidson diagonalization with overlap
     ethr =  1.30E-04,  avg # of iterations =  1.8

     total cpu time spent up to now is      146.3 secs

     total energy              =   -3971.41675834 Ry
     Harris-Foulkes estimate   =   -3971.38593217 Ry
     estimated scf accuracy    <       0.18997610 Ry

     total magnetization       =     3.49 Bohr mag/cell
     absolute magnetization    =     3.64 Bohr mag/cell

     iteration #  5     ecut=    71.00 Ry     beta= 0.10
     Davidson diagonalization with overlap
     ethr =  8.48E-05,  avg # of iterations =  2.9

     total cpu time spent up to now is      176.6 secs

     total energy              =   -3971.48789353 Ry
     Harris-Foulkes estimate   =   -3971.45822792 Ry
     estimated scf accuracy    <       0.15987383 Ry

     total magnetization       =     2.43 Bohr mag/cell
     absolute magnetization    =     2.61 Bohr mag/cell

     iteration #  6     ecut=    71.00 Ry     beta= 0.10
     Davidson diagonalization with overlap
     ethr =  7.14E-05,  avg # of iterations =  2.4

     total cpu time spent up to now is      203.7 secs

     total energy              =   -3971.52729971 Ry
     Harris-Foulkes estimate   =   -3971.52747553 Ry
     estimated scf accuracy    <       0.00736746 Ry

     total magnetization       =     0.26 Bohr mag/cell
     absolute magnetization    =     0.41 Bohr mag/cell

     iteration #  7     ecut=    71.00 Ry     beta= 0.10
     Davidson diagonalization with overlap
     c_bands:  1 eigenvalues not converged
     ethr =  3.29E-06,  avg # of iterations =  6.3

     total cpu time spent up to now is      249.2 secs

     total energy              =   -3971.52625258 Ry
     Harris-Foulkes estimate   =   -3971.52862910 Ry
     estimated scf accuracy    <       0.00616508 Ry

     total magnetization       =     0.17 Bohr mag/cell
     absolute magnetization    =     0.44 Bohr mag/cell

     iteration #  8     ecut=    71.00 Ry     beta= 0.10
     Davidson diagonalization with overlap
     ethr =  2.75E-06,  avg # of iterations =  3.9

     total cpu time spent up to now is      295.1 secs

     total energy              =   -3971.52850263 Ry
     Harris-Foulkes estimate   =   -3971.53042734 Ry
     estimated scf accuracy    <       0.01032674 Ry

     total magnetization       =     0.10 Bohr mag/cell
     absolute magnetization    =     0.30 Bohr mag/cell

     iteration #  9     ecut=    71.00 Ry     beta= 0.10
     Davidson diagonalization with overlap
     ethr =  2.75E-06,  avg # of iterations =  2.2

     total cpu time spent up to now is      321.2 secs

     total energy              =   -3971.52890396 Ry
     Harris-Foulkes estimate   =   -3971.52921058 Ry
     estimated scf accuracy    <       0.00166834 Ry

     total magnetization       =     0.08 Bohr mag/cell
     absolute magnetization    =     0.14 Bohr mag/cell

     iteration # 10     ecut=    71.00 Ry     beta= 0.10
     Davidson diagonalization with overlap
     ethr =  7.45E-07,  avg # of iterations =  3.2

     total cpu time spent up to now is      353.3 secs

     total energy              =   -3971.52913413 Ry
     Harris-Foulkes estimate   =   -3971.52914691 Ry
     estimated scf accuracy    <       0.00010612 Ry

     total magnetization       =     0.04 Bohr mag/cell
     absolute magnetization    =     0.12 Bohr mag/cell

     iteration # 11     ecut=    71.00 Ry     beta= 0.10
     Davidson diagonalization with overlap
     c_bands:  1 eigenvalues not converged
     ethr =  4.74E-08,  avg # of iterations =  6.0

     total cpu time spent up to now is      399.3 secs

     total energy              =   -3971.52923023 Ry
     Harris-Foulkes estimate   =   -3971.52915709 Ry
     estimated scf accuracy    <       0.00021901 Ry

     total magnetization       =     0.05 Bohr mag/cell
     absolute magnetization    =     0.13 Bohr mag/cell

     iteration # 12     ecut=    71.00 Ry     beta= 0.10
     Davidson diagonalization with overlap
     ethr =  4.74E-08,  avg # of iterations =  5.3

     total cpu time spent up to now is      444.1 secs

     total energy              =   -3971.52918458 Ry
     Harris-Foulkes estimate   =   -3971.52929110 Ry
     estimated scf accuracy    <       0.00152158 Ry

     total magnetization       =    -0.01 Bohr mag/cell
     absolute magnetization    =     0.06 Bohr mag/cell

     iteration # 13     ecut=    71.00 Ry     beta= 0.10
     Davidson diagonalization with overlap
     ethr =  4.74E-08,  avg # of iterations =  4.8

     total cpu time spent up to now is      488.1 secs

     total energy              =   -3971.52928514 Ry
     Harris-Foulkes estimate   =   -3971.52927093 Ry
     estimated scf accuracy    <       0.00003799 Ry

     total magnetization       =     0.02 Bohr mag/cell
     absolute magnetization    =     0.06 Bohr mag/cell

     iteration # 14     ecut=    71.00 Ry     beta= 0.10
     Davidson diagonalization with overlap
     ethr =  1.70E-08,  avg # of iterations =  2.1

     total cpu time spent up to now is      513.1 secs

     total energy              =   -3971.52929087 Ry
     Harris-Foulkes estimate   =   -3971.52928901 Ry
     estimated scf accuracy    <       0.00002589 Ry

     total magnetization       =     0.00 Bohr mag/cell
     absolute magnetization    =     0.04 Bohr mag/cell

     iteration # 15     ecut=    71.00 Ry     beta= 0.10
     Davidson diagonalization with overlap
     ethr =  1.16E-08,  avg # of iterations =  3.2

     total cpu time spent up to now is      539.9 secs

     total energy              =   -3971.52929736 Ry
     Harris-Foulkes estimate   =   -3971.52929388 Ry
     estimated scf accuracy    <       0.00001152 Ry

     total magnetization       =     0.00 Bohr mag/cell
     absolute magnetization    =     0.03 Bohr mag/cell

     iteration # 16     ecut=    71.00 Ry     beta= 0.10
     Davidson diagonalization with overlap
     ethr =  5.14E-09,  avg # of iterations =  4.6

     total cpu time spent up to now is      581.0 secs

     total energy              =   -3971.52929577 Ry
     Harris-Foulkes estimate   =   -3971.52930184 Ry
     estimated scf accuracy    <       0.00011428 Ry

     total magnetization       =    -0.00 Bohr mag/cell
     absolute magnetization    =     0.03 Bohr mag/cell

     iteration # 17     ecut=    71.00 Ry     beta= 0.10
     Davidson diagonalization with overlap
     ethr =  5.14E-09,  avg # of iterations =  4.4

     total cpu time spent up to now is      621.1 secs

     total energy              =   -3971.52930275 Ry
     Harris-Foulkes estimate   =   -3971.52930167 Ry
     estimated scf accuracy    <       0.00000199 Ry

     total magnetization       =    -0.00 Bohr mag/cell
     absolute magnetization    =     0.03 Bohr mag/cell

     iteration # 18     ecut=    71.00 Ry     beta= 0.10
     Davidson diagonalization with overlap
     ethr =  8.89E-10,  avg # of iterations =  2.0
 
     Magnetic moment per site:
     atom:    1    charge:   12.1988    magn:    0.0020    constr:    0.0000
     atom:    2    charge:   12.1985    magn:   -0.0016    constr:    0.0000
     atom:    3    charge:   12.1984    magn:    0.0019    constr:    0.0000
     atom:    4    charge:   12.1985    magn:   -0.0016    constr:    0.0000
     atom:    5    charge:   12.1984    magn:    0.0019    constr:    0.0000
     atom:    6    charge:   12.1985    magn:   -0.0016    constr:    0.0000
     atom:    7    charge:   12.1984    magn:    0.0014    constr:    0.0000
     atom:    8    charge:   12.1985    magn:   -0.0016    constr:    0.0000
     atom:    9    charge:   12.1984    magn:    0.0019    constr:    0.0000
     atom:   10    charge:   12.1985    magn:   -0.0016    constr:    0.0000
     atom:   11    charge:   12.1984    magn:    0.0014    constr:    0.0000
     atom:   12    charge:   12.1985    magn:   -0.0016    constr:    0.0000
     atom:   13    charge:   12.1984    magn:    0.0014    constr:    0.0000
     atom:   14    charge:   12.1985    magn:   -0.0016    constr:    0.0000
     atom:   15    charge:   12.1981    magn:    0.0015    constr:    0.0000
     atom:   16    charge:   12.1985    magn:   -0.0016    constr:    0.0000

     total cpu time spent up to now is      644.3 secs

     End of self-consistent calculation

 ------ SPIN UP ------------


          k = 0.0560 0.0560 0.0560 ( 12209 PWs)   bands (ev):

   -51.6588 -51.4623 -51.4623 -51.4623 -51.4279 -51.4278 -51.4277 -51.4272
   -51.4272 -51.4271 -51.4237 -51.4237 -51.4237 -51.4079 -51.4060 -51.2650
   -23.3822 -23.3822 -23.3822 -23.3775 -23.3775 -23.3775 -23.0642 -23.0642
   -23.0530 -22.9586 -22.9537 -22.9537 -22.9537 -22.9156 -22.9156 -22.8941
   -22.8941 -22.8940 -22.8277 -22.8277 -22.7836 -22.7360 -22.7360 -22.7360
   -22.7175 -22.7175 -22.7174 -22.6900 -22.6900 -22.6900 -22.6842 -22.6842
   -22.6842 -22.6748 -22.6748 -22.6748 -22.6576 -22.6576 -22.6576 -22.3813
   -22.3813 -22.3812 -22.3796 -22.3759 -22.3758 -22.3758 -22.3676 -22.3676
    12.3007  15.6661  15.6661  15.6662  15.6869  15.6869  15.6869  15.7635
    15.7635  16.0047  16.0047  16.0047  16.4276  16.4276  16.4277  17.6631
    17.7010  17.7010  17.7011  17.7176  17.7176  17.7176  17.7734  17.7734
    17.9541  17.9541  18.0192  18.0939  18.0940  18.0940  18.5703  18.5704
    18.5704  19.3068  19.3068  19.3646  19.6680  19.6680  19.6680  19.7896
    19.7896  19.7897  19.8958  19.8958  19.8958  20.0100  20.0100  20.0101
    20.9323  20.9323  20.9323  21.0240  21.0241  21.0241  21.2372  21.2372
    21.2372  21.2746  21.2746  21.2746  21.4533  21.4533  21.4534  21.4644
    21.4644  21.5166  21.5166  21.5166  21.8364  21.8365

          k = 0.0560 0.0560 0.1681 ( 12199 PWs)   bands (ev):

   -51.6518 -51.4973 -51.4606 -51.4606 -51.4313 -51.4312 -51.4271 -51.4270
   -51.4261 -51.4226 -51.4221 -51.4220 -51.4090 -51.4070 -51.3947 -51.2699
   -23.3680 -23.3680 -23.3664 -23.3621 -23.3533 -23.3533 -23.0712 -23.0531
   -23.0359 -23.0231 -23.0053 -23.0053 -23.0029 -23.0008 -22.9480 -22.9480
   -22.8864 -22.8377 -22.8239 -22.7968 -22.7771 -22.7412 -22.7356 -22.7356
   -22.7169 -22.7020 -22.6966 -22.6966 -22.6954 -22.6802 -22.6802 -22.6756
   -22.6756 -22.6712 -22.6712 -22.6151 -22.6131 -22.6131 -22.5992 -22.4066
   -22.3972 -22.3972 -22.3950 -22.3909 -22.3811 -22.3811 -22.3775 -22.3721
    12.4405  15.4480  15.7002  15.7002  15.7638  15.7638  15.7807  15.8003
    15.8360  15.8471  16.0438  16.0438  16.4574  16.4574  16.6680  17.5279
    17.6302  17.6530  17.6813  17.6873  17.6963  17.7608  17.7609  17.8104
    17.8104  17.8206  18.0565  18.0565  18.1920  18.1990  18.4720  18.4720
    19.0187  19.2733  19.2987  19.4087  19.4088  19.4393  19.4920  19.6224
    19.6225  19.6633  19.9954  19.9954  20.1388  20.1388  20.1769  20.2990
    20.4418  20.4419  20.6367  20.7364  20.7364  20.7479  20.8811  21.2154
    21.2154  21.3651  21.3663  21.3663  21.4682  21.4682  21.4785  21.5041
    21.5086  21.5132  21.5132  21.5427  21.8404  21.8696

          k = 0.0560 0.0560 0.2802 ( 12213 PWs)   bands (ev):

   -51.6382 -51.5316 -51.4574 -51.4573 -51.4363 -51.4363 -51.4259 -51.4258
   -51.4239 -51.4215 -51.4214 -51.4206 -51.4113 -51.4090 -51.3642 -51.2797
   -23.3356 -23.3354 -23.3354 -23.3322 -23.3112 -23.3111 -23.0963 -23.0865
   -23.0772 -23.0772 -23.0753 -23.0354 -23.0311 -23.0242 -23.0242 -23.0111
   -22.8572 -22.8553 -22.8348 -22.8263 -22.7466 -22.7319 -22.7319 -22.7243
   -22.7158 -22.7039 -22.7039 -22.6776 -22.6775 -22.6755 -22.6754 -22.6592
   -22.6447 -22.6125 -22.6124 -22.5590 -22.5577 -22.5577 -22.5444 -22.4516
   -22.4229 -22.4228 -22.4224 -22.4201 -22.3968 -22.3968 -22.3968 -22.3884
    12.7145  14.8246  15.7813  15.7813  15.8915  15.8915  15.9799  16.0009
    16.0035  16.0177  16.0854  16.0855  16.4643  16.4643  16.7200  17.1973
    17.3486  17.4193  17.5863  17.6469  17.6595  17.6597  17.8945  17.8945
    17.9764  17.9764  18.0824  18.0825  18.4219  18.4219  18.4888  18.5096
    19.0590  19.0590  19.2495  19.2511  19.2511  19.2776  19.2866  19.3665
    19.5493  19.7717  19.8133  19.8134  20.0517  20.0517  20.2956  20.3081
    20.3081  20.3424  20.3545  20.3545  20.3587  20.5125  20.6474  21.1710
    21.2303  21.2304  21.3596  21.3596  21.5262  21.5459  21.5806  21.5915
    21.5916  21.8155  21.8174  21.8393  21.8479  21.8780

          k = 0.0560 0.0560 0.3923 ( 12218 PWs)   bands (ev):

   -51.6184 -51.5641 -51.4529 -51.4529 -51.4419 -51.4418 -51.4244 -51.4244
   -51.4219 -51.4218 -51.4210 -51.4179 -51.4142 -51.4117 -51.3369 -51.2943
   -23.2905 -23.2887 -23.2864 -23.2864 -23.2533 -23.2533 -23.1681 -23.1639
   -23.1528 -23.1527 -23.1052 -23.1051 -23.0757 -23.0582 -22.9991 -22.9780
   -22.9098 -22.8886 -22.8243 -22.8029 -22.7546 -22.7431 -22.7262 -22.7262
   -22.7117 -22.7117 -22.6760 -22.6760 -22.6751 -22.6751 -22.6657 -22.5842
   -22.5758 -22.5545 -22.5545 -22.5126 -22.5078 -22.5049 -22.5049 -22.4944
   -22.4630 -22.4626 -22.4581 -22.4581 -22.4255 -22.4230 -22.4230 -22.4152
    13.1117  14.1972  15.8925  15.8925  16.0572  16.0572  16.0785  16.0786
    16.1925  16.2100  16.3085  16.3202  16.3887  16.3888  16.6216  16.8075
    17.0442  17.0619  17.5642  17.5895  17.6076  17.6186  18.0964  18.0965
    18.2085  18.2086  18.2731  18.2731  18.5090  18.5090  18.7432  18.7433
    18.8635  18.8811  18.8811  18.8840  19.2116  19.2116  19.2386  19.2775
    19.2877  19.2938  19.4184  19.4185  19.6974  19.7966  19.8031  20.1057
    20.1440  20.5988  20.5988  20.6363  20.6364  20.8914  20.8983  21.0451
    21.0515  21.0515  21.1816  21.1816  21.5914  21.6044  21.6890  21.7449
    21.7489  21.7531  21.8577  21.8798  21.8868  21.8970

          k = 0.0560 0.0560-0.5043 ( 12216 PWs)   bands (ev):

   -51.5936 -51.5932 -51.4478 -51.4478 -51.4474 -51.4473 -51.4231 -51.4231
   -51.4228 -51.4227 -51.4178 -51.4174 -51.4150 -51.4145 -51.3137 -51.3133
   -23.2334 -23.2330 -23.2329 -23.2325 -23.2242 -23.2242 -23.2241 -23.2241
   -23.1833 -23.1833 -23.1832 -23.1832 -23.0710 -23.0707 -22.9585 -22.9581
   -22.9371 -22.9368 -22.7892 -22.7888 -22.7737 -22.7733 -22.7196 -22.7196
   -22.7192 -22.7192 -22.6754 -22.6754 -22.6750 -22.6750 -22.5860 -22.5857
   -22.5183 -22.5179 -22.5145 -22.5141 -22.5023 -22.5023 -22.5022 -22.5022
   -22.4630 -22.4626 -22.4593 -22.4593 -22.4593 -22.4592 -22.4510 -22.4507
    13.6141  13.6146  16.0047  16.0047  16.0049  16.0050  16.2365  16.2365
    16.2367  16.2367  16.4319  16.4322  16.4700  16.4704  16.6749  16.6753
    16.6773  16.6777  17.5755  17.5758  17.5882  17.5885  18.3533  18.3533
    18.3534  18.3535  18.4684  18.4684  18.4685  18.4686  18.7244  18.7244
    18.7247  18.7247  18.9143  18.9143  18.9146  18.9146  19.2480  19.2483
    19.2792  19.2795  19.3046  19.3048  19.3170  19.3171  19.8836  19.8839
    20.5408  20.5411  20.8374  20.8374  20.8374  20.8374  20.9360  20.9360
    20.9360  20.9361  21.3199  21.3202  21.4757  21.4760  21.6669  21.6672
    21.6747  21.6750  21.8239  21.8243  21.8687  21.8691

          k = 0.0560 0.1681 0.1681 ( 12227 PWs)   bands (ev):

   -51.6450 -51.4946 -51.4946 -51.4589 -51.4412 -51.4301 -51.4300 -51.4264
   -51.4211 -51.4211 -51.4144 -51.4107 -51.4076 -51.3951 -51.3951 -51.2746
   -23.3634 -23.3529 -23.3529 -23.3397 -23.3397 -23.3198 -23.0838 -23.0639
   -23.0498 -23.0497 -23.0467 -23.0383 -23.0284 -23.0093 -22.9843 -22.9048
   -22.8797 -22.8796 -22.8182 -22.7954 -22.7953 -22.7468 -22.7298 -22.7297
   -22.7137 -22.7103 -22.7103 -22.7060 -22.6913 -22.6913 -22.6840 -22.6667
   -22.6656 -22.6325 -22.6173 -22.6173 -22.5795 -22.5577 -22.5577 -22.4429
   -22.4228 -22.4079 -22.4078 -22.3948 -22.3948 -22.3857 -22.3756 -22.3679
    12.5780  15.5064  15.5064  15.6805  15.8157  15.8157  15.8746  15.8757
    15.8757  15.9099  15.9275  16.0941  16.5026  16.7017  16.7017  17.4039
    17.5410  17.6331  17.6331  17.7375  17.7375  17.7560  17.7819  17.7819
    17.7870  17.9074  17.9352  17.9953  18.1857  18.2155  18.3580  18.8285
    18.8285  19.1964  19.2476  19.2476  19.2773  19.3056  19.4732  19.5640
    19.8864  19.8864  19.9520  19.9520  19.9739  20.0907  20.2193  20.2684
    20.2685  20.3525  20.3526  20.4703  20.4703  20.5937  20.9204  20.9204
    21.2220  21.3488  21.3949  21.3950  21.4349  21.4716  21.4717  21.4750
    21.4857  21.6902  21.7998  21.8069  21.8069  21.8487

          k = 0.0560 0.1681 0.2802 ( 12213 PWs)   bands (ev):

   -51.6317 -51.5280 -51.4893 -51.4557 -51.4519 -51.4349 -51.4276 -51.4252
   -51.4206 -51.4192 -51.4134 -51.4091 -51.4082 -51.3959 -51.3656 -51.2841
   -23.3407 -23.3232 -23.3221 -23.3130 -23.3003 -23.2691 -23.1163 -23.1161
   -23.0968 -23.0927 -23.0923 -23.0806 -23.0436 -23.0258 -22.9763 -22.9583
   -22.8830 -22.8529 -22.8097 -22.8029 -22.7881 -22.7869 -22.7505 -22.7358
   -22.7310 -22.7201 -22.7113 -22.6892 -22.6883 -22.6692 -22.6526 -22.6400
   -22.6207 -22.6098 -22.5842 -22.5623 -22.5361 -22.5069 -22.5061 -22.4966
   -22.4575 -22.4293 -22.4287 -22.4219 -22.4071 -22.4044 -22.3806 -22.3744
    12.8474  14.9049  15.5983  15.6930  15.8969  16.0020  16.0291  16.0375
    16.0473  16.0859  16.0896  16.1565  16.5368  16.6985  16.7643  17.2297
    17.2686  17.3802  17.6697  17.6972  17.7221  17.7334  17.7869  17.8608
    17.8868  17.9313  17.9759  18.1318  18.2676  18.3749  18.4366  18.6952
    18.9312  19.0471  19.0613  19.1241  19.1458  19.2001  19.2518  19.4385
    19.4991  19.7006  19.7226  19.8756  19.9515  20.0399  20.0406  20.0699
    20.2008  20.3153  20.3441  20.4089  20.4426  20.6356  20.6366  21.0553
    21.2011  21.2627  21.2981  21.3635  21.4057  21.4517  21.5041  21.5326
    21.7292  21.7921  21.7955  21.8265  21.8773  21.8830

          k = 0.0560 0.1681 0.3923 ( 12215 PWs)   bands (ev):

   -51.6125 -51.5595 -51.4819 -51.4626 -51.4513 -51.4404 -51.4244 -51.4236
   -51.4210 -51.4170 -51.4166 -51.4113 -51.4034 -51.3975 -51.3392 -51.2981
   -23.3015 -23.2802 -23.2765 -23.2747 -23.2466 -23.2035 -23.1850 -23.1723
   -23.1615 -23.1561 -23.1126 -23.1051 -23.0991 -23.0434 -22.9944 -22.9370
   -22.9063 -22.8482 -22.8414 -22.7916 -22.7772 -22.7700 -22.7480 -22.7471
   -22.7376 -22.7303 -22.7217 -22.6893 -22.6886 -22.6418 -22.6260 -22.6082
   -22.5729 -22.5635 -22.5539 -22.5366 -22.5123 -22.5005 -22.4941 -22.4615
   -22.4614 -22.4607 -22.4604 -22.4574 -22.4324 -22.4282 -22.3965 -22.3928
    13.2370  14.2966  15.6813  15.7165  16.0065  16.1662  16.1720  16.2165
    16.2445  16.3001  16.3464  16.3841  16.4845  16.5946  16.6724  16.8646
    17.0437  17.0834  17.6091  17.6511  17.6703  17.6809  17.9764  18.0379
    18.0556  18.1000  18.1231  18.2765  18.3903  18.5515  18.7045  18.7648
    18.7948  18.8340  18.9008  18.9133  19.0638  19.0734  19.1031  19.1586
    19.1620  19.2233  19.3070  19.4642  19.5566  19.5651  19.9098  20.3370
    20.3703  20.5656  20.5661  20.6438  20.6491  20.6733  20.8821  20.9591
    20.9880  21.0879  21.1840  21.2411  21.4030  21.5305  21.5643  21.6434
    21.6855  21.7122  21.7214  21.8069  21.8730  21.8763

          k = 0.0560 0.1681-0.5043 ( 12228 PWs)   bands (ev):

   -51.5883 -51.5879 -51.4730 -51.4726 -51.4462 -51.4459 -51.4224 -51.4219
   -51.4209 -51.4205 -51.4142 -51.4138 -51.4001 -51.3997 -51.3168 -51.3164
   -23.2483 -23.2483 -23.2270 -23.2266 -23.2256 -23.2252 -23.2196 -23.2195
   -23.1825 -23.1824 -23.1268 -23.1268 -23.1067 -23.1065 -22.9544 -22.9540
   -22.8920 -22.8918 -22.8091 -22.8088 -22.7661 -22.7657 -22.7638 -22.7634
   -22.7399 -22.7396 -22.6892 -22.6889 -22.6405 -22.6404 -22.6331 -22.6327
   -22.5513 -22.5512 -22.5126 -22.5122 -22.5036 -22.5033 -22.4937 -22.4937
   -22.4689 -22.4685 -22.4574 -22.4574 -22.4234 -22.4234 -22.4221 -22.4219
    13.7285  13.7290  15.7211  15.7213  16.1127  16.1129  16.3423  16.3425
    16.4164  16.4166  16.4767  16.4771  16.5541  16.5545  16.7110  16.7114
    16.7222  16.7226  17.6146  17.6149  17.6477  17.6479  18.2240  18.2242
    18.2490  18.2492  18.2849  18.2850  18.3710  18.3714  18.7432  18.7433
    18.8093  18.8094  18.8936  18.8937  19.0237  19.0239  19.0516  19.0517
    19.1096  19.1098  19.1473  19.1474  19.1956  19.1959  20.1254  20.1256
    20.6589  20.6592  20.7156  20.7156  20.8777  20.8777  20.9400  20.9401
    20.9728  20.9730  20.9908  20.9909  21.3881  21.3884  21.6210  21.6214
    21.6403  21.6407  21.7829  21.7833  21.8708  21.8711

          k = 0.0560 0.2802 0.2802 ( 12204 PWs)   bands (ev):

   -51.6191 -51.5209 -51.5208 -51.4678 -51.4526 -51.4324 -51.4324 -51.4239
   -51.4189 -51.4188 -51.4166 -51.4101 -51.3966 -51.3684 -51.3684 -51.2928
   -23.3279 -23.2964 -23.2964 -23.2793 -23.2793 -23.2104 -23.1439 -23.1409
   -23.1409 -23.1230 -23.1208 -23.1204 -23.0800 -23.0062 -22.9342 -22.8844
   -22.8827 -22.8826 -22.8425 -22.8424 -22.8009 -22.7674 -22.7580 -22.7489
   -22.7489 -22.7264 -22.7264 -22.7098 -22.7098 -22.7013 -22.6300 -22.5965
   -22.5693 -22.5693 -22.5679 -22.5597 -22.5479 -22.5073 -22.5000 -22.4616
   -22.4616 -22.4413 -22.4413 -22.4280 -22.4280 -22.4220 -22.3746 -22.3688
    13.1069  15.0480  15.0480  15.6118  16.1180  16.1180  16.1673  16.1912
    16.2118  16.2118  16.2520  16.2616  16.6303  16.7696  16.7696  17.1919
    17.2830  17.3708  17.3709  17.7378  17.8029  17.8029  17.8359  17.8558
    17.8559  17.8707  17.9516  18.1152  18.3178  18.3574  18.4145  18.8021
    18.8021  18.9355  18.9355  18.9521  18.9914  18.9948  19.0581  19.2040
    19.4833  19.4833  19.5643  19.5643  19.7348  19.7998  19.7998  19.9374
    20.4149  20.4149  20.4975  20.5506  20.5993  20.5994  20.8763  21.0023
    21.0023  21.1956  21.3290  21.3290  21.3757  21.3951  21.3951  21.4152
    21.4983  21.7329  21.7367  21.7368  21.8734  21.8839

          k = 0.0560 0.2802 0.3923 ( 12210 PWs)   bands (ev):

   -51.6008 -51.5507 -51.5106 -51.4834 -51.4483 -51.4377 -51.4289 -51.4223
   -51.4206 -51.4194 -51.4166 -51.4119 -51.3868 -51.3728 -51.3439 -51.3058
   -23.2988 -23.2597 -23.2578 -23.2499 -23.2342 -23.2015 -23.1781 -23.1656
   -23.1647 -23.1518 -23.1395 -23.1385 -23.1284 -22.9766 -22.9697 -22.8931
   -22.8874 -22.8620 -22.8268 -22.8005 -22.7865 -22.7862 -22.7835 -22.7825
   -22.7741 -22.7617 -22.7364 -22.7104 -22.7087 -22.6643 -22.6345 -22.6102
   -22.5796 -22.5491 -22.5463 -22.5267 -22.5225 -22.5129 -22.4797 -22.4620
   -22.4590 -22.4590 -22.4480 -22.4395 -22.4236 -22.4234 -22.3795 -22.3756
    13.4805  14.4832  15.2213  15.5159  16.2218  16.3306  16.3332  16.3672
    16.3702  16.4221  16.4809  16.4948  16.6432  16.6847  16.6926  17.0459
    17.0550  17.0857  17.6610  17.6960  17.7384  17.7579  17.7757  17.8945
    17.9405  17.9874  18.0585  18.0848  18.4956  18.5105  18.5258  18.5918
    18.6551  18.7946  18.8010  18.8749  18.8909  18.8968  19.0264  19.0369
    19.0964  19.1485  19.1894  19.1932  19.3353  19.3869  20.1515  20.1759
    20.5871  20.6050  20.7143  20.7265  20.7369  20.7484  20.7527  20.8470
    20.9781  21.0594  21.1648  21.2205  21.2583  21.3862  21.4238  21.4623
    21.5460  21.5706  21.6419  21.6502  21.7695  21.8771

          k = 0.0560 0.2802-0.5043 ( 12188 PWs)   bands (ev):

   -51.5779 -51.5775 -51.4981 -51.4977 -51.4434 -51.4430 -51.4250 -51.4246
   -51.4209 -51.4205 -51.4144 -51.4140 -51.3791 -51.3787 -51.3231 -51.3227
   -23.2556 -23.2555 -23.2151 -23.2148 -23.2147 -23.2143 -23.2119 -23.2118
   -23.1820 -23.1819 -23.1505 -23.1504 -23.0567 -23.0567 -22.9386 -22.9382
   -22.8366 -22.8365 -22.8264 -22.8262 -22.8070 -22.8066 -22.7713 -22.7710
   -22.7637 -22.7634 -22.7163 -22.7162 -22.7110 -22.7107 -22.6045 -22.6045
   -22.5935 -22.5931 -22.4993 -22.4990 -22.4908 -22.4905 -22.4829 -22.4828
   -22.4820 -22.4816 -22.4568 -22.4567 -22.3958 -22.3958 -22.3942 -22.3941
    13.9483  13.9487  15.3857  15.3861  16.3103  16.3105  16.5237  16.5240
    16.5344  16.5346  16.5396  16.5398  16.7496  16.7500  16.7686  16.7690
    16.8029  16.8032  17.6916  17.6918  17.7274  17.7276  18.0115  18.0118
    18.0443  18.0446  18.0577  18.0581  18.2796  18.2797  18.8004  18.8006
    18.8012  18.8014  18.8154  18.8156  18.8221  18.8221  18.8783  18.8785
    18.9974  18.9974  19.0319  19.0320  19.0914  19.0916  20.4344  20.4345
    20.5489  20.5489  20.6271  20.6272  20.8420  20.8422  20.9676  20.9677
    20.9927  20.9928  21.0394  21.0395  21.1746  21.1748  21.5335  21.5338
    21.5529  21.5533  21.7083  21.7087  21.7516  21.7516

          k = 0.0560 0.3923 0.3923 ( 12215 PWs)   bands (ev):

   -51.5840 -51.5379 -51.5379 -51.5035 -51.4441 -51.4340 -51.4339 -51.4250
   -51.4206 -51.4175 -51.4174 -51.4133 -51.3724 -51.3509 -51.3509 -51.3172
   -23.2798 -23.2326 -23.2325 -23.2181 -23.2181 -23.2031 -23.2031 -23.1876
   -23.1807 -23.1806 -23.1695 -23.1528 -23.0615 -22.9495 -22.8878 -22.8877
   -22.8731 -22.8730 -22.8570 -22.8340 -22.8170 -22.7991 -22.7990 -22.7948
   -22.7776 -22.7364 -22.7364 -22.7247 -22.7214 -22.7213 -22.7155 -22.6032
   -22.5819 -22.5378 -22.5378 -22.5141 -22.5010 -22.4915 -22.4713 -22.4678
   -22.4661 -22.4661 -22.4579 -22.4579 -22.3952 -22.3951 -22.3732 -22.3701
    13.8275  14.7326  14.7326  15.2793  16.4502  16.4867  16.4994  16.5084
    16.5084  16.6352  16.6352  16.6664  16.6664  16.7307  16.7736  17.0146
    17.0327  17.3409  17.3410  17.7441  17.7726  17.7800  17.8360  17.8360
    17.8500  17.8500  17.9224  18.1127  18.1804  18.4209  18.5340  18.5451
    18.5451  18.6945  18.7341  18.7726  18.8293  18.8293  18.8546  18.8546
    18.9576  18.9577  18.9577  19.0717  19.1360  19.7259  19.7259  20.4633
    20.5375  20.6317  20.7070  20.7070  20.8771  20.8771  20.9053  20.9170
    21.0770  21.0770  21.1095  21.2303  21.2416  21.2776  21.2777  21.3046
    21.3047  21.5365  21.5372  21.5434  21.6630  21.7835

          k = 0.0560 0.3923-0.5043 ( 12232 PWs)   bands (ev):

   -51.5629 -51.5625 -51.5221 -51.5217 -51.4394 -51.4390 -51.4298 -51.4294
   -51.4191 -51.4187 -51.4155 -51.4151 -51.3606 -51.3602 -51.3325 -51.3321
   -23.2471 -23.2471 -23.2051 -23.2048 -23.2044 -23.2043 -23.2017 -23.2014
   -23.1917 -23.1917 -23.1841 -23.1839 -22.9765 -22.9764 -22.9146 -22.9142
   -22.8476 -22.8472 -22.8339 -22.8338 -22.8033 -22.8031 -22.8015 -22.8015
   -22.7782 -22.7781 -22.7606 -22.7605 -22.7338 -22.7337 -22.6609 -22.6609
   -22.5578 -22.5574 -22.5016 -22.5012 -22.4834 -22.4832 -22.4804 -22.4802
   -22.4757 -22.4756 -22.4603 -22.4602 -22.3782 -22.3782 -22.3769 -22.3769
    14.2550  14.2555  15.0099  15.0103  16.5511  16.5513  16.5731  16.5734
    16.6013  16.6015  16.7596  16.7597  16.8058  16.8061  16.8903  16.8906
    17.0252  17.0256  17.7083  17.7086  17.7636  17.7637  17.7669  17.7670
    17.8201  17.8204  17.8848  17.8851  18.3365  18.3365  18.5714  18.5715
    18.6161  18.6161  18.6516  18.6517  18.6577  18.6578  18.7121  18.7122
    18.9923  18.9924  19.0082  19.0083  19.3215  19.3216  20.1133  20.1133
    20.6253  20.6254  20.7634  20.7634  20.9321  20.9323  21.0281  21.0283
    21.1023  21.1025  21.1082  21.1083  21.1090  21.1092  21.4086  21.4089
    21.4204  21.4207  21.4391  21.4392  21.6231  21.6234

          k = 0.0560-0.5043-0.5043 ( 12260 PWs)   bands (ev):

   -51.5442 -51.5440 -51.5437 -51.5436 -51.4348 -51.4346 -51.4344 -51.4342
   -51.4173 -51.4171 -51.4168 -51.4167 -51.3452 -51.3449 -51.3447 -51.3446
   -23.2250 -23.2250 -23.2249 -23.2249 -23.2013 -23.2012 -23.2011 -23.2010
   -23.1906 -23.1906 -23.1904 -23.1903 -22.8900 -22.8900 -22.8900 -22.8899
   -22.8840 -22.8838 -22.8836 -22.8834 -22.8261 -22.8261 -22.8260 -22.8260
   -22.7512 -22.7512 -22.7511 -22.7511 -22.7193 -22.7193 -22.7192 -22.7192
   -22.5272 -22.5271 -22.5269 -22.5267 -22.4748 -22.4748 -22.4747 -22.4746
   -22.4695 -22.4695 -22.4694 -22.4693 -22.3717 -22.3717 -22.3716 -22.3716
    14.6207  14.6208  14.6211  14.6212  16.6066  16.6066  16.6069  16.6069
    16.7447  16.7447  16.7449  16.7450  16.9045  16.9046  16.9047  16.9048
    17.3545  17.3545  17.3549  17.3549  17.7476  17.7476  17.7478  17.7478
    17.7998  17.7998  17.8000  17.8000  18.4509  18.4509  18.4510  18.4510
    18.5299  18.5300  18.5300  18.5301  18.6214  18.6215  18.6215  18.6216
    18.9736  18.9738  18.9738  18.9738  19.6979  19.6979  19.6979  19.6979
    20.7326  20.7328  20.7328  20.7329  21.0921  21.0921  21.0922  21.0922
    21.1444  21.1445  21.1446  21.1446  21.2582  21.2583  21.2585  21.2586
    21.2630  21.2631  21.2633  21.2634  21.5929  21.5934

          k = 0.1681 0.1681 0.1681 ( 12203 PWs)   bands (ev):

   -51.6384 -51.4920 -51.4919 -51.4919 -51.4398 -51.4397 -51.4397 -51.4141
   -51.4137 -51.4137 -51.4136 -51.4067 -51.3955 -51.3954 -51.3954 -51.2792
   -23.3479 -23.3479 -23.3479 -23.3086 -23.3086 -23.3085 -23.0998 -23.0786
   -23.0786 -23.0786 -23.0723 -23.0723 -22.9904 -22.9904 -22.9755 -22.9185
   -22.9185 -22.9184 -22.8092 -22.8092 -22.8092 -22.7336 -22.7336 -22.7309
   -22.7309 -22.7309 -22.6871 -22.6871 -22.6870 -22.6747 -22.6747 -22.6747
   -22.6227 -22.6226 -22.6226 -22.6214 -22.5295 -22.5295 -22.5295 -22.4798
   -22.4289 -22.4289 -22.4288 -22.3900 -22.3900 -22.3900 -22.3779 -22.3779
    12.7136  15.5727  15.5727  15.5727  15.7996  15.7996  15.7996  15.9837
    15.9837  15.9837  15.9950  15.9950  16.7562  16.7562  16.7563  17.2988
    17.6108  17.6108  17.6108  17.6590  17.6590  17.7638  17.7638  17.7638
    17.8948  17.8948  17.8948  18.0823  18.1141  18.1141  18.6567  18.6567
    18.6567  19.1567  19.1568  19.1568  19.1780  19.1780  19.6605  19.6605
    19.6605  19.7033  19.8581  19.8582  19.8582  20.0888  20.0888  20.0888
    20.2836  20.2836  20.2837  20.4474  20.4474  20.4474  21.1653  21.1653
    21.1653  21.2692  21.2692  21.2693  21.3949  21.3949  21.4749  21.4749
    21.4750  21.8044  21.8044  21.8045  21.8500  21.8511

          k = 0.1681 0.1681 0.2802 ( 12212 PWs)   bands (ev):

   -51.6254 -51.5244 -51.4868 -51.4868 -51.4501 -51.4501 -51.4368 -51.4182
   -51.4124 -51.4078 -51.4077 -51.4066 -51.3962 -51.3962 -51.3669 -51.2883
   -23.3261 -23.3261 -23.3175 -23.2868 -23.2613 -23.2613 -23.1379 -23.1273
   -23.1273 -23.1050 -23.0946 -23.0727 -23.0498 -22.9814 -22.9814 -22.9478
   -22.9363 -22.8694 -22.8436 -22.8122 -22.8121 -22.7625 -22.7521 -22.7521
   -22.7458 -22.7416 -22.6906 -22.6608 -22.6607 -22.6532 -22.6351 -22.6350
   -22.6279 -22.6279 -22.5745 -22.5648 -22.5358 -22.4923 -22.4923 -22.4843
   -22.4573 -22.4573 -22.4419 -22.4187 -22.3979 -22.3937 -22.3937 -22.3790
    12.9789  14.9902  15.6793  15.6793  15.8145  15.8146  16.0290  16.1285
    16.1367  16.1367  16.1535  16.1910  16.7870  16.7870  16.8358  17.2024
    17.2345  17.5067  17.6116  17.6559  17.6559  17.7229  17.8272  17.8582
    17.8582  17.9277  18.0678  18.0678  18.1911  18.3732  18.5009  18.5009
    18.8575  18.9394  18.9394  19.0437  19.0784  19.1443  19.3492  19.3492
    19.3647  19.3647  19.6373  19.7995  19.7995  19.8282  19.8886  19.8952
    20.2276  20.3701  20.3701  20.5563  20.5563  20.7543  20.8835  21.1192
    21.1193  21.2394  21.3547  21.3984  21.3984  21.4378  21.4820  21.5018
    21.5028  21.5028  21.7850  21.7906  21.8127  21.8487

          k = 0.1681 0.1681 0.3923 ( 12214 PWs)   bands (ev):

   -51.6066 -51.5551 -51.4795 -51.4795 -51.4606 -51.4605 -51.4328 -51.4230
   -51.4107 -51.4075 -51.4032 -51.4031 -51.3976 -51.3976 -51.3414 -51.3018
   -23.2892 -23.2892 -23.2732 -23.2561 -23.2004 -23.2004 -23.1842 -23.1842
   -23.1785 -23.1488 -23.1182 -23.1109 -23.0549 -23.0548 -23.0170 -22.9253
   -22.9010 -22.8929 -22.8049 -22.8049 -22.8044 -22.7948 -22.7726 -22.7726
   -22.7634 -22.7434 -22.7105 -22.6493 -22.6493 -22.6336 -22.6335 -22.6048
   -22.5834 -22.5834 -22.5796 -22.5307 -22.5122 -22.4931 -22.4930 -22.4632
   -22.4607 -22.4567 -22.4566 -22.4451 -22.4274 -22.4060 -22.4060 -22.3910
    13.3620  14.3989  15.7806  15.7807  15.8374  15.8374  16.3240  16.3240
    16.3252  16.3508  16.3616  16.4718  16.7009  16.7009  16.7599  16.8864
    17.0458  17.1440  17.6057  17.6744  17.7563  17.7657  17.8724  17.8724
    18.0130  18.0131  18.2638  18.2639  18.3855  18.3856  18.5017  18.6763
    18.7882  18.7882  18.8887  18.8887  18.9732  18.9801  19.0046  19.0228
    19.0229  19.0993  19.2894  19.2894  19.3400  19.3485  20.1024  20.2018
    20.4709  20.6047  20.6764  20.6764  20.6896  20.6896  20.9628  20.9628
    21.0005  21.0190  21.1223  21.2326  21.2326  21.4639  21.5592  21.6021
    21.6921  21.7148  21.8115  21.8115  21.8229  21.8419

          k = 0.1681 0.1681-0.5043 ( 12196 PWs)   bands (ev):

   -51.5831 -51.5827 -51.4708 -51.4708 -51.4704 -51.4703 -51.4282 -51.4279
   -51.4092 -51.4087 -51.4000 -51.4000 -51.3997 -51.3996 -51.3198 -51.3194
   -23.2402 -23.2402 -23.2402 -23.2402 -23.2192 -23.2188 -23.2166 -23.2162
   -23.1301 -23.1301 -23.1300 -23.1300 -23.1196 -23.1195 -22.9753 -22.9749
   -22.8522 -22.8520 -22.8456 -22.8454 -22.7909 -22.7909 -22.7905 -22.7905
   -22.7299 -22.7295 -22.6821 -22.6820 -22.6406 -22.6406 -22.6403 -22.6402
   -22.5354 -22.5353 -22.5353 -22.5353 -22.5148 -22.5145 -22.4932 -22.4930
   -22.4661 -22.4657 -22.4273 -22.4273 -22.4273 -22.4273 -22.4135 -22.4134
    13.8440  13.8445  15.8350  15.8350  15.8353  15.8353  16.5248  16.5249
    16.5250  16.5251  16.5799  16.5803  16.5811  16.5814  16.7363  16.7367
    16.7815  16.7819  17.6307  17.6310  17.7178  17.7180  18.2031  18.2032
    18.2035  18.2035  18.2084  18.2084  18.2085  18.2086  18.7561  18.7561
    18.7562  18.7562  18.8974  18.8975  18.9135  18.9135  18.9136  18.9136
    18.9688  18.9688  19.0072  19.0074  19.0447  19.0450  20.3419  20.3420
    20.5779  20.5780  20.7521  20.7524  20.8125  20.8126  20.8126  20.8126
    20.9882  20.9883  20.9883  20.9884  21.5314  21.5317  21.5810  21.5813
    21.6337  21.6341  21.7469  21.7473  21.8330  21.8334

          k = 0.1681 0.2802 0.2802 ( 12207 PWs)   bands (ev):

   -51.6131 -51.5174 -51.5174 -51.4818 -51.4656 -51.4467 -51.4466 -51.4239
   -51.4069 -51.4069 -51.4052 -51.3968 -51.3965 -51.3696 -51.3695 -51.2967
   -23.3129 -23.2974 -23.2973 -23.2466 -23.2466 -23.2068 -23.1589 -23.1506
   -23.1472 -23.1472 -23.1086 -23.0886 -23.0451 -23.0235 -22.9672 -22.9089
   -22.9088 -22.8910 -22.8718 -22.8718 -22.8328 -22.7893 -22.7892 -22.7840
   -22.7193 -22.6874 -22.6873 -22.6742 -22.6741 -22.6371 -22.6353 -22.6222
   -22.5959 -22.5922 -22.5713 -22.5712 -22.5396 -22.4928 -22.4718 -22.4599
   -22.4598 -22.4539 -22.4538 -22.4198 -22.4198 -22.4105 -22.3885 -22.3793
    13.2358  15.1431  15.1431  15.7380  15.8160  16.0489  16.0489  16.2566
    16.2983  16.3095  16.3395  16.3395  16.8778  16.8778  16.9008  17.1613
    17.3374  17.3374  17.4419  17.5985  17.6831  17.8078  17.8078  17.9226
    17.9622  17.9623  17.9748  18.0555  18.2628  18.3194  18.3423  18.6572
    18.6572  18.8211  18.8624  18.8624  18.9431  18.9638  19.0687  19.1268
    19.2180  19.2181  19.4189  19.4189  19.4909  19.5353  19.5353  20.1148
    20.4920  20.4920  20.5419  20.7029  20.7879  20.7880  20.9738  20.9981
    21.2328  21.2329  21.2350  21.2351  21.2474  21.3781  21.4247  21.4248
    21.4462  21.7412  21.7439  21.7461  21.7547  21.8285

          k = 0.1681 0.2802 0.3923 ( 12207 PWs)   bands (ev):

   -51.5953 -51.5464 -51.5074 -51.4808 -51.4748 -51.4567 -51.4419 -51.4300
   -51.4060 -51.4047 -51.4028 -51.3979 -51.3871 -51.3737 -51.3459 -51.3092
   -23.2849 -23.2654 -23.2558 -23.2267 -23.1967 -23.1952 -23.1853 -23.1808
   -23.1530 -23.1440 -23.1398 -23.1303 -23.0777 -23.0165 -22.9854 -22.9353
   -22.9269 -22.8607 -22.8425 -22.8392 -22.8366 -22.8298 -22.8140 -22.8134
   -22.7400 -22.7138 -22.6904 -22.6684 -22.6619 -22.6450 -22.6331 -22.6134
   -22.5814 -22.5639 -22.5510 -22.5344 -22.5197 -22.5090 -22.4840 -22.4686
   -22.4579 -22.4520 -22.4379 -22.4257 -22.4253 -22.4223 -22.3920 -22.3844
    13.6048  14.5910  15.3293  15.6425  15.9577  16.0686  16.3771  16.4265
    16.4762  16.5250  16.5298  16.6088  16.8002  16.8063  16.8857  17.0442
    17.0835  17.1633  17.6161  17.6709  17.7121  17.7480  17.8467  17.8526
    17.9394  18.0493  18.0775  18.1978  18.2494  18.4054  18.4438  18.5195
    18.5932  18.6869  18.7306  18.7775  18.8276  18.8516  18.8676  18.8909
    18.9969  18.9979  19.0015  19.0098  19.1290  19.1766  19.7967  20.3697
    20.5545  20.6842  20.7807  20.7827  20.7865  20.8417  20.8593  20.9418
    21.0974  21.1025  21.1115  21.2634  21.2642  21.3736  21.4875  21.5359
    21.5998  21.6479  21.6642  21.7584  21.8249  21.8257

          k = 0.1681 0.2802-0.5043 ( 12186 PWs)   bands (ev):

   -51.5729 -51.5725 -51.4952 -51.4948 -51.4665 -51.4661 -51.4364 -51.4360
   -51.4053 -51.4049 -51.4000 -51.3996 -51.3797 -51.3793 -51.3258 -51.3254
   -23.2447 -23.2446 -23.2259 -23.2258 -23.2041 -23.2038 -23.2035 -23.2032
   -23.1465 -23.1464 -23.1373 -23.1372 -23.0644 -23.0643 -22.9761 -22.9757
   -22.8876 -22.8874 -22.8404 -22.8401 -22.8316 -22.8314 -22.7921 -22.7919
   -22.7481 -22.7480 -22.7048 -22.7045 -22.6528 -22.6525 -22.5955 -22.5952
   -22.5815 -22.5814 -22.5146 -22.5146 -22.5069 -22.5065 -22.4852 -22.4849
   -22.4750 -22.4746 -22.4361 -22.4361 -22.4044 -22.4044 -22.3987 -22.3987
    14.0658  14.0663  15.5058  15.5062  16.0479  16.0482  16.6265  16.6268
    16.6521  16.6523  16.7248  16.7249  16.7673  16.7677  16.7792  16.7795
    16.8877  16.8880  17.6949  17.6951  17.7915  17.7916  17.9739  17.9742
    18.0062  18.0065  18.0851  18.0853  18.2291  18.2292  18.5948  18.5949
    18.7183  18.7185  18.7190  18.7191  18.7648  18.7650  18.7750  18.7750
    18.8428  18.8429  18.8685  18.8686  18.9307  18.9309  20.1433  20.1433
    20.6455  20.6455  20.7949  20.7949  20.9077  20.9080  20.9723  20.9724
    21.0413  21.0414  21.0517  21.0519  21.4626  21.4628  21.5183  21.5186
    21.5723  21.5726  21.6811  21.6815  21.8006  21.8009

          k = 0.1681 0.3923 0.3923 ( 12194 PWs)   bands (ev):

   -51.5788 -51.5340 -51.5339 -51.5004 -51.4682 -51.4512 -51.4512 -51.4374
   -51.4032 -51.4024 -51.4024 -51.3987 -51.3733 -51.3527 -51.3526 -51.3201
   -23.2655 -23.2323 -23.2322 -23.1947 -23.1946 -23.1926 -23.1895 -23.1895
   -23.1823 -23.1603 -23.1568 -23.1102 -23.0680 -22.9938 -22.9360 -22.9124
   -22.9124 -22.9076 -22.9075 -22.8643 -22.8612 -22.8611 -22.8526 -22.7902
   -22.7442 -22.6999 -22.6846 -22.6846 -22.6764 -22.6763 -22.6561 -22.5819
   -22.5805 -22.5344 -22.5344 -22.5293 -22.5209 -22.4923 -22.4795 -22.4794
   -22.4613 -22.4538 -22.4538 -22.4494 -22.4022 -22.4021 -22.3865 -22.3815
    13.9504  14.8479  14.8479  15.4069  16.1633  16.3862  16.3862  16.5487
    16.6110  16.7730  16.7804  16.7804  16.7843  16.7844  17.0367  17.0393
    17.1125  17.3412  17.3413  17.6229  17.7445  17.8241  17.8548  17.8548
    17.8956  17.8956  18.0523  18.1053  18.1448  18.1622  18.4670  18.4949
    18.4950  18.5474  18.6623  18.6623  18.6952  18.7116  18.7116  18.7414
    18.7505  18.7987  18.7988  18.9190  18.9372  19.4053  19.4053  20.1170
    20.6666  20.8214  20.9202  20.9202  20.9572  20.9789  20.9789  21.0077
    21.1577  21.2577  21.2687  21.2687  21.3100  21.3100  21.3441  21.3442
    21.5108  21.5614  21.5678  21.5717  21.6640  21.7728

          k = 0.1681 0.3923-0.5043 ( 12224 PWs)   bands (ev):

   -51.5583 -51.5579 -51.5186 -51.5182 -51.4604 -51.4600 -51.4448 -51.4444
   -51.4027 -51.4023 -51.4003 -51.3999 -51.3620 -51.3615 -51.3349 -51.3345
   -23.2343 -23.2342 -23.2092 -23.2090 -23.1945 -23.1942 -23.1851 -23.1848
   -23.1803 -23.1802 -23.1491 -23.1489 -22.9890 -22.9889 -22.9579 -22.9576
   -22.9061 -22.9060 -22.8866 -22.8863 -22.8721 -22.8720 -22.8256 -22.8256
   -22.7373 -22.7372 -22.6894 -22.6893 -22.6662 -22.6661 -22.6311 -22.6310
   -22.5555 -22.5552 -22.4969 -22.4968 -22.4943 -22.4939 -22.4899 -22.4896
   -22.4822 -22.4820 -22.4504 -22.4503 -22.3898 -22.3898 -22.3873 -22.3873
    14.3752  14.3756  15.1330  15.1333  16.3228  16.3231  16.6790  16.6793
    16.7147  16.7149  16.7417  16.7421  16.9654  16.9656  17.0213  17.0215
    17.0536  17.0540  17.7086  17.7090  17.7644  17.7647  17.7850  17.7851
    17.7901  17.7901  17.9573  17.9575  18.2956  18.2957  18.3528  18.3529
    18.4960  18.4962  18.5686  18.5688  18.5743  18.5743  18.6346  18.6347
    18.8158  18.8159  18.8481  18.8483  19.0517  19.0517  19.7237  19.7238
    20.8671  20.8672  20.9728  20.9729  21.0816  21.0818  21.1325  21.1327
    21.1494  21.1495  21.1563  21.1566  21.2568  21.2570  21.4299  21.4301
    21.4529  21.4532  21.6061  21.6065  21.6505  21.6507

          k = 0.1681-0.5043-0.5043 ( 12236 PWs)   bands (ev):

   -51.5400 -51.5398 -51.5396 -51.5394 -51.4531 -51.4529 -51.4527 -51.4525
   -51.4012 -51.4010 -51.4008 -51.4006 -51.3471 -51.3468 -51.3466 -51.3465
   -23.2116 -23.2116 -23.2116 -23.2115 -23.1965 -23.1964 -23.1963 -23.1962
   -23.1657 -23.1656 -23.1655 -23.1654 -22.9267 -22.9266 -22.9264 -22.9263
   -22.9079 -22.9079 -22.9078 -22.9078 -22.9003 -22.9003 -22.9002 -22.9002
   -22.6834 -22.6834 -22.6833 -22.6832 -22.6781 -22.6781 -22.6781 -22.6780
   -22.5215 -22.5213 -22.5211 -22.5209 -22.4857 -22.4857 -22.4856 -22.4855
   -22.4695 -22.4695 -22.4694 -22.4692 -22.3838 -22.3838 -22.3838 -22.3837
    14.7433  14.7434  14.7437  14.7438  16.5867  16.5867  16.5870  16.5870
    16.7168  16.7169  16.7171  16.7172  17.0997  17.0998  17.0999  17.0999
    17.3758  17.3758  17.3761  17.3762  17.6993  17.6993  17.6995  17.6995
    17.8626  17.8626  17.8627  17.8628  18.3307  18.3308  18.3308  18.3309
    18.4111  18.4111  18.4112  18.4112  18.5501  18.5502  18.5502  18.5503
    18.8051  18.8052  18.8053  18.8053  19.3517  19.3517  19.3517  19.3518
    21.0332  21.0333  21.0334  21.0334  21.1605  21.1606  21.1607  21.1608
    21.3042  21.3043  21.3045  21.3046  21.3076  21.3077  21.3078  21.3079
    21.3406  21.3406  21.3406  21.3406  21.5845  21.5847

          k = 0.2802 0.2802 0.2802 ( 12202 PWs)   bands (ev):

   -51.6013 -51.5107 -51.5107 -51.5107 -51.4614 -51.4613 -51.4613 -51.4318
   -51.4015 -51.3965 -51.3965 -51.3965 -51.3720 -51.3719 -51.3719 -51.3044
   -23.2837 -23.2837 -23.2837 -23.2002 -23.2002 -23.2001 -23.1685 -23.1631
   -23.1631 -23.1631 -23.0850 -23.0850 -23.0467 -23.0467 -22.9556 -22.9556
   -22.9555 -22.8958 -22.8958 -22.8958 -22.8417 -22.8282 -22.8282 -22.8282
   -22.6541 -22.6433 -22.6433 -22.6433 -22.6417 -22.6417 -22.6397 -22.6397
   -22.6396 -22.5761 -22.5761 -22.5761 -22.5149 -22.4844 -22.4844 -22.4843
   -22.4422 -22.4421 -22.4421 -22.4162 -22.4162 -22.4162 -22.4004 -22.4004
    13.4867  15.3157  15.3157  15.3157  15.9827  15.9827  15.9827  16.4226
    16.4226  16.4997  16.4997  16.4997  17.0379  17.0379  17.0380  17.1712
    17.3170  17.3171  17.3171  17.6675  17.6702  17.6702  17.8704  17.8704
    17.8705  18.1093  18.1094  18.1094  18.1464  18.1464  18.4831  18.4831
    18.4831  18.7123  18.7123  18.7123  18.8468  18.8468  18.8468  18.9053
    18.9053  19.1158  19.1158  19.1158  19.2118  19.2118  19.2118  20.3684
    20.5385  20.6654  20.6654  20.6654  20.9453  20.9453  20.9453  21.1370
    21.1370  21.1371  21.3446  21.3446  21.4133  21.4133  21.4133  21.5616
    21.5616  21.5616  21.7484  21.7484  21.7524  21.7551

          k = 0.2802 0.2802 0.3923 ( 12207 PWs)   bands (ev):

   -51.5844 -51.5381 -51.5012 -51.5011 -51.4758 -51.4758 -51.4554 -51.4401
   -51.3990 -51.3967 -51.3879 -51.3878 -51.3757 -51.3757 -51.3499 -51.3159
   -23.2577 -23.2577 -23.2407 -23.1919 -23.1903 -23.1903 -23.1760 -23.1609
   -23.1431 -23.1431 -23.1203 -23.1193 -23.0505 -23.0152 -23.0151 -22.9965
   -22.9543 -22.9016 -22.9016 -22.8827 -22.8806 -22.8630 -22.8629 -22.7907
   -22.7247 -22.6890 -22.6531 -22.6514 -22.6181 -22.6180 -22.5934 -22.5934
   -22.5852 -22.5852 -22.5706 -22.5207 -22.5149 -22.5149 -22.4960 -22.4806
   -22.4564 -22.4316 -22.4303 -22.4303 -22.4193 -22.4166 -22.4166 -22.3981
    13.8459  14.7942  15.5296  15.5296  15.8870  15.8870  16.3293  16.5874
    16.6380  16.6817  16.6817  16.7646  17.0141  17.0178  17.0179  17.0450
    17.1635  17.2146  17.5260  17.5260  17.6931  17.8059  17.9311  17.9499
    17.9622  17.9858  17.9859  18.2023  18.2024  18.3139  18.3139  18.3376
    18.5206  18.5207  18.5909  18.5909  18.6158  18.6620  18.7058  18.7059
    18.7682  18.8048  18.8049  18.8251  18.9027  18.9028  19.3922  20.0908
    20.6553  20.8373  20.8898  20.8898  21.0127  21.0127  21.0684  21.0685
    21.2001  21.2620  21.2796  21.3073  21.3074  21.3265  21.4762  21.4804
    21.6640  21.6658  21.7536  21.7537  21.7557  21.7603

          k = 0.2802 0.2802-0.5043 ( 12218 PWs)   bands (ev):

   -51.5633 -51.5629 -51.4895 -51.4895 -51.4892 -51.4891 -51.4483 -51.4479
   -51.3977 -51.3973 -51.3812 -51.3811 -51.3808 -51.3807 -51.3313 -51.3309
   -23.2244 -23.2244 -23.2244 -23.2243 -23.1859 -23.1855 -23.1838 -23.1835
   -23.1456 -23.1455 -23.0797 -23.0797 -23.0797 -23.0796 -23.0067 -23.0063
   -22.9406 -22.9404 -22.8893 -22.8893 -22.8890 -22.8890 -22.8019 -22.8019
   -22.7397 -22.7396 -22.6558 -22.6556 -22.5990 -22.5990 -22.5987 -22.5987
   -22.5515 -22.5514 -22.5514 -22.5513 -22.5085 -22.5081 -22.4843 -22.4841
   -22.4723 -22.4719 -22.4215 -22.4215 -22.4214 -22.4214 -22.4044 -22.4044
    14.2915  14.2920  15.7340  15.7340  15.7343  15.7343  16.7519  16.7524
    16.7976  16.7980  16.8571  16.8574  16.8652  16.8652  16.8654  16.8654
    17.0251  17.0254  17.7422  17.7425  17.8565  17.8566  17.8939  17.8939
    17.8943  17.8943  18.1417  18.1417  18.1418  18.1419  18.3124  18.3125
    18.5305  18.5307  18.6114  18.6115  18.6116  18.6116  18.6361  18.6362
    18.6362  18.6362  18.6822  18.6823  18.7280  18.7283  19.6947  19.6948
    20.9631  20.9632  21.0245  21.0248  21.0347  21.0347  21.0347  21.0347
    21.1171  21.1171  21.1173  21.1173  21.5097  21.5100  21.5680  21.5684
    21.6308  21.6312  21.6321  21.6324  21.7602  21.7605

          k = 0.2802 0.3923 0.3923 ( 12198 PWs)   bands (ev):

   -51.5688 -51.5263 -51.5263 -51.4943 -51.4923 -51.4688 -51.4687 -51.4503
   -51.3945 -51.3892 -51.3892 -51.3788 -51.3750 -51.3561 -51.3560 -51.3260
   -23.2376 -23.2189 -23.2189 -23.1887 -23.1807 -23.1806 -23.1672 -23.1488
   -23.1488 -23.1318 -23.1269 -23.0808 -23.0553 -23.0459 -23.0116 -22.9593
   -22.9592 -22.9440 -22.9439 -22.9313 -22.9191 -22.9190 -22.9069 -22.7937
   -22.7384 -22.6391 -22.6390 -22.6263 -22.6220 -22.6220 -22.5914 -22.5807
   -22.5558 -22.5512 -22.5450 -22.5310 -22.5309 -22.4988 -22.4987 -22.4892
   -22.4523 -22.4522 -22.4483 -22.4372 -22.4154 -22.4153 -22.4124 -22.4040
    14.1880  15.0668  15.0669  15.6535  15.7868  16.2302  16.2302  16.7328
    16.8238  16.8552  16.9519  16.9519  16.9993  16.9993  17.0279  17.2525
    17.2535  17.3353  17.3354  17.4543  17.7753  17.8878  17.8888  17.9080
    17.9080  17.9778  17.9779  18.0802  18.0885  18.1754  18.2477  18.4089
    18.4089  18.4138  18.4316  18.4316  18.4447  18.4492  18.4492  18.5671
    18.5671  18.6228  18.6310  18.6494  18.7127  19.0128  19.0128  19.6486
    20.9778  21.0241  21.0241  21.0510  21.0925  21.1831  21.2503  21.2633
    21.2634  21.2946  21.2946  21.3114  21.3887  21.3888  21.4577  21.5980
    21.6315  21.6315  21.6340  21.6638  21.7384  21.7499

          k = 0.2802 0.3923-0.5043 ( 12208 PWs)   bands (ev):

   -51.5494 -51.5490 -51.5116 -51.5112 -51.4814 -51.4810 -51.4602 -51.4598
   -51.3915 -51.3911 -51.3834 -51.3830 -51.3646 -51.3642 -51.3396 -51.3392
   -23.2095 -23.2094 -23.1987 -23.1985 -23.1718 -23.1714 -23.1592 -23.1591
   -23.1574 -23.1572 -23.1017 -23.1016 -23.0127 -23.0127 -23.0093 -23.0089
   -22.9735 -22.9734 -22.9413 -22.9410 -22.9376 -22.9375 -22.8686 -22.8686
   -22.6877 -22.6876 -22.6238 -22.6236 -22.6029 -22.6027 -22.5928 -22.5927
   -22.5513 -22.5510 -22.5239 -22.5238 -22.4975 -22.4971 -22.4899 -22.4897
   -22.4846 -22.4842 -22.4455 -22.4454 -22.4124 -22.4123 -22.4071 -22.4071
    14.6060  14.6065  15.3687  15.3691  16.0421  16.0424  16.6363  16.6367
    16.8782  16.8785  16.9323  16.9326  17.1082  17.1086  17.1466  17.1468
    17.2021  17.2023  17.7035  17.7038  17.7280  17.7284  17.8286  17.8286
    17.8331  17.8333  18.0392  18.0394  18.1202  18.1203  18.2221  18.2223
    18.3278  18.3280  18.3420  18.3422  18.4567  18.4568  18.4989  18.4990
    18.5494  18.5495  18.6225  18.6226  18.6894  18.6895  19.2723  19.2723
    21.1594  21.1596  21.1734  21.1735  21.2032  21.2035  21.2296  21.2298
    21.2634  21.2635  21.3222  21.3222  21.4921  21.4924  21.4952  21.4954
    21.5723  21.5725  21.5733  21.5737  21.6657  21.6661

          k = 0.2802-0.5043-0.5043 ( 12172 PWs)   bands (ev):

   -51.5320 -51.5318 -51.5316 -51.5314 -51.4716 -51.4714 -51.4712 -51.4710
   -51.3869 -51.3867 -51.3865 -51.3863 -51.3509 -51.3506 -51.3504 -51.3503
   -23.1849 -23.1849 -23.1849 -23.1848 -23.1763 -23.1762 -23.1761 -23.1759
   -23.1287 -23.1287 -23.1286 -23.1285 -22.9838 -22.9837 -22.9835 -22.9834
   -22.9716 -22.9716 -22.9715 -22.9715 -22.9408 -22.9408 -22.9408 -22.9407
   -22.6384 -22.6384 -22.6383 -22.6382 -22.6088 -22.6088 -22.6088 -22.6087
   -22.5122 -22.5121 -22.5119 -22.5117 -22.5030 -22.5030 -22.5029 -22.5028
   -22.4734 -22.4733 -22.4732 -22.4731 -22.4081 -22.4081 -22.4081 -22.4080
    14.9786  14.9787  14.9791  14.9792  16.3743  16.3744  16.3747  16.3748
    16.9274  16.9275  16.9277  16.9278  17.3404  17.3404  17.3405  17.3406
    17.4157  17.4157  17.4160  17.4161  17.6484  17.6484  17.6486  17.6487
    17.9404  17.9404  17.9405  17.9405  18.1398  18.1399  18.1399  18.1400
    18.3339  18.3339  18.3340  18.3340  18.3379  18.3380  18.3380  18.3380
    18.5587  18.5588  18.5588  18.5589  18.9195  18.9196  18.9196  18.9196
    21.2418  21.2419  21.2421  21.2422  21.3643  21.3644  21.3646  21.3647
    21.3737  21.3738  21.3738  21.3739  21.4254  21.4255  21.4256  21.4256
    21.5653  21.5654  21.5657  21.5658  21.6974  21.6974

          k = 0.3923 0.3923 0.3923 ( 12214 PWs)   bands (ev):

   -51.5544 -51.5153 -51.5153 -51.5153 -51.4858 -51.4857 -51.4857 -51.4631
   -51.3875 -51.3779 -51.3779 -51.3779 -51.3614 -51.3613 -51.3613 -51.3348
   -23.1967 -23.1967 -23.1967 -23.1698 -23.1697 -23.1697 -23.1458 -23.0995
   -23.0995 -23.0994 -23.0952 -23.0952 -23.0818 -23.0818 -22.9934 -22.9934
   -22.9934 -22.9918 -22.9918 -22.9917 -22.9676 -22.9676 -22.9676 -22.8558
   -22.6874 -22.5954 -22.5954 -22.5953 -22.5772 -22.5771 -22.5771 -22.5588
   -22.5588 -22.5324 -22.5324 -22.5324 -22.5247 -22.5247 -22.5246 -22.4931
   -22.4506 -22.4506 -22.4506 -22.4375 -22.4375 -22.4314 -22.4313 -22.4313
    14.5229  15.3635  15.3635  15.3635  15.9997  15.9997  15.9997  16.8062
    16.9726  16.9726  17.1135  17.1135  17.1136  17.2823  17.2823  17.2823
    17.3320  17.3320  17.3320  17.4292  17.8334  17.8334  17.9555  17.9555
    17.9979  17.9979  17.9979  18.0588  18.0588  18.0588  18.1252  18.1252
    18.1252  18.2958  18.2958  18.2958  18.3037  18.3037  18.3037  18.3577
    18.3577  18.3577  18.5258  18.5258  18.6418  18.6418  18.6418  19.2059
    21.1644  21.1644  21.1644  21.3331  21.3644  21.3644  21.3644  21.3789
    21.3789  21.3985  21.3985  21.3986  21.4383  21.4383  21.4383  21.6259
    21.6259  21.6590  21.6590  21.6593  21.6809  21.6810

          k = 0.3923 0.3923-0.5043 ( 12194 PWs)   bands (ev):

   -51.5365 -51.5361 -51.5017 -51.5017 -51.5014 -51.5013 -51.4753 -51.4749
   -51.3822 -51.3818 -51.3688 -51.3688 -51.3684 -51.3684 -51.3469 -51.3465
   -23.1753 -23.1752 -23.1751 -23.1751 -23.1443 -23.1439 -23.1378 -23.1377
   -23.1221 -23.1219 -23.0488 -23.0484 -23.0456 -23.0455 -23.0455 -23.0454
   -23.0275 -23.0274 -22.9968 -22.9968 -22.9966 -22.9966 -22.9236 -22.9235
   -22.6395 -22.6394 -22.5699 -22.5697 -22.5571 -22.5570 -22.5570 -22.5569
   -22.5464 -22.5464 -22.5462 -22.5462 -22.5049 -22.5048 -22.4999 -22.4995
   -22.4807 -22.4803 -22.4445 -22.4445 -22.4444 -22.4444 -22.4314 -22.4314
    14.9273  14.9277  15.6941  15.6941  15.6945  15.6945  16.4093  16.4097
    17.1180  17.1183  17.2085  17.2088  17.2353  17.2354  17.2356  17.2356
    17.4134  17.4137  17.6773  17.6773  17.6777  17.6777  17.8702  17.8703
    17.9111  17.9113  18.0140  18.0143  18.0150  18.0152  18.1305  18.1305
    18.1307  18.1307  18.2770  18.2771  18.2772  18.2773  18.3358  18.3359
    18.3359  18.3359  18.3987  18.3988  18.4139  18.4142  18.8428  18.8428
    21.2782  21.2785  21.3089  21.3089  21.3092  21.3092  21.4465  21.4465
    21.4465  21.4465  21.5076  21.5079  21.5291  21.5294  21.5961  21.5964
    21.6466  21.6469  21.6490  21.6491  21.6494  21.6494

          k = 0.3923-0.5043-0.5043 ( 12216 PWs)   bands (ev):

   -51.5205 -51.5203 -51.5201 -51.5199 -51.4895 -51.4893 -51.4891 -51.4889
   -51.3747 -51.3745 -51.3743 -51.3741 -51.3567 -51.3565 -51.3563 -51.3561
   -23.1462 -23.1461 -23.1461 -23.1461 -23.1423 -23.1423 -23.1421 -23.1420
   -23.0833 -23.0833 -23.0832 -23.0831 -23.0423 -23.0423 -23.0421 -23.0419
   -23.0377 -23.0377 -23.0377 -23.0377 -22.9846 -22.9846 -22.9845 -22.9845
   -22.5956 -22.5956 -22.5955 -22.5954 -22.5457 -22.5457 -22.5456 -22.5456
   -22.5273 -22.5273 -22.5272 -22.5271 -22.5015 -22.5014 -22.5013 -22.5011
   -22.4808 -22.4807 -22.4805 -22.4804 -22.4441 -22.4441 -22.4440 -22.4440
    15.3056  15.3057  15.3060  15.3061  16.0658  16.0659  16.0662  16.0663
    17.2160  17.2160  17.2163  17.2163  17.4693  17.4694  17.4697  17.4697
    17.5916  17.5916  17.5919  17.5919  17.5926  17.5926  17.5929  17.5929
    18.0333  18.0333  18.0334  18.0334  18.0632  18.0633  18.0633  18.0633
    18.0661  18.0662  18.0663  18.0664  18.2423  18.2423  18.2423  18.2424
    18.3170  18.3170  18.3171  18.3172  18.4918  18.4919  18.4919  18.4919
    21.3535  21.3536  21.3538  21.3539  21.4287  21.4289  21.4291  21.4292
    21.5332  21.5334  21.5336  21.5337  21.6183  21.6184  21.6185  21.6185
    21.6287  21.6288  21.6291  21.6292  21.6663  21.6664

          k =-0.5043-0.5043-0.5043 ( 12160 PWs)   bands (ev):

   -51.5062 -51.5060 -51.5060 -51.5058 -51.5058 -51.5055 -51.5055 -51.5054
   -51.3648 -51.3645 -51.3645 -51.3643 -51.3643 -51.3641 -51.3641 -51.3640
   -23.0968 -23.0968 -23.0968 -23.0967 -23.0967 -23.0967 -23.0967 -23.0965
   -23.0965 -23.0965 -23.0965 -23.0964 -23.0964 -23.0964 -23.0963 -23.0963
   -23.0336 -23.0336 -23.0335 -23.0335 -23.0334 -23.0334 -23.0334 -23.0332
   -22.5584 -22.5584 -22.5584 -22.5584 -22.5583 -22.5583 -22.5583 -22.5581
   -22.4902 -22.4902 -22.4902 -22.4901 -22.4901 -22.4901 -22.4901 -22.4899
   -22.4899 -22.4898 -22.4898 -22.4897 -22.4897 -22.4897 -22.4897 -22.4896
    15.6871  15.6872  15.6872  15.6873  15.6876  15.6877  15.6877  15.6878
    17.5302  17.5302  17.5302  17.5302  17.5303  17.5303  17.5303  17.5303
    17.5305  17.5305  17.5306  17.5306  17.5306  17.5306  17.5306  17.5306
    18.1220  18.1222  18.1222  18.1222  18.1222  18.1222  18.1222  18.1223
    18.1367  18.1367  18.1368  18.1368  18.1368  18.1368  18.1368  18.1368
    18.1369  18.1370  18.1370  18.1370  18.1370  18.1370  18.1370  18.1370
    21.4870  21.4870  21.4871  21.4871  21.4872  21.4872  21.4873  21.4873
    21.4873  21.4874  21.4875  21.4875  21.4875  21.4875  21.4875  21.4876
    21.8824  21.8824  21.8825  21.8826  21.8826  21.8826

 ------ SPIN DOWN ----------


          k = 0.0560 0.0560 0.0560 ( 12209 PWs)   bands (ev):

   -51.6586 -51.4621 -51.4621 -51.4620 -51.4276 -51.4275 -51.4275 -51.4270
   -51.4269 -51.4269 -51.4235 -51.4235 -51.4235 -51.4075 -51.4058 -51.2647
   -23.3822 -23.3821 -23.3821 -23.3775 -23.3775 -23.3774 -23.0642 -23.0642
   -23.0529 -22.9585 -22.9537 -22.9537 -22.9537 -22.9156 -22.9156 -22.8940
   -22.8940 -22.8940 -22.8276 -22.8276 -22.7836 -22.7360 -22.7359 -22.7359
   -22.7174 -22.7174 -22.7174 -22.6899 -22.6899 -22.6899 -22.6842 -22.6842
   -22.6842 -22.6748 -22.6747 -22.6747 -22.6575 -22.6575 -22.6575 -22.3812
   -22.3812 -22.3812 -22.3796 -22.3758 -22.3758 -22.3758 -22.3676 -22.3676
    12.2999  15.6658  15.6658  15.6658  15.6865  15.6865  15.6866  15.7626
    15.7626  16.0039  16.0039  16.0039  16.4268  16.4268  16.4268  17.6631
    17.7013  17.7013  17.7013  17.7179  17.7179  17.7179  17.7734  17.7734
    17.9540  17.9540  18.0191  18.0931  18.0932  18.0932  18.5696  18.5696
    18.5696  19.3071  19.3071  19.3650  19.6683  19.6683  19.6683  19.7899
    19.7899  19.7899  19.8961  19.8961  19.8961  20.0103  20.0103  20.0103
    20.9327  20.9327  20.9327  21.0232  21.0233  21.0233  21.2376  21.2376
    21.2377  21.2738  21.2738  21.2738  21.4530  21.4530  21.4530  21.4637
    21.4637  21.5162  21.5162  21.5163  21.8359  21.8359

          k = 0.0560 0.0560 0.1681 ( 12199 PWs)   bands (ev):

   -51.6516 -51.4971 -51.4604 -51.4603 -51.4310 -51.4310 -51.4268 -51.4268
   -51.4258 -51.4224 -51.4219 -51.4218 -51.4087 -51.4069 -51.3945 -51.2697
   -23.3680 -23.3680 -23.3664 -23.3621 -23.3533 -23.3532 -23.0711 -23.0530
   -23.0359 -23.0231 -23.0053 -23.0053 -23.0028 -23.0007 -22.9480 -22.9480
   -22.8863 -22.8377 -22.8239 -22.7967 -22.7770 -22.7412 -22.7355 -22.7355
   -22.7169 -22.7019 -22.6965 -22.6965 -22.6954 -22.6802 -22.6802 -22.6755
   -22.6755 -22.6712 -22.6711 -22.6151 -22.6131 -22.6130 -22.5991 -22.4065
   -22.3971 -22.3971 -22.3950 -22.3908 -22.3810 -22.3810 -22.3775 -22.3721
    12.4397  15.4471  15.6998  15.6998  15.7634  15.7634  15.7803  15.7999
    15.8351  15.8463  16.0430  16.0430  16.4566  16.4566  16.6672  17.5280
    17.6294  17.6530  17.6815  17.6873  17.6965  17.7611  17.7611  17.8106
    17.8107  17.8205  18.0557  18.0558  18.1919  18.1990  18.4713  18.4713
    19.0181  19.2737  19.2991  19.4091  19.4091  19.4397  19.4923  19.6227
    19.6228  19.6634  19.9956  19.9956  20.1390  20.1390  20.1772  20.2993
    20.4410  20.4411  20.6371  20.7356  20.7356  20.7472  20.8805  21.2158
    21.2158  21.3644  21.3660  21.3660  21.4679  21.4679  21.4782  21.5034
    21.5083  21.5136  21.5136  21.5431  21.8398  21.8691

          k = 0.0560 0.0560 0.2802 ( 12213 PWs)   bands (ev):

   -51.6380 -51.5314 -51.4571 -51.4571 -51.4361 -51.4360 -51.4256 -51.4256
   -51.4237 -51.4213 -51.4212 -51.4204 -51.4110 -51.4089 -51.3640 -51.2795
   -23.3355 -23.3354 -23.3353 -23.3321 -23.3111 -23.3111 -23.0963 -23.0865
   -23.0771 -23.0771 -23.0752 -23.0354 -23.0310 -23.0242 -23.0241 -23.0111
   -22.8572 -22.8553 -22.8347 -22.8262 -22.7466 -22.7318 -22.7318 -22.7243
   -22.7158 -22.7039 -22.7039 -22.6775 -22.6775 -22.6754 -22.6754 -22.6592
   -22.6446 -22.6124 -22.6123 -22.5590 -22.5577 -22.5576 -22.5443 -22.4516
   -22.4228 -22.4228 -22.4224 -22.4201 -22.3968 -22.3968 -22.3967 -22.3883
    12.7137  14.8238  15.7809  15.7809  15.8910  15.8910  15.9790  16.0006
    16.0026  16.0174  16.0847  16.0847  16.4635  16.4635  16.7191  17.1965
    17.3485  17.4192  17.5864  17.6472  17.6596  17.6599  17.8948  17.8948
    17.9766  17.9767  18.0817  18.0817  18.4213  18.4213  18.4886  18.5094
    19.0593  19.0593  19.2499  19.2514  19.2514  19.2776  19.2870  19.3668
    19.5497  19.7713  19.8125  19.8126  20.0509  20.0509  20.2952  20.3081
    20.3081  20.3420  20.3546  20.3546  20.3591  20.5128  20.6477  21.1703
    21.2301  21.2301  21.3594  21.3594  21.5259  21.5456  21.5799  21.5919
    21.5919  21.8150  21.8169  21.8397  21.8472  21.8786

          k = 0.0560 0.0560 0.3923 ( 12218 PWs)   bands (ev):

   -51.6182 -51.5639 -51.4527 -51.4526 -51.4416 -51.4416 -51.4242 -51.4242
   -51.4216 -51.4216 -51.4207 -51.4177 -51.4139 -51.4115 -51.3367 -51.2941
   -23.2904 -23.2887 -23.2864 -23.2863 -23.2533 -23.2533 -23.1681 -23.1638
   -23.1527 -23.1527 -23.1051 -23.1051 -23.0757 -23.0581 -22.9991 -22.9779
   -22.9097 -22.8885 -22.8242 -22.8028 -22.7545 -22.7431 -22.7262 -22.7262
   -22.7116 -22.7116 -22.6759 -22.6759 -22.6751 -22.6751 -22.6656 -22.5842
   -22.5758 -22.5545 -22.5544 -22.5125 -22.5077 -22.5048 -22.5048 -22.4943
   -22.4629 -22.4625 -22.4581 -22.4580 -22.4254 -22.4230 -22.4230 -22.4151
    13.1109  14.1963  15.8920  15.8920  16.0567  16.0567  16.0779  16.0779
    16.1917  16.2092  16.3082  16.3199  16.3881  16.3881  16.6207  16.8067
    17.0441  17.0617  17.5644  17.5896  17.6078  17.6188  18.0967  18.0967
    18.2088  18.2088  18.2723  18.2724  18.5086  18.5086  18.7433  18.7433
    18.8633  18.8813  18.8813  18.8838  19.2108  19.2109  19.2390  19.2779
    19.2880  19.2941  19.4177  19.4177  19.6978  19.7963  19.8028  20.1061
    20.1433  20.5988  20.5988  20.6363  20.6363  20.8907  20.8986  21.0454
    21.0513  21.0513  21.1814  21.1814  21.5910  21.6040  21.6884  21.7444
    21.7484  21.7534  21.8571  21.8793  21.8862  21.8964

          k = 0.0560 0.0560-0.5043 ( 12216 PWs)   bands (ev):

   -51.5933 -51.5930 -51.4475 -51.4475 -51.4472 -51.4471 -51.4229 -51.4229
   -51.4225 -51.4225 -51.4176 -51.4171 -51.4147 -51.4145 -51.3134 -51.3131
   -23.2334 -23.2330 -23.2329 -23.2325 -23.2242 -23.2241 -23.2241 -23.2241
   -23.1833 -23.1832 -23.1832 -23.1831 -23.0709 -23.0707 -22.9584 -22.9581
   -22.9370 -22.9367 -22.7891 -22.7888 -22.7736 -22.7733 -22.7195 -22.7195
   -22.7191 -22.7191 -22.6753 -22.6753 -22.6750 -22.6750 -22.5859 -22.5857
   -22.5182 -22.5179 -22.5144 -22.5141 -22.5023 -22.5023 -22.5022 -22.5021
   -22.4630 -22.4626 -22.4593 -22.4592 -22.4592 -22.4592 -22.4509 -22.4507
    13.6132  13.6137  16.0042  16.0042  16.0044  16.0044  16.2360  16.2360
    16.2362  16.2362  16.4310  16.4313  16.4691  16.4696  16.6746  16.6751
    16.6771  16.6774  17.5757  17.5759  17.5884  17.5886  18.3536  18.3536
    18.3537  18.3537  18.4685  18.4685  18.4686  18.4687  18.7238  18.7238
    18.7241  18.7241  18.9136  18.9136  18.9139  18.9139  19.2484  19.2486
    19.2795  19.2798  19.3044  19.3045  19.3167  19.3168  19.8840  19.8843
    20.5401  20.5404  20.8372  20.8372  20.8373  20.8373  20.9359  20.9359
    20.9359  20.9359  21.3203  21.3205  21.4761  21.4763  21.6665  21.6668
    21.6743  21.6746  21.8232  21.8236  21.8682  21.8686

          k = 0.0560 0.1681 0.1681 ( 12227 PWs)   bands (ev):

   -51.6448 -51.4944 -51.4943 -51.4587 -51.4410 -51.4298 -51.4298 -51.4261
   -51.4209 -51.4209 -51.4142 -51.4104 -51.4075 -51.3949 -51.3949 -51.2744
   -23.3634 -23.3529 -23.3529 -23.3397 -23.3396 -23.3198 -23.0837 -23.0639
   -23.0497 -23.0497 -23.0466 -23.0383 -23.0284 -23.0092 -22.9842 -22.9048
   -22.8796 -22.8796 -22.8182 -22.7953 -22.7952 -22.7468 -22.7297 -22.7297
   -22.7137 -22.7103 -22.7103 -22.7059 -22.6913 -22.6912 -22.6840 -22.6667
   -22.6656 -22.6325 -22.6173 -22.6172 -22.5794 -22.5576 -22.5576 -22.4429
   -22.4228 -22.4078 -22.4078 -22.3948 -22.3948 -22.3856 -22.3755 -22.3679
    12.5772  15.5056  15.5056  15.6801  15.8153  15.8153  15.8741  15.8753
    15.8753  15.9090  15.9266  16.0933  16.5018  16.7009  16.7009  17.4039
    17.5410  17.6323  17.6323  17.7378  17.7378  17.7560  17.7821  17.7821
    17.7873  17.9073  17.9354  17.9946  18.1855  18.2154  18.3575  18.8281
    18.8281  19.1968  19.2479  19.2479  19.2777  19.3059  19.4734  19.5643
    19.8867  19.8867  19.9519  19.9519  19.9731  20.0908  20.2194  20.2677
    20.2678  20.3528  20.3528  20.4696  20.4696  20.5929  20.9207  20.9208
    21.2218  21.3481  21.3947  21.3947  21.4353  21.4713  21.4714  21.4743
    21.4854  21.6906  21.7992  21.8073  21.8073  21.8492

          k = 0.0560 0.1681 0.2802 ( 12213 PWs)   bands (ev):

   -51.6315 -51.5277 -51.4891 -51.4555 -51.4516 -51.4347 -51.4274 -51.4249
   -51.4203 -51.4190 -51.4131 -51.4090 -51.4080 -51.3957 -51.3653 -51.2839
   -23.3406 -23.3232 -23.3221 -23.3130 -23.3003 -23.2690 -23.1163 -23.1160
   -23.0967 -23.0927 -23.0923 -23.0806 -23.0436 -23.0257 -22.9763 -22.9583
   -22.8830 -22.8528 -22.8096 -22.8029 -22.7880 -22.7869 -22.7504 -22.7357
   -22.7310 -22.7200 -22.7112 -22.6891 -22.6883 -22.6692 -22.6526 -22.6399
   -22.6207 -22.6098 -22.5842 -22.5623 -22.5361 -22.5068 -22.5060 -22.4965
   -22.4574 -22.4292 -22.4287 -22.4218 -22.4071 -22.4044 -22.3805 -22.3743
    12.8466  14.9041  15.5975  15.6925  15.8965  16.0016  16.0286  16.0372
    16.0464  16.0850  16.0893  16.1558  16.5361  16.6978  16.7635  17.2288
    17.2687  17.3802  17.6697  17.6974  17.7213  17.7336  17.7868  17.8610
    17.8871  17.9316  17.9753  18.1321  18.2671  18.3747  18.4364  18.6948
    18.9314  19.0470  19.0615  19.1244  19.1461  19.2003  19.2522  19.4377
    19.4994  19.6998  19.7230  19.8749  19.9509  20.0394  20.0399  20.0696
    20.2010  20.3152  20.3440  20.4090  20.4427  20.6360  20.6369  21.0550
    21.2004  21.2625  21.2985  21.3633  21.4054  21.4514  21.5038  21.5319
    21.7295  21.7916  21.7949  21.8269  21.8767  21.8824

          k = 0.0560 0.1681 0.3923 ( 12215 PWs)   bands (ev):

   -51.6122 -51.5593 -51.4817 -51.4624 -51.4511 -51.4402 -51.4242 -51.4234
   -51.4208 -51.4168 -51.4164 -51.4112 -51.4032 -51.3972 -51.3390 -51.2979
   -23.3014 -23.2802 -23.2765 -23.2746 -23.2466 -23.2035 -23.1849 -23.1722
   -23.1615 -23.1561 -23.1125 -23.1051 -23.0991 -23.0433 -22.9944 -22.9370
   -22.9063 -22.8482 -22.8414 -22.7915 -22.7772 -22.7699 -22.7479 -22.7470
   -22.7375 -22.7302 -22.7216 -22.6893 -22.6886 -22.6417 -22.6259 -22.6082
   -22.5729 -22.5635 -22.5539 -22.5365 -22.5123 -22.5005 -22.4940 -22.4614
   -22.4613 -22.4607 -22.4603 -22.4574 -22.4323 -22.4282 -22.3964 -22.3928
    13.2362  14.2958  15.6807  15.7160  16.0060  16.1657  16.1714  16.2160
    16.2437  16.2992  16.3461  16.3838  16.4839  16.5939  16.6716  16.8637
    17.0436  17.0833  17.6092  17.6513  17.6703  17.6811  17.9756  18.0381
    18.0559  18.0994  18.1233  18.2762  18.3905  18.5517  18.7043  18.7645
    18.7944  18.8341  18.9000  18.9134  19.0641  19.0738  19.1034  19.1579
    19.1621  19.2236  19.3063  19.4635  19.5561  19.5648  19.9102  20.3365
    20.3706  20.5659  20.5661  20.6438  20.6490  20.6731  20.8819  20.9584
    20.9883  21.0877  21.1838  21.2409  21.4034  21.5302  21.5639  21.6427
    21.6859  21.7118  21.7209  21.8072  21.8723  21.8756

          k = 0.0560 0.1681-0.5043 ( 12228 PWs)   bands (ev):

   -51.5880 -51.5877 -51.4728 -51.4724 -51.4460 -51.4456 -51.4221 -51.4218
   -51.4207 -51.4202 -51.4139 -51.4137 -51.3998 -51.3995 -51.3165 -51.3162
   -23.2483 -23.2482 -23.2269 -23.2266 -23.2256 -23.2252 -23.2195 -23.2195
   -23.1825 -23.1824 -23.1268 -23.1267 -23.1066 -23.1065 -22.9543 -22.9540
   -22.8919 -22.8917 -22.8090 -22.8087 -22.7660 -22.7657 -22.7637 -22.7634
   -22.7398 -22.7395 -22.6891 -22.6888 -22.6405 -22.6404 -22.6330 -22.6327
   -22.5512 -22.5512 -22.5125 -22.5122 -22.5036 -22.5033 -22.4937 -22.4936
   -22.4688 -22.4685 -22.4574 -22.4574 -22.4233 -22.4233 -22.4220 -22.4219
    13.7277  13.7281  15.7205  15.7208  16.1121  16.1124  16.3418  16.3420
    16.4159  16.4161  16.4758  16.4762  16.5532  16.5536  16.7108  16.7112
    16.7220  16.7224  17.6147  17.6150  17.6478  17.6480  18.2241  18.2243
    18.2488  18.2491  18.2851  18.2853  18.3702  18.3706  18.7435  18.7436
    18.8089  18.8091  18.8931  18.8933  19.0231  19.0233  19.0520  19.0521
    19.1094  19.1095  19.1470  19.1471  19.1959  19.1961  20.1258  20.1260
    20.6583  20.6585  20.7155  20.7155  20.8776  20.8776  20.9398  20.9399
    20.9732  20.9733  20.9906  20.9907  21.3885  21.3887  21.6206  21.6210
    21.6399  21.6403  21.7823  21.7826  21.8702  21.8705

          k = 0.0560 0.2802 0.2802 ( 12204 PWs)   bands (ev):

   -51.6188 -51.5206 -51.5206 -51.4676 -51.4524 -51.4322 -51.4321 -51.4237
   -51.4187 -51.4186 -51.4164 -51.4099 -51.3963 -51.3682 -51.3682 -51.2926
   -23.3278 -23.2964 -23.2963 -23.2793 -23.2792 -23.2104 -23.1439 -23.1409
   -23.1409 -23.1229 -23.1208 -23.1204 -23.0799 -23.0061 -22.9341 -22.8844
   -22.8826 -22.8826 -22.8424 -22.8424 -22.8008 -22.7673 -22.7579 -22.7489
   -22.7489 -22.7264 -22.7263 -22.7097 -22.7097 -22.7013 -22.6300 -22.5965
   -22.5693 -22.5692 -22.5678 -22.5596 -22.5479 -22.5073 -22.4999 -22.4616
   -22.4615 -22.4413 -22.4412 -22.4280 -22.4280 -22.4220 -22.3745 -22.3687
    13.1061  15.0472  15.0473  15.6113  16.1176  16.1176  16.1665  16.1907
    16.2114  16.2114  16.2511  16.2609  16.6296  16.7688  16.7688  17.1919
    17.2830  17.3700  17.3700  17.7377  17.8031  17.8031  17.8358  17.8560
    17.8560  17.8702  17.9519  18.1147  18.3176  18.3577  18.4143  18.8023
    18.8023  18.9354  18.9354  18.9522  18.9905  18.9952  19.0582  19.2043
    19.4826  19.4827  19.5637  19.5638  19.7342  19.8001  19.8001  19.9378
    20.4146  20.4146  20.4975  20.5506  20.5995  20.5995  20.8761  21.0027
    21.0027  21.1949  21.3287  21.3287  21.3754  21.3948  21.3948  21.4155
    21.4976  21.7325  21.7361  21.7362  21.8728  21.8830

          k = 0.0560 0.2802 0.3923 ( 12210 PWs)   bands (ev):

[...]
    21.1494  21.1495  21.1560  21.1562  21.2570  21.2572  21.4297  21.4299
    21.4525  21.4528  21.6055  21.6058  21.6504  21.6506

          k = 0.1681-0.5043-0.5043 ( 12236 PWs)   bands (ev):

   -51.5397 -51.5396 -51.5393 -51.5393 -51.4528 -51.4527 -51.4524 -51.4524
   -51.4009 -51.4008 -51.4006 -51.4005 -51.3467 -51.3467 -51.3464 -51.3463
   -23.2116 -23.2115 -23.2115 -23.2115 -23.1964 -23.1964 -23.1962 -23.1962
   -23.1656 -23.1656 -23.1654 -23.1654 -22.9266 -22.9266 -22.9263 -22.9263
   -22.9078 -22.9078 -22.9078 -22.9077 -22.9002 -22.9002 -22.9002 -22.9002
   -22.6833 -22.6833 -22.6832 -22.6832 -22.6781 -22.6781 -22.6780 -22.6780
   -22.5213 -22.5213 -22.5210 -22.5210 -22.4856 -22.4856 -22.4855 -22.4855
   -22.4695 -22.4694 -22.4693 -22.4692 -22.3838 -22.3838 -22.3837 -22.3837
    14.7425  14.7427  14.7429  14.7431  16.5862  16.5863  16.5865  16.5866
    16.7161  16.7162  16.7164  16.7165  17.0996  17.0996  17.0997  17.0998
    17.3749  17.3750  17.3753  17.3754  17.6988  17.6989  17.6990  17.6991
    17.8624  17.8625  17.8626  17.8626  18.3308  18.3308  18.3308  18.3308
    18.4114  18.4114  18.4115  18.4115  18.5499  18.5499  18.5500  18.5500
    18.8051  18.8052  18.8052  18.8052  19.3519  19.3520  19.3520  19.3520
    21.0334  21.0334  21.0335  21.0335  21.1601  21.1601  21.1603  21.1603
    21.3038  21.3039  21.3041  21.3042  21.3075  21.3076  21.3077  21.3078
    21.3409  21.3410  21.3410  21.3410  21.5838  21.5840

          k = 0.2802 0.2802 0.2802 ( 12202 PWs)   bands (ev):

   -51.6011 -51.5105 -51.5105 -51.5104 -51.4612 -51.4612 -51.4611 -51.4316
   -51.4013 -51.3963 -51.3963 -51.3962 -51.3717 -51.3717 -51.3717 -51.3042
   -23.2837 -23.2836 -23.2836 -23.2002 -23.2002 -23.2001 -23.1685 -23.1630
   -23.1630 -23.1630 -23.0850 -23.0850 -23.0466 -23.0466 -22.9555 -22.9555
   -22.9555 -22.8958 -22.8957 -22.8957 -22.8417 -22.8282 -22.8282 -22.8282
   -22.6541 -22.6433 -22.6433 -22.6433 -22.6417 -22.6417 -22.6396 -22.6396
   -22.6396 -22.5761 -22.5760 -22.5760 -22.5148 -22.4843 -22.4843 -22.4843
   -22.4421 -22.4421 -22.4421 -22.4162 -22.4161 -22.4161 -22.4004 -22.4004
    13.4859  15.3149  15.3149  15.3150  15.9822  15.9822  15.9822  16.4217
    16.4217  16.4993  16.4993  16.4993  17.0372  17.0372  17.0372  17.1713
    17.3163  17.3163  17.3163  17.6671  17.6702  17.6702  17.8707  17.8707
    17.8707  18.1095  18.1095  18.1095  18.1461  18.1461  18.4830  18.4830
    18.4830  18.7125  18.7125  18.7126  18.8460  18.8461  18.8461  18.9056
    18.9056  19.1154  19.1154  19.1154  19.2120  19.2120  19.2120  20.3688
    20.5388  20.6650  20.6650  20.6650  20.9455  20.9455  20.9455  21.1369
    21.1369  21.1369  21.3439  21.3439  21.4129  21.4129  21.4130  21.5619
    21.5619  21.5619  21.7477  21.7478  21.7479  21.7546

          k = 0.2802 0.2802 0.3923 ( 12207 PWs)   bands (ev):

   -51.5842 -51.5379 -51.5010 -51.5009 -51.4756 -51.4756 -51.4552 -51.4399
   -51.3988 -51.3965 -51.3876 -51.3876 -51.3755 -51.3755 -51.3497 -51.3157
   -23.2577 -23.2577 -23.2406 -23.1919 -23.1903 -23.1903 -23.1760 -23.1608
   -23.1431 -23.1430 -23.1202 -23.1193 -23.0504 -23.0151 -23.0151 -22.9964
   -22.9543 -22.9015 -22.9015 -22.8827 -22.8805 -22.8629 -22.8629 -22.7907
   -22.7246 -22.6890 -22.6530 -22.6513 -22.6180 -22.6180 -22.5934 -22.5933
   -22.5851 -22.5851 -22.5706 -22.5206 -22.5149 -22.5148 -22.4960 -22.4805
   -22.4563 -22.4316 -22.4303 -22.4302 -22.4193 -22.4165 -22.4165 -22.3981
    13.8451  14.7934  15.5289  15.5289  15.8864  15.8865  16.3289  16.5865
    16.6371  16.6812  16.6812  16.7643  17.0133  17.0172  17.0172  17.0442
    17.1635  17.2143  17.5253  17.5253  17.6932  17.8061  17.9308  17.9499
    17.9621  17.9861  17.9861  18.2022  18.2022  18.3139  18.3139  18.3372
    18.5201  18.5202  18.5910  18.5910  18.6159  18.6622  18.7053  18.7055
    18.7685  18.8046  18.8046  18.8253  18.9028  18.9028  19.3924  20.0910
    20.6557  20.8368  20.8894  20.8894  21.0128  21.0128  21.0684  21.0684
    21.1995  21.2622  21.2800  21.3070  21.3070  21.3263  21.4756  21.4801
    21.6636  21.6655  21.7530  21.7531  21.7551  21.7597

          k = 0.2802 0.2802-0.5043 ( 12218 PWs)   bands (ev):

   -51.5630 -51.5627 -51.4893 -51.4893 -51.4889 -51.4889 -51.4481 -51.4477
   -51.3974 -51.3971 -51.3809 -51.3809 -51.3806 -51.3805 -51.3311 -51.3308
   -23.2244 -23.2244 -23.2243 -23.2243 -23.1858 -23.1854 -23.1837 -23.1835
   -23.1456 -23.1455 -23.0797 -23.0797 -23.0796 -23.0795 -23.0067 -23.0063
   -22.9406 -22.9404 -22.8892 -22.8892 -22.8890 -22.8890 -22.8019 -22.8019
   -22.7396 -22.7395 -22.6558 -22.6556 -22.5989 -22.5989 -22.5987 -22.5987
   -22.5514 -22.5514 -22.5513 -22.5512 -22.5084 -22.5081 -22.4843 -22.4841
   -22.4722 -22.4718 -22.4215 -22.4214 -22.4214 -22.4214 -22.4043 -22.4043
    14.2908  14.2912  15.7334  15.7334  15.7337  15.7337  16.7516  16.7520
    16.7968  16.7972  16.8563  16.8566  16.8647  16.8647  16.8649  16.8649
    17.0250  17.0253  17.7423  17.7426  17.8564  17.8565  17.8932  17.8933
    17.8936  17.8936  18.1418  18.1419  18.1420  18.1421  18.3122  18.3123
    18.5300  18.5302  18.6113  18.6114  18.6114  18.6115  18.6361  18.6361
    18.6362  18.6363  18.6825  18.6826  18.7282  18.7284  19.6950  19.6950
    20.9635  20.9635  21.0240  21.0242  21.0347  21.0347  21.0347  21.0347
    21.1167  21.1168  21.1169  21.1170  21.5095  21.5098  21.5676  21.5679
    21.6302  21.6305  21.6325  21.6327  21.7596  21.7600

          k = 0.2802 0.3923 0.3923 ( 12198 PWs)   bands (ev):

   -51.5686 -51.5261 -51.5260 -51.4941 -51.4920 -51.4685 -51.4685 -51.4501
   -51.3943 -51.3890 -51.3889 -51.3786 -51.3748 -51.3559 -51.3558 -51.3258
   -23.2376 -23.2189 -23.2188 -23.1886 -23.1806 -23.1806 -23.1671 -23.1488
   -23.1487 -23.1318 -23.1269 -23.0808 -23.0553 -23.0459 -23.0116 -22.9592
   -22.9592 -22.9440 -22.9439 -22.9312 -22.9190 -22.9190 -22.9069 -22.7937
   -22.7384 -22.6390 -22.6390 -22.6263 -22.6220 -22.6219 -22.5914 -22.5806
   -22.5558 -22.5511 -22.5450 -22.5309 -22.5309 -22.4987 -22.4987 -22.4891
   -22.4522 -22.4522 -22.4482 -22.4372 -22.4153 -22.4153 -22.4124 -22.4040
    14.1872  15.0661  15.0661  15.6528  15.7862  16.2297  16.2297  16.7320
    16.8232  16.8544  16.9515  16.9515  16.9986  16.9986  17.0274  17.2520
    17.2536  17.3346  17.3346  17.4536  17.7753  17.8878  17.8884  17.9081
    17.9082  17.9777  17.9777  18.0805  18.0877  18.1753  18.2472  18.4090
    18.4090  18.4140  18.4311  18.4311  18.4448  18.4491  18.4491  18.5672
    18.5672  18.6231  18.6308  18.6494  18.7129  19.0130  19.0130  19.6489
    20.9782  21.0236  21.0237  21.0506  21.0925  21.1832  21.2497  21.2635
    21.2635  21.2945  21.2945  21.3110  21.3884  21.3884  21.4570  21.5975
    21.6316  21.6316  21.6339  21.6631  21.7378  21.7494

          k = 0.2802 0.3923-0.5043 ( 12208 PWs)   bands (ev):

   -51.5491 -51.5488 -51.5114 -51.5110 -51.4812 -51.4809 -51.4600 -51.4596
   -51.3913 -51.3909 -51.3832 -51.3829 -51.3644 -51.3641 -51.3394 -51.3391
   -23.2094 -23.2093 -23.1986 -23.1985 -23.1717 -23.1714 -23.1592 -23.1591
   -23.1574 -23.1572 -23.1017 -23.1015 -23.0127 -23.0126 -23.0092 -23.0089
   -22.9734 -22.9733 -22.9412 -22.9410 -22.9376 -22.9375 -22.8686 -22.8685
   -22.6877 -22.6875 -22.6237 -22.6236 -22.6028 -22.6027 -22.5928 -22.5927
   -22.5512 -22.5510 -22.5239 -22.5238 -22.4974 -22.4971 -22.4899 -22.4897
   -22.4845 -22.4842 -22.4455 -22.4454 -22.4123 -22.4123 -22.4071 -22.4071
    14.6053  14.6057  15.3681  15.3685  16.0415  16.0418  16.6358  16.6362
    16.8774  16.8778  16.9317  16.9319  17.1074  17.1077  17.1462  17.1463
    17.2019  17.2022  17.7027  17.7031  17.7275  17.7279  17.8283  17.8283
    17.8332  17.8333  18.0393  18.0395  18.1201  18.1202  18.2224  18.2225
    18.3273  18.3275  18.3420  18.3422  18.4566  18.4566  18.4992  18.4992
    18.5494  18.5495  18.6226  18.6227  18.6896  18.6896  19.2725  19.2725
    21.1589  21.1591  21.1735  21.1736  21.2028  21.2030  21.2292  21.2294
    21.2634  21.2635  21.3226  21.3226  21.4916  21.4920  21.4951  21.4953
    21.5726  21.5727  21.5727  21.5730  21.6652  21.6655

          k = 0.2802-0.5043-0.5043 ( 12172 PWs)   bands (ev):

   -51.5317 -51.5316 -51.5313 -51.5313 -51.4713 -51.4712 -51.4709 -51.4709
   -51.3866 -51.3866 -51.3863 -51.3862 -51.3505 -51.3505 -51.3502 -51.3501
   -23.1849 -23.1849 -23.1848 -23.1848 -23.1762 -23.1762 -23.1760 -23.1759
   -23.1287 -23.1286 -23.1285 -23.1285 -22.9837 -22.9837 -22.9835 -22.9834
   -22.9715 -22.9715 -22.9715 -22.9715 -22.9408 -22.9408 -22.9407 -22.9407
   -22.6383 -22.6383 -22.6382 -22.6382 -22.6087 -22.6087 -22.6087 -22.6087
   -22.5121 -22.5120 -22.5118 -22.5118 -22.5030 -22.5029 -22.5028 -22.5028
   -22.4733 -22.4733 -22.4731 -22.4731 -22.4081 -22.4081 -22.4081 -22.4080
    14.9779  14.9780  14.9783  14.9785  16.3738  16.3739  16.3742  16.3743
    16.9267  16.9268  16.9270  16.9271  17.3402  17.3403  17.3404  17.3404
    17.4148  17.4149  17.4152  17.4153  17.6478  17.6479  17.6481  17.6481
    17.9403  17.9404  17.9404  17.9405  18.1399  18.1399  18.1400  18.1401
    18.3336  18.3336  18.3337  18.3337  18.3382  18.3382  18.3383  18.3383
    18.5588  18.5588  18.5589  18.5589  18.9197  18.9198  18.9198  18.9198
    21.2414  21.2414  21.2416  21.2416  21.3639  21.3640  21.3642  21.3642
    21.3739  21.3739  21.3740  21.3740  21.4254  21.4254  21.4255  21.4256
    21.5647  21.5648  21.5650  21.5651  21.6977  21.6977

          k = 0.3923 0.3923 0.3923 ( 12214 PWs)   bands (ev):

   -51.5542 -51.5151 -51.5151 -51.5150 -51.4856 -51.4856 -51.4855 -51.4629
   -51.3873 -51.3777 -51.3777 -51.3776 -51.3612 -51.3612 -51.3611 -51.3346
   -23.1967 -23.1966 -23.1966 -23.1697 -23.1697 -23.1697 -23.1457 -23.0994
   -23.0994 -23.0994 -23.0951 -23.0951 -23.0818 -23.0818 -22.9934 -22.9933
   -22.9933 -22.9918 -22.9918 -22.9917 -22.9675 -22.9675 -22.9675 -22.8557
   -22.6873 -22.5954 -22.5954 -22.5953 -22.5771 -22.5771 -22.5771 -22.5588
   -22.5588 -22.5324 -22.5323 -22.5323 -22.5246 -22.5246 -22.5246 -22.4931
   -22.4506 -22.4505 -22.4505 -22.4375 -22.4375 -22.4313 -22.4313 -22.4313
    14.5221  15.3628  15.3628  15.3628  15.9991  15.9991  15.9991  16.8056
    16.9718  16.9718  17.1131  17.1131  17.1131  17.2816  17.2816  17.2816
    17.3313  17.3313  17.3313  17.4293  17.8334  17.8334  17.9549  17.9549
    17.9981  17.9981  17.9981  18.0581  18.0581  18.0581  18.1252  18.1253
    18.1253  18.2958  18.2958  18.2958  18.3036  18.3036  18.3037  18.3579
    18.3579  18.3579  18.5260  18.5260  18.6419  18.6420  18.6420  19.2061
    21.1639  21.1640  21.1640  21.3335  21.3644  21.3644  21.3645  21.3783
    21.3783  21.3981  21.3981  21.3981  21.4385  21.4385  21.4385  21.6253
    21.6253  21.6583  21.6584  21.6584  21.6804  21.6804

          k = 0.3923 0.3923-0.5043 ( 12194 PWs)   bands (ev):

   -51.5362 -51.5359 -51.5015 -51.5015 -51.5011 -51.5011 -51.4751 -51.4747
   -51.3819 -51.3816 -51.3686 -51.3685 -51.3682 -51.3682 -51.3466 -51.3463
   -23.1752 -23.1752 -23.1751 -23.1751 -23.1442 -23.1439 -23.1377 -23.1376
   -23.1220 -23.1218 -23.0487 -23.0484 -23.0456 -23.0455 -23.0454 -23.0453
   -23.0274 -23.0273 -22.9968 -22.9967 -22.9966 -22.9966 -22.9236 -22.9235
   -22.6394 -22.6393 -22.5698 -22.5697 -22.5571 -22.5570 -22.5569 -22.5568
   -22.5463 -22.5463 -22.5462 -22.5461 -22.5049 -22.5047 -22.4999 -22.4995
   -22.4806 -22.4803 -22.4444 -22.4444 -22.4444 -22.4443 -22.4314 -22.4313
    14.9265  14.9270  15.6934  15.6935  15.6938  15.6939  16.4087  16.4091
    17.1172  17.1175  17.2077  17.2080  17.2347  17.2347  17.2350  17.2350
    17.4132  17.4135  17.6766  17.6766  17.6770  17.6770  17.8700  17.8701
    17.9112  17.9115  18.0133  18.0136  18.0150  18.0152  18.1306  18.1306
    18.1308  18.1309  18.2771  18.2771  18.2773  18.2773  18.3359  18.3359
    18.3359  18.3360  18.3989  18.3991  18.4141  18.4143  18.8430  18.8430
    21.2777  21.2779  21.3084  21.3085  21.3087  21.3087  21.4466  21.4466
    21.4466  21.4467  21.5071  21.5074  21.5285  21.5288  21.5961  21.5963
    21.6460  21.6463  21.6485  21.6485  21.6488  21.6488

          k = 0.3923-0.5043-0.5043 ( 12216 PWs)   bands (ev):

   -51.5202 -51.5201 -51.5198 -51.5198 -51.4892 -51.4891 -51.4888 -51.4888
   -51.3744 -51.3743 -51.3740 -51.3740 -51.3563 -51.3563 -51.3560 -51.3560
   -23.1461 -23.1461 -23.1461 -23.1460 -23.1423 -23.1422 -23.1420 -23.1420
   -23.0833 -23.0833 -23.0831 -23.0831 -23.0423 -23.0422 -23.0420 -23.0419
   -23.0377 -23.0377 -23.0377 -23.0376 -22.9846 -22.9846 -22.9845 -22.9845
   -22.5955 -22.5955 -22.5954 -22.5954 -22.5456 -22.5456 -22.5456 -22.5456
   -22.5272 -22.5272 -22.5271 -22.5271 -22.5014 -22.5014 -22.5012 -22.5011
   -22.4807 -22.4806 -22.4805 -22.4804 -22.4440 -22.4440 -22.4440 -22.4439
    15.3048  15.3049  15.3052  15.3054  16.0651  16.0653  16.0655  16.0657
    17.2152  17.2153  17.2155  17.2156  17.4685  17.4686  17.4689  17.4690
    17.5909  17.5910  17.5912  17.5913  17.5922  17.5923  17.5925  17.5926
    18.0333  18.0334  18.0334  18.0335  18.0631  18.0631  18.0631  18.0631
    18.0663  18.0664  18.0664  18.0665  18.2424  18.2425  18.2425  18.2426
    18.3171  18.3171  18.3172  18.3172  18.4920  18.4921  18.4921  18.4921
    21.3530  21.3531  21.3533  21.3533  21.4283  21.4284  21.4286  21.4286
    21.5327  21.5327  21.5330  21.5330  21.6184  21.6184  21.6185  21.6186
    21.6282  21.6283  21.6285  21.6286  21.6665  21.6666

          k =-0.5043-0.5043-0.5043 ( 12160 PWs)   bands (ev):

   -51.5058 -51.5057 -51.5057 -51.5057 -51.5054 -51.5054 -51.5053 -51.5053
   -51.3643 -51.3643 -51.3643 -51.3642 -51.3640 -51.3639 -51.3639 -51.3639
   -23.0967 -23.0967 -23.0967 -23.0967 -23.0966 -23.0966 -23.0966 -23.0966
   -23.0965 -23.0965 -23.0964 -23.0963 -23.0963 -23.0963 -23.0963 -23.0963
   -23.0335 -23.0335 -23.0335 -23.0335 -23.0334 -23.0333 -23.0333 -23.0332
   -22.5584 -22.5584 -22.5583 -22.5583 -22.5582 -22.5582 -22.5582 -22.5581
   -22.4901 -22.4901 -22.4901 -22.4900 -22.4900 -22.4900 -22.4899 -22.4899
   -22.4898 -22.4898 -22.4898 -22.4897 -22.4897 -22.4897 -22.4897 -22.4896
    15.6864  15.6865  15.6865  15.6867  15.6868  15.6870  15.6870  15.6871
    17.5294  17.5295  17.5295  17.5295  17.5295  17.5295  17.5296  17.5297
    17.5298  17.5298  17.5298  17.5298  17.5299  17.5299  17.5300  17.5300
    18.1222  18.1223  18.1223  18.1223  18.1223  18.1224  18.1224  18.1224
    18.1368  18.1369  18.1369  18.1369  18.1369  18.1369  18.1369  18.1369
    18.1371  18.1371  18.1371  18.1371  18.1371  18.1372  18.1372  18.1372
    21.4865  21.4865  21.4865  21.4866  21.4866  21.4866  21.4867  21.4867
    21.4869  21.4869  21.4869  21.4869  21.4869  21.4869  21.4869  21.4870
    21.8826  21.8826  21.8826  21.8827  21.8827  21.8827

     the Fermi energy is    20.2325 ev

!    total energy              =   -3971.52930866 Ry
     Harris-Foulkes estimate   =   -3971.52930287 Ry
     estimated scf accuracy    <       0.00000030 Ry

     total all-electron energy =    -33628.052188 Ry

     The total energy is the sum of the following terms:

     one-electron contribution =    -853.50355512 Ry
     hartree contribution      =     569.76622486 Ry
     xc contribution           =    -357.01447360 Ry
     ewald contribution        =   -2142.79425891 Ry
     one-center paw contrib.   =   -1187.99726507 Ry
     smearing contrib. (-TS)   =       0.01401918 Ry

     total magnetization       =    -0.00 Bohr mag/cell
     absolute magnetization    =     0.03 Bohr mag/cell

     convergence has been achieved in  18 iterations

     Forces acting on atoms (cartesian axes, Ry/au):

     atom    1 type  1   force =     0.00000000    0.00000000    0.00000000
     atom    2 type  2   force =    -0.00002740   -0.00002740   -0.00002740
     atom    3 type  1   force =     0.00000000    0.00000000    0.00000000
     atom    4 type  2   force =    -0.00002740   -0.00002740    0.00002740
     atom    5 type  1   force =     0.00000000    0.00000000    0.00000000
     atom    6 type  2   force =    -0.00002740    0.00002740   -0.00002740
     atom    7 type  1   force =     0.00000000    0.00000000    0.00000000
     atom    8 type  2   force =    -0.00002740    0.00002740    0.00002740
     atom    9 type  1   force =     0.00000000    0.00000000    0.00000000
     atom   10 type  2   force =     0.00002740   -0.00002740   -0.00002740
     atom   11 type  1   force =     0.00000000    0.00000000    0.00000000
     atom   12 type  2   force =     0.00002740   -0.00002740    0.00002740
     atom   13 type  1   force =     0.00000000    0.00000000    0.00000000
     atom   14 type  2   force =     0.00002740    0.00002740   -0.00002740
     atom   15 type  1   force =     0.00000000    0.00000000    0.00000000
     atom   16 type  2   force =     0.00002740    0.00002740    0.00002740

     Total force =     0.000134     Total SCF correction =     0.000572
     SCF correction compared to forces is large: reduce conv_thr to get better values


     Computing stress (Cartesian axis) and pressure

          total   stress  (Ry/bohr**3)                   (kbar)     P=   75.61
   0.00051397   0.00000000   0.00000000         75.61      0.00      0.00
   0.00000000   0.00051397   0.00000000          0.00     75.61      0.00
   0.00000000   0.00000000   0.00051397          0.00      0.00     75.61


     Writing output data file hgVYkbxOMrsJbDff.save/
 
     init_run     :      9.44s CPU      9.83s WALL (       1 calls)
     electrons    :    619.53s CPU    632.68s WALL (       1 calls)
     forces       :      3.17s CPU      3.34s WALL (       1 calls)
     stress       :     11.42s CPU     11.48s WALL (       1 calls)

     Called by init_run:
     wfcinit      :      8.77s CPU      9.08s WALL (       1 calls)
     potinit      :      0.36s CPU      0.38s WALL (       1 calls)
     hinit0       :      0.11s CPU      0.13s WALL (       1 calls)

     Called by electrons:
     c_bands      :    560.61s CPU    571.15s WALL (      19 calls)
     sum_band     :     51.76s CPU     53.86s WALL (      19 calls)
     v_of_rho     :      0.55s CPU      0.58s WALL (      19 calls)
     newd         :      1.24s CPU      1.51s WALL (      19 calls)
     PAW_pot      :      5.46s CPU      5.65s WALL (      19 calls)
     mix_rho      :      0.16s CPU      0.17s WALL (      19 calls)

     Called by c_bands:
     init_us_2    :      3.46s CPU      3.50s WALL (    2870 calls)
     cegterg      :    540.68s CPU    551.09s WALL (    1330 calls)

     Called by sum_band:
     sum_band:bec :      0.57s CPU      0.58s WALL (    1330 calls)
     addusdens    :      2.26s CPU      2.58s WALL (      19 calls)

     Called by *egterg:
     h_psi        :    223.37s CPU    230.88s WALL (    6003 calls)
     s_psi        :     21.67s CPU     21.76s WALL (    6003 calls)
     g_psi        :      1.21s CPU      1.22s WALL (    4603 calls)
     cdiaghg      :    229.45s CPU    229.79s WALL (    5863 calls)

     Called by h_psi:
     h_psi:pot    :    222.07s CPU    229.56s WALL (    6003 calls)
     h_psi:calbec :     23.31s CPU     25.19s WALL (    6003 calls)
     vloc_psi     :    177.46s CPU    183.02s WALL (    6003 calls)
     add_vuspsi   :     21.24s CPU     21.30s WALL (    6003 calls)

     General routines
     calbec       :     34.84s CPU     37.54s WALL (    7683 calls)
     fft          :      0.42s CPU      0.47s WALL (     517 calls)
     ffts         :      0.04s CPU      0.04s WALL (      76 calls)
     fftw         :    199.13s CPU    205.28s WALL ( 1072148 calls)
     interpolate  :      0.06s CPU      0.06s WALL (      38 calls)
 
     Parallel routines
     fft_scatt_xy :     16.49s CPU     17.02s WALL ( 1072741 calls)
     fft_scatt_yz :     95.87s CPU     99.12s WALL ( 1072741 calls)
 
     PWSCF        : 10m48.25s CPU    11m11.20s WALL

 
   This run was terminated on:   5:27:36  15Jun2020            

=------------------------------------------------------------------------------=
   JOB DONE.
=------------------------------------------------------------------------------=
