
     Program PWSCF v.6.3 starts on 15Jun2020 at  5:56:59 

     This program is part of the open-source Quantum ESPRESSO suite
     for quantum simulation of materials; please cite
         "P. Giannozzi et al., J. Phys.:Condens. Matter 21 395502 (2009);
         "P. Giannozzi et al., J. Phys.:Condens. Matter 29 465901 (2017);
          URL http://www.quantum-espresso.org", 
     in publications or presentations arising from this work. More details at
     http://www.quantum-espresso.org/quote

     Parallel version (MPI & OpenMP), running on      20 processor cores
     Number of MPI processes:                20
     Threads/MPI process:                     1

     MPI processes distributed on     1 nodes
     R & G space division:  proc/nbgrp/npool/nimage =      20
     Reading input from wd/eos/eos_008.in
Warning: card &IONS ignored
Warning: card ION_DYNAMICS = 'BFGS', ignored
Warning: card / ignored
Warning: card &CELL ignored
Warning: card CELL_DYNAMICS = 'BFGS', ignored
Warning: card CELL_FACTOR = 2.0, ignored
Warning: card PRESS = 0.0, ignored
Warning: card / ignored

     Current dimensions of program PWSCF are:
     Max number of different atomic species (ntypx) = 10
     Max number of k-points (npk) =  40000
     Max angular momentum in pseudopotentials (lmaxx) =  3
     Message from routine read_upf::
     Pseudo file /rds/homes/b/bxp912/pp/Cr.pbe-spn-kjpaw_psl.1.0.0.UPF has been successfully fixed on the fly.
To avoid this message in the future you can permanently fix 
 your pseudo files following instructions given in: 
https://gitlab.com/QEF/q-e/blob/master/upftools/how_to_fix_upf.md
               file Cr.pbe-spn-kjpaw_psl.1.0.0.UPF: wavefunction(s)  3S 3P 3D renormalized
     Message from routine read_upf::
     Pseudo file /rds/homes/b/bxp912/pp/Cr.pbe-spn-kjpaw_psl.1.0.0.UPF has been successfully fixed on the fly.
To avoid this message in the future you can permanently fix 
 your pseudo files following instructions given in: 
https://gitlab.com/QEF/q-e/blob/master/upftools/how_to_fix_upf.md
               file Cr.pbe-spn-kjpaw_psl.1.0.0.UPF: wavefunction(s)  3S 3P 3D renormalized

     Subspace diagonalization in iterative solution of the eigenvalue problem:
     a serial algorithm will be used

     Found symmetry operation: I + (  0.0000  0.0000  0.5000)
     This is a supercell, fractional translations are disabled
 
     Parallelization info
     --------------------
     sticks:   dense  smooth     PW     G-vecs:    dense   smooth      PW
     Min         197     130     36                 9341     5016     745
     Max         198     131     38                 9344     5020     749
     Sum        3953    2601    741               186863   100377   14939
 


     bravais-lattice index     =            0
     lattice parameter (alat)  =      10.7442  a.u.
     unit-cell volume          =    1240.2870 (a.u.)^3
     number of atoms/cell      =           16
     number of atomic types    =            2
     number of electrons       =       224.00
     number of Kohn-Sham states=          134
     kinetic-energy cutoff     =      71.0000  Ry
     charge density cutoff     =     430.0000  Ry
     convergence threshold     =      1.0E-06
     mixing beta               =       0.1000
     number of iterations used =           10  plain     mixing
     Exchange-correlation      = SLA PW PBX PBC ( 1  4  3  4 0 0)

     celldm(1)=  10.744199  celldm(2)=   0.000000  celldm(3)=   0.000000
     celldm(4)=   0.000000  celldm(5)=   0.000000  celldm(6)=   0.000000

     crystal axes: (cart. coord. in units of alat)
               a(1) = (   1.000000   0.000000   0.000000 )  
               a(2) = (   0.000000   1.000000   0.000000 )  
               a(3) = (   0.000000   0.000000   1.000000 )  

     reciprocal axes: (cart. coord. in units 2 pi/alat)
               b(1) = (  1.000000  0.000000  0.000000 )  
               b(2) = (  0.000000  1.000000  0.000000 )  
               b(3) = (  0.000000  0.000000  1.000000 )  


     PseudoPot. # 1 for Cr read from file:
     /rds/homes/b/bxp912/pp/Cr.pbe-spn-kjpaw_psl.1.0.0.UPF
     MD5 check sum: cb1c17117da000fe5e03c4f1a6841d9c
     Pseudo is Projector augmented-wave + core cor, Zval = 14.0
     Generated using "atomic" code by A. Dal Corso v.5.1
     Shape of augmentation charge: PSQ
     Using radial grid of 1183 points,  6 beta functions with: 
                l(1) =   0
                l(2) =   0
                l(3) =   1
                l(4) =   1
                l(5) =   2
                l(6) =   2
     Q(r) pseudized with 0 coefficients 


     PseudoPot. # 2 for Cr read from file:
     /rds/homes/b/bxp912/pp/Cr.pbe-spn-kjpaw_psl.1.0.0.UPF
     MD5 check sum: cb1c17117da000fe5e03c4f1a6841d9c
     Pseudo is Projector augmented-wave + core cor, Zval = 14.0
     Generated using "atomic" code by A. Dal Corso v.5.1
     Shape of augmentation charge: PSQ
     Using radial grid of 1183 points,  6 beta functions with: 
                l(1) =   0
                l(2) =   0
                l(3) =   1
                l(4) =   1
                l(5) =   2
                l(6) =   2
     Q(r) pseudized with 0 coefficients 


     atomic species   valence    mass     pseudopotential
        Cr1           14.00    55.84500     Cr( 1.00)
        Cr2           14.00    55.84500     Cr( 1.00)

     Starting magnetic structure 
     atomic species   magnetization
        Cr1          0.100
        Cr2          0.100

     48 Sym. Ops., with inversion, found



   Cartesian axes

     site n.     atom                  positions (alat units)
         1           Cr1 tau(   1) = (   0.0000000   0.0000000   0.0000000  )
         2           Cr2 tau(   2) = (   0.2500004   0.2500004   0.2500000  )
         3           Cr1 tau(   3) = (   0.0000000   0.0000000   0.4999990  )
         4           Cr2 tau(   4) = (   0.2500004   0.2500004   0.7499990  )
         5           Cr1 tau(   5) = (   0.0000000   0.4999999   0.0000000  )
         6           Cr2 tau(   6) = (   0.2500004   0.7499993   0.2500000  )
         7           Cr1 tau(   7) = (   0.0000000   0.4999999   0.4999990  )
         8           Cr2 tau(   8) = (   0.2500004   0.7499993   0.7499990  )
         9           Cr1 tau(   9) = (   0.4999999   0.0000000   0.0000000  )
        10           Cr2 tau(  10) = (   0.7499993   0.2500004   0.2500000  )
        11           Cr1 tau(  11) = (   0.4999999   0.0000000   0.4999990  )
        12           Cr2 tau(  12) = (   0.7499993   0.2500004   0.7499990  )
        13           Cr1 tau(  13) = (   0.4999999   0.4999999   0.0000000  )
        14           Cr2 tau(  14) = (   0.7499993   0.7499993   0.2500000  )
        15           Cr1 tau(  15) = (   0.4999999   0.4999999   0.4999990  )
        16           Cr2 tau(  16) = (   0.7499993   0.7499993   0.7499990  )

     number of k points=    35  Marzari-Vanderbilt smearing, width (Ry)=  0.0400
                       cart. coord. in units 2pi/alat
        k(    1) = (   0.0555556   0.0555556   0.0555556), wk =   0.0109739
        k(    2) = (   0.0555556   0.0555556   0.1666667), wk =   0.0329218
        k(    3) = (   0.0555556   0.0555556   0.2777778), wk =   0.0329218
        k(    4) = (   0.0555556   0.0555556   0.3888889), wk =   0.0329218
        k(    5) = (   0.0555556   0.0555556  -0.5000000), wk =   0.0164609
        k(    6) = (   0.0555556   0.1666667   0.1666667), wk =   0.0329218
        k(    7) = (   0.0555556   0.1666667   0.2777778), wk =   0.0658436
        k(    8) = (   0.0555556   0.1666667   0.3888889), wk =   0.0658436
        k(    9) = (   0.0555556   0.1666667  -0.5000000), wk =   0.0329218
        k(   10) = (   0.0555556   0.2777778   0.2777778), wk =   0.0329218
        k(   11) = (   0.0555556   0.2777778   0.3888889), wk =   0.0658436
        k(   12) = (   0.0555556   0.2777778  -0.5000000), wk =   0.0329218
        k(   13) = (   0.0555556   0.3888889   0.3888889), wk =   0.0329218
        k(   14) = (   0.0555556   0.3888889  -0.5000000), wk =   0.0329218
        k(   15) = (   0.0555556  -0.5000000  -0.5000000), wk =   0.0082305
        k(   16) = (   0.1666667   0.1666667   0.1666667), wk =   0.0109739
        k(   17) = (   0.1666667   0.1666667   0.2777778), wk =   0.0329218
        k(   18) = (   0.1666667   0.1666667   0.3888889), wk =   0.0329218
        k(   19) = (   0.1666667   0.1666667  -0.5000000), wk =   0.0164609
        k(   20) = (   0.1666667   0.2777778   0.2777778), wk =   0.0329218
        k(   21) = (   0.1666667   0.2777778   0.3888889), wk =   0.0658436
        k(   22) = (   0.1666667   0.2777778  -0.5000000), wk =   0.0329218
        k(   23) = (   0.1666667   0.3888889   0.3888889), wk =   0.0329218
        k(   24) = (   0.1666667   0.3888889  -0.5000000), wk =   0.0329218
        k(   25) = (   0.1666667  -0.5000000  -0.5000000), wk =   0.0082305
        k(   26) = (   0.2777778   0.2777778   0.2777778), wk =   0.0109739
        k(   27) = (   0.2777778   0.2777778   0.3888889), wk =   0.0329218
        k(   28) = (   0.2777778   0.2777778  -0.5000000), wk =   0.0164609
        k(   29) = (   0.2777778   0.3888889   0.3888889), wk =   0.0329218
        k(   30) = (   0.2777778   0.3888889  -0.5000000), wk =   0.0329218
        k(   31) = (   0.2777778  -0.5000000  -0.5000000), wk =   0.0082305
        k(   32) = (   0.3888889   0.3888889   0.3888889), wk =   0.0109739
        k(   33) = (   0.3888889   0.3888889  -0.5000000), wk =   0.0164609
        k(   34) = (   0.3888889  -0.5000000  -0.5000000), wk =   0.0082305
        k(   35) = (  -0.5000000  -0.5000000  -0.5000000), wk =   0.0013717

     Dense  grid:   186863 G-vectors     FFT dimensions: (  72,  72,  72)

     Smooth grid:   100377 G-vectors     FFT dimensions: (  60,  60,  60)

     Estimated max dynamical RAM per process >     143.00 MB

     Estimated total dynamical RAM >       2.79 GB
     Generating pointlists ...
     new r_m :   0.1786 (alat units)  1.9191 (a.u.) for type    1
     new r_m :   0.1786 (alat units)  1.9191 (a.u.) for type    2

     Check: negative/imaginary core charge=   -0.000009    0.000000

     Initial potential from superposition of free atoms

     starting charge  223.98764, renormalised to  224.00000
     Starting wfcs are  160 randomized atomic wfcs
     Checking if some PAW data can be deallocated... 

     total cpu time spent up to now is       12.1 secs

     Self-consistent Calculation

     iteration #  1     ecut=    71.00 Ry     beta= 0.10
     Davidson diagonalization with overlap
     ethr =  1.00E-02,  avg # of iterations =  3.1

     Threshold (ethr) on eigenvalues was too large:
     Diagonalizing with lowered threshold

     Davidson diagonalization with overlap
     ethr =  7.92E-04,  avg # of iterations =  3.6

     total cpu time spent up to now is       71.9 secs

     total energy              =   -3971.39656152 Ry
     Harris-Foulkes estimate   =   -3971.57619793 Ry
     estimated scf accuracy    <       1.94568339 Ry

     total magnetization       =     4.65 Bohr mag/cell
     absolute magnetization    =     4.87 Bohr mag/cell

     iteration #  2     ecut=    71.00 Ry     beta= 0.10
     Davidson diagonalization with overlap
     ethr =  8.69E-04,  avg # of iterations =  1.0

     total cpu time spent up to now is       92.4 secs

     total energy              =   -3971.09383663 Ry
     Harris-Foulkes estimate   =   -3971.41990781 Ry
     estimated scf accuracy    <       1.25494187 Ry

     total magnetization       =     4.53 Bohr mag/cell
     absolute magnetization    =     4.71 Bohr mag/cell

     iteration #  3     ecut=    71.00 Ry     beta= 0.10
     Davidson diagonalization with overlap
     ethr =  5.60E-04,  avg # of iterations =  3.1

     total cpu time spent up to now is      125.3 secs

     total energy              =   -3971.38422318 Ry
     Harris-Foulkes estimate   =   -3971.43763987 Ry
     estimated scf accuracy    <       0.29639449 Ry

     total magnetization       =     3.74 Bohr mag/cell
     absolute magnetization    =     3.88 Bohr mag/cell

     iteration #  4     ecut=    71.00 Ry     beta= 0.10
     Davidson diagonalization with overlap
     ethr =  1.32E-04,  avg # of iterations =  1.8

     total cpu time spent up to now is      148.1 secs

     total energy              =   -3971.41765859 Ry
     Harris-Foulkes estimate   =   -3971.39556559 Ry
     estimated scf accuracy    <       0.19298264 Ry

     total magnetization       =     3.62 Bohr mag/cell
     absolute magnetization    =     3.79 Bohr mag/cell

     iteration #  5     ecut=    71.00 Ry     beta= 0.10
     Davidson diagonalization with overlap
     ethr =  8.62E-05,  avg # of iterations =  2.8

     total cpu time spent up to now is      184.3 secs

     total energy              =   -3971.49605916 Ry
     Harris-Foulkes estimate   =   -3971.45869888 Ry
     estimated scf accuracy    <       0.17083447 Ry

     total magnetization       =     2.62 Bohr mag/cell
     absolute magnetization    =     2.83 Bohr mag/cell

     iteration #  6     ecut=    71.00 Ry     beta= 0.10
     Davidson diagonalization with overlap
     ethr =  7.63E-05,  avg # of iterations =  2.2

     total cpu time spent up to now is      215.1 secs

     total energy              =   -3971.53925582 Ry
     Harris-Foulkes estimate   =   -3971.53928838 Ry
     estimated scf accuracy    <       0.00816595 Ry

     total magnetization       =     0.27 Bohr mag/cell
     absolute magnetization    =     0.44 Bohr mag/cell

     iteration #  7     ecut=    71.00 Ry     beta= 0.10
     Davidson diagonalization with overlap
     ethr =  3.65E-06,  avg # of iterations =  6.1

     total cpu time spent up to now is      263.6 secs

     total energy              =   -3971.53771044 Ry
     Harris-Foulkes estimate   =   -3971.54059343 Ry
     estimated scf accuracy    <       0.00720057 Ry

     total magnetization       =     0.17 Bohr mag/cell
     absolute magnetization    =     0.48 Bohr mag/cell

     iteration #  8     ecut=    71.00 Ry     beta= 0.10
     Davidson diagonalization with overlap
     ethr =  3.21E-06,  avg # of iterations =  3.5

     total cpu time spent up to now is      306.1 secs

     total energy              =   -3971.54126807 Ry
     Harris-Foulkes estimate   =   -3971.54172583 Ry
     estimated scf accuracy    <       0.00839914 Ry

     total magnetization       =     0.14 Bohr mag/cell
     absolute magnetization    =     0.35 Bohr mag/cell

     iteration #  9     ecut=    71.00 Ry     beta= 0.10
     Davidson diagonalization with overlap
     ethr =  3.21E-06,  avg # of iterations =  1.7

     total cpu time spent up to now is      328.9 secs

     total energy              =   -3971.54051030 Ry
     Harris-Foulkes estimate   =   -3971.54153898 Ry
     estimated scf accuracy    <       0.00352862 Ry

     total magnetization       =     0.10 Bohr mag/cell
     absolute magnetization    =     0.23 Bohr mag/cell

     iteration # 10     ecut=    71.00 Ry     beta= 0.10
     Davidson diagonalization with overlap
     ethr =  1.58E-06,  avg # of iterations =  3.1

     total cpu time spent up to now is      360.1 secs

     total energy              =   -3971.54101878 Ry
     Harris-Foulkes estimate   =   -3971.54104550 Ry
     estimated scf accuracy    <       0.00011941 Ry

     total magnetization       =     0.05 Bohr mag/cell
     absolute magnetization    =     0.13 Bohr mag/cell

     iteration # 11     ecut=    71.00 Ry     beta= 0.10
     Davidson diagonalization with overlap
     ethr =  5.33E-08,  avg # of iterations =  5.5

     total cpu time spent up to now is      407.4 secs

     total energy              =   -3971.54114625 Ry
     Harris-Foulkes estimate   =   -3971.54105176 Ry
     estimated scf accuracy    <       0.00022349 Ry

     total magnetization       =     0.06 Bohr mag/cell
     absolute magnetization    =     0.15 Bohr mag/cell

     iteration # 12     ecut=    71.00 Ry     beta= 0.10
     Davidson diagonalization with overlap
     ethr =  5.33E-08,  avg # of iterations =  5.8

     total cpu time spent up to now is      464.3 secs

     total energy              =   -3971.54107005 Ry
     Harris-Foulkes estimate   =   -3971.54126121 Ry
     estimated scf accuracy    <       0.00231338 Ry

     total magnetization       =    -0.00 Bohr mag/cell
     absolute magnetization    =     0.07 Bohr mag/cell

     iteration # 13     ecut=    71.00 Ry     beta= 0.10
     Davidson diagonalization with overlap
     ethr =  5.33E-08,  avg # of iterations =  5.4

     total cpu time spent up to now is      514.4 secs

     total energy              =   -3971.54120711 Ry
     Harris-Foulkes estimate   =   -3971.54118725 Ry
     estimated scf accuracy    <       0.00003934 Ry

     total magnetization       =     0.04 Bohr mag/cell
     absolute magnetization    =     0.08 Bohr mag/cell

     iteration # 14     ecut=    71.00 Ry     beta= 0.10
     Davidson diagonalization with overlap
     ethr =  1.76E-08,  avg # of iterations =  3.4

     total cpu time spent up to now is      547.6 secs

     total energy              =   -3971.54122430 Ry
     Harris-Foulkes estimate   =   -3971.54122317 Ry
     estimated scf accuracy    <       0.00001734 Ry

     total magnetization       =    -0.00 Bohr mag/cell
     absolute magnetization    =     0.03 Bohr mag/cell

     iteration # 15     ecut=    71.00 Ry     beta= 0.10
     Davidson diagonalization with overlap
     ethr =  7.74E-09,  avg # of iterations =  3.3

     total cpu time spent up to now is      582.4 secs

     total energy              =   -3971.54122980 Ry
     Harris-Foulkes estimate   =   -3971.54122758 Ry
     estimated scf accuracy    <       0.00000615 Ry

     total magnetization       =    -0.01 Bohr mag/cell
     absolute magnetization    =     0.02 Bohr mag/cell

     iteration # 16     ecut=    71.00 Ry     beta= 0.10
     Davidson diagonalization with overlap
     ethr =  2.75E-09,  avg # of iterations =  2.6
 
     Magnetic moment per site:
     atom:    1    charge:   12.2174    magn:    0.0008    constr:    0.0000
     atom:    2    charge:   12.2168    magn:   -0.0011    constr:    0.0000
     atom:    3    charge:   12.2171    magn:    0.0015    constr:    0.0000
     atom:    4    charge:   12.2168    magn:   -0.0011    constr:    0.0000
     atom:    5    charge:   12.2171    magn:    0.0015    constr:    0.0000
     atom:    6    charge:   12.2168    magn:   -0.0011    constr:    0.0000
     atom:    7    charge:   12.2171    magn:    0.0014    constr:    0.0000
     atom:    8    charge:   12.2168    magn:   -0.0011    constr:    0.0000
     atom:    9    charge:   12.2171    magn:    0.0015    constr:    0.0000
     atom:   10    charge:   12.2168    magn:   -0.0011    constr:    0.0000
     atom:   11    charge:   12.2171    magn:    0.0014    constr:    0.0000
     atom:   12    charge:   12.2168    magn:   -0.0011    constr:    0.0000
     atom:   13    charge:   12.2171    magn:    0.0014    constr:    0.0000
     atom:   14    charge:   12.2168    magn:   -0.0011    constr:    0.0000
     atom:   15    charge:   12.2171    magn:    0.0021    constr:    0.0000
     atom:   16    charge:   12.2168    magn:   -0.0011    constr:    0.0000

     total cpu time spent up to now is      609.9 secs

     End of self-consistent calculation

 ------ SPIN UP ------------


          k = 0.0556 0.0556 0.0556 ( 12572 PWs)   bands (ev):

   -52.2466 -52.0688 -52.0688 -52.0688 -52.0377 -52.0376 -52.0375 -52.0374
   -52.0373 -52.0372 -52.0343 -52.0342 -52.0342 -52.0201 -52.0185 -51.8900
   -23.9379 -23.9378 -23.9378 -23.9331 -23.9331 -23.9331 -23.6472 -23.6472
   -23.6368 -23.5465 -23.5419 -23.5418 -23.5418 -23.5067 -23.5067 -23.4868
   -23.4868 -23.4868 -23.4253 -23.4253 -23.3851 -23.3432 -23.3432 -23.3432
   -23.3261 -23.3261 -23.3260 -23.3013 -23.3013 -23.3013 -23.2961 -23.2961
   -23.2961 -23.2865 -23.2864 -23.2864 -23.2707 -23.2706 -23.2706 -23.0145
   -23.0145 -23.0145 -23.0131 -23.0097 -23.0097 -23.0097 -23.0021 -23.0021
    11.7921  15.1982  15.1982  15.1982  15.2197  15.2197  15.2197  15.3290
    15.3290  15.4511  15.4511  15.4511  15.8834  15.8834  15.8834  17.1385
    17.1942  17.1942  17.1943  17.2101  17.2102  17.2102  17.2438  17.2438
    17.4145  17.4145  17.4746  17.5883  17.5883  17.5883  18.0482  18.0482
    18.0482  18.7426  18.7426  18.7983  19.0904  19.0905  19.0905  19.2086
    19.2086  19.2087  19.3102  19.3103  19.3103  19.4206  19.4206  19.4206
    20.3131  20.3132  20.3132  20.3782  20.3782  20.3782  20.6073  20.6073
    20.6073  20.6139  20.6139  20.6139  20.8134  20.8134  20.8135  20.8303
    20.8303  20.8704  20.8704  20.8705  21.1844  21.1844

          k = 0.0556 0.0556 0.1667 ( 12558 PWs)   bands (ev):

   -52.2403 -52.1005 -52.0673 -52.0673 -52.0410 -52.0410 -52.0369 -52.0369
   -52.0363 -52.0333 -52.0327 -52.0327 -52.0212 -52.0195 -52.0076 -51.8945
   -23.9245 -23.9245 -23.9233 -23.9191 -23.9108 -23.9108 -23.6534 -23.6368
   -23.6210 -23.6062 -23.5899 -23.5898 -23.5874 -23.5857 -23.5371 -23.5371
   -23.4800 -23.4350 -23.4222 -23.3995 -23.3814 -23.3457 -23.3428 -23.3428
   -23.3238 -23.3119 -23.3073 -23.3073 -23.3058 -23.2923 -23.2922 -23.2875
   -23.2875 -23.2829 -23.2829 -23.2314 -23.2294 -23.2294 -23.2165 -23.0382
   -23.0290 -23.0290 -23.0272 -23.0231 -23.0143 -23.0142 -23.0112 -23.0063
    11.9286  14.8918  15.2279  15.2279  15.2936  15.2936  15.3092  15.3294
    15.3995  15.4082  15.4926  15.4926  15.9152  15.9152  16.1387  17.0095
    17.1314  17.1398  17.1589  17.1745  17.1890  17.2519  17.2520  17.2875
    17.2996  17.2997  17.5490  17.5491  17.6390  17.6476  17.9493  17.9494
    18.4785  18.7105  18.7349  18.8408  18.8409  18.8704  18.9209  19.0470
    19.0471  19.0892  19.4086  19.4086  19.5458  19.5458  19.5814  19.6990
    19.8169  19.8169  20.0278  20.0943  20.0943  20.1071  20.2303  20.5854
    20.5855  20.7301  20.7302  20.7354  20.8271  20.8272  20.8379  20.8665
    20.8683  20.8727  20.8727  20.9018  21.1881  21.2158

          k = 0.0556 0.0556 0.2778 ( 12548 PWs)   bands (ev):

   -52.2279 -52.1315 -52.0644 -52.0644 -52.0455 -52.0455 -52.0359 -52.0359
   -52.0344 -52.0321 -52.0321 -52.0315 -52.0231 -52.0212 -51.9800 -51.9034
   -23.8948 -23.8943 -23.8943 -23.8914 -23.8720 -23.8720 -23.6737 -23.6646
   -23.6570 -23.6564 -23.6564 -23.6179 -23.6166 -23.6072 -23.6072 -23.5981
   -23.4538 -23.4532 -23.4348 -23.4246 -23.3506 -23.3395 -23.3395 -23.3322
   -23.3244 -23.3141 -23.3140 -23.2896 -23.2896 -23.2873 -23.2872 -23.2703
   -23.2570 -23.2285 -23.2285 -23.1792 -23.1780 -23.1779 -23.1657 -23.0796
   -23.0527 -23.0527 -23.0524 -23.0499 -23.0292 -23.0288 -23.0288 -23.0215
    12.1965  14.2720  15.3007  15.3007  15.4150  15.4150  15.5226  15.5392
    15.5400  15.5420  15.5420  15.5559  15.9306  15.9306  16.2087  16.7205
    16.8336  16.8981  17.0707  17.1376  17.1401  17.1523  17.3810  17.3810
    17.4598  17.4598  17.5660  17.5660  17.8935  17.8935  17.9233  17.9446
    18.5036  18.5037  18.6876  18.6890  18.6891  18.7192  18.7233  18.8001
    18.9767  19.2026  19.2096  19.2096  19.4332  19.4332  19.6671  19.7095
    19.7109  19.7110  19.7550  19.7550  19.7593  19.9052  20.0352  20.5497
    20.5998  20.5998  20.7233  20.7233  20.8841  20.9029  20.9414  20.9475
    20.9475  21.1637  21.1655  21.1875  21.1952  21.2237

          k = 0.0556 0.0556 0.3889 ( 12531 PWs)   bands (ev):

   -52.2101 -52.1609 -52.0604 -52.0604 -52.0505 -52.0505 -52.0346 -52.0346
   -52.0324 -52.0324 -52.0318 -52.0291 -52.0258 -52.0236 -51.9552 -51.9166
   -23.8529 -23.8512 -23.8492 -23.8492 -23.8187 -23.8187 -23.7399 -23.7360
   -23.7261 -23.7261 -23.6820 -23.6819 -23.6571 -23.6393 -23.5871 -23.5674
   -23.5041 -23.4844 -23.4232 -23.4035 -23.3597 -23.3491 -23.3343 -23.3343
   -23.3211 -23.3211 -23.2881 -23.2880 -23.2870 -23.2870 -23.2759 -23.2011
   -23.1935 -23.1748 -23.1748 -23.1359 -23.1317 -23.1288 -23.1288 -23.1195
   -23.0893 -23.0892 -23.0854 -23.0854 -23.0558 -23.0529 -23.0529 -23.0464
    12.5853  13.6520  15.3994  15.3994  15.5502  15.5502  15.5707  15.5707
    15.7458  15.7502  15.8206  15.8331  15.8712  15.8712  16.1288  16.3427
    16.5358  16.5511  17.0529  17.0760  17.1003  17.1107  17.5758  17.5759
    17.6837  17.6838  17.7385  17.7385  17.9687  17.9687  18.1965  18.1965
    18.2831  18.3041  18.3318  18.3318  18.6297  18.6298  18.6772  18.7147
    18.7243  18.7311  18.8244  18.8244  19.1200  19.1840  19.1885  19.5148
    19.5642  19.9914  19.9915  20.0276  20.0277  20.2775  20.2820  20.4190
    20.4279  20.4280  20.5525  20.5525  20.9472  20.9597  21.0449  21.0955
    21.0994  21.1025  21.2047  21.2258  21.2324  21.2419

          k = 0.0556 0.0556-0.5000 ( 12548 PWs)   bands (ev):

   -52.1876 -52.1872 -52.0558 -52.0558 -52.0555 -52.0554 -52.0336 -52.0335
   -52.0332 -52.0332 -52.0289 -52.0287 -52.0266 -52.0261 -51.9342 -51.9338
   -23.8002 -23.7998 -23.7997 -23.7994 -23.7920 -23.7920 -23.7919 -23.7919
   -23.7541 -23.7540 -23.7540 -23.7540 -23.6518 -23.6516 -23.5493 -23.5489
   -23.5292 -23.5289 -23.3915 -23.3912 -23.3771 -23.3767 -23.3283 -23.3283
   -23.3280 -23.3279 -23.2874 -23.2874 -23.2871 -23.2870 -23.2028 -23.2026
   -23.1404 -23.1400 -23.1370 -23.1367 -23.1266 -23.1266 -23.1266 -23.1265
   -23.0905 -23.0901 -23.0866 -23.0866 -23.0866 -23.0866 -23.0794 -23.0791
    13.0783  13.0788  15.4950  15.4950  15.4953  15.4953  15.7362  15.7362
    15.7364  15.7364  15.9567  15.9570  16.0152  16.0156  16.1758  16.1762
    16.1793  16.1797  17.0668  17.0671  17.0787  17.0789  17.8235  17.8235
    17.8236  17.8236  17.9319  17.9320  17.9321  17.9321  18.1664  18.1664
    18.1667  18.1667  18.3451  18.3451  18.3454  18.3454  18.6863  18.6865
    18.7077  18.7079  18.7165  18.7168  18.7209  18.7211  19.3000  19.3003
    19.9457  19.9460  20.2218  20.2218  20.2218  20.2218  20.3163  20.3163
    20.3163  20.3164  20.6845  20.6847  20.8346  20.8348  21.0202  21.0205
    21.0277  21.0280  21.1734  21.1737  21.2152  21.2155

          k = 0.0556 0.1667 0.1667 ( 12541 PWs)   bands (ev):

   -52.2341 -52.0980 -52.0980 -52.0658 -52.0500 -52.0399 -52.0399 -52.0363
   -52.0319 -52.0318 -52.0258 -52.0226 -52.0200 -52.0080 -52.0080 -51.8988
   -23.9207 -23.9105 -23.9105 -23.8982 -23.8981 -23.8798 -23.6648 -23.6436
   -23.6311 -23.6310 -23.6309 -23.6204 -23.6111 -23.5964 -23.5705 -23.4969
   -23.4739 -23.4739 -23.4169 -23.3982 -23.3981 -23.3530 -23.3370 -23.3370
   -23.3230 -23.3195 -23.3195 -23.3136 -23.3019 -23.3018 -23.2948 -23.2787
   -23.2776 -23.2471 -23.2334 -23.2334 -23.1982 -23.1780 -23.1780 -23.0719
   -23.0526 -23.0389 -23.0389 -23.0269 -23.0269 -23.0189 -23.0091 -23.0025
    12.0630  14.9521  14.9521  15.2022  15.3399  15.3399  15.4021  15.4021
    15.4032  15.4702  15.4853  15.5441  15.9608  16.1736  16.1736  16.8911
    17.0227  17.1398  17.1398  17.2285  17.2289  17.2289  17.2715  17.2715
    17.2773  17.3712  17.4200  17.4886  17.6291  17.6625  17.8375  18.2906
    18.2906  18.6365  18.6855  18.6855  18.7144  18.7397  18.9022  18.9906
    19.3017  19.3018  19.3671  19.3696  19.3697  19.5024  19.6245  19.6466
    19.6466  19.7515  19.7515  19.8343  19.8343  19.9463  20.3006  20.3006
    20.5920  20.7197  20.7579  20.7579  20.7967  20.8312  20.8312  20.8405
    20.8433  21.0429  21.1497  21.1558  21.1558  21.1958

          k = 0.0556 0.1667 0.2778 ( 12535 PWs)   bands (ev):

   -52.2221 -52.1282 -52.0933 -52.0629 -52.0596 -52.0443 -52.0378 -52.0353
   -52.0313 -52.0302 -52.0251 -52.0213 -52.0201 -52.0088 -51.9812 -51.9074
   -23.8996 -23.8831 -23.8821 -23.8735 -23.8619 -23.8330 -23.6926 -23.6916
   -23.6768 -23.6707 -23.6701 -23.6600 -23.6252 -23.6115 -23.5658 -23.5464
   -23.4770 -23.4514 -23.4092 -23.4030 -23.3914 -23.3901 -23.3564 -23.3427
   -23.3391 -23.3285 -23.3202 -23.2998 -23.2990 -23.2808 -23.2666 -23.2526
   -23.2367 -23.2250 -23.2026 -23.1825 -23.1580 -23.1308 -23.1302 -23.1211
   -23.0848 -23.0589 -23.0582 -23.0517 -23.0385 -23.0364 -23.0138 -23.0084
    12.3266  14.3529  15.0495  15.2046  15.4130  15.5222  15.5535  15.5550
    15.6029  15.6094  15.6123  15.6359  16.0010  16.1787  16.2536  16.7487
    16.7596  16.8644  17.1480  17.1887  17.2168  17.2234  17.2579  17.3478
    17.3738  17.4157  17.4642  17.6096  17.7455  17.8109  17.8742  18.1559
    18.3802  18.4967  18.5026  18.5670  18.5878  18.6379  18.6900  18.8509
    18.9284  19.0988  19.1437  19.2611  19.3371  19.4133  19.4168  19.4879
    19.6050  19.7200  19.7474  19.8084  19.8395  20.0251  20.0256  20.4320
    20.5783  20.6312  20.6643  20.7277  20.7674  20.8128  20.8631  20.8955
    21.0800  21.1412  21.1445  21.1736  21.2232  21.2285

          k = 0.0556 0.1667 0.3889 ( 12544 PWs)   bands (ev):

   -52.2047 -52.1568 -52.0867 -52.0693 -52.0590 -52.0492 -52.0349 -52.0340
   -52.0317 -52.0283 -52.0279 -52.0232 -52.0157 -52.0102 -51.9574 -51.9201
   -23.8633 -23.8435 -23.8401 -23.8381 -23.8124 -23.7725 -23.7558 -23.7436
   -23.7340 -23.7292 -23.6889 -23.6841 -23.6774 -23.6248 -23.5825 -23.5293
   -23.5010 -23.4452 -23.4407 -23.3931 -23.3814 -23.3739 -23.3546 -23.3535
   -23.3440 -23.3377 -23.3281 -23.3001 -23.2993 -23.2564 -23.2414 -23.2242
   -23.1909 -23.1829 -23.1736 -23.1585 -23.1363 -23.1249 -23.1190 -23.0886
   -23.0882 -23.0881 -23.0879 -23.0849 -23.0622 -23.0578 -23.0285 -23.0257
    12.7084  13.7508  15.1442  15.2136  15.5102  15.6413  15.6765  15.7338
    15.7922  15.8399  15.8548  15.8950  15.9637  16.0891  16.1812  16.3935
    16.5378  16.5721  17.0953  17.1423  17.1518  17.1706  17.4511  17.5187
    17.5367  17.5745  17.6004  17.7476  17.8587  18.0150  18.1282  18.1895
    18.2409  18.2793  18.3330  18.3589  18.5091  18.5183  18.5464  18.5775
    18.6044  18.6626  18.7154  18.8633  18.9538  18.9579  19.3245  19.7472
    19.7700  19.9569  19.9598  20.0355  20.0413  20.0644  20.2653  20.3464
    20.3639  20.4633  20.5556  20.6098  20.7650  20.8889  20.9214  21.0012
    21.0375  21.0643  21.0732  21.1540  21.2190  21.2220

          k = 0.0556 0.1667-0.5000 ( 12520 PWs)   bands (ev):

   -52.1828 -52.1824 -52.0786 -52.0783 -52.0544 -52.0541 -52.0329 -52.0325
   -52.0317 -52.0314 -52.0258 -52.0254 -52.0126 -52.0123 -51.9370 -51.9367
   -23.8143 -23.8142 -23.7940 -23.7936 -23.7931 -23.7928 -23.7876 -23.7875
   -23.7532 -23.7531 -23.7018 -23.7017 -23.6850 -23.6848 -23.5454 -23.5451
   -23.4875 -23.4873 -23.4096 -23.4093 -23.3699 -23.3696 -23.3692 -23.3688
   -23.3466 -23.3464 -23.2997 -23.2994 -23.2532 -23.2531 -23.2481 -23.2477
   -23.1717 -23.1717 -23.1353 -23.1350 -23.1273 -23.1270 -23.1187 -23.1186
   -23.0960 -23.0956 -23.0849 -23.0849 -23.0532 -23.0532 -23.0528 -23.0527
    13.1911  13.1916  15.2007  15.2010  15.6000  15.6002  15.8387  15.8389
    15.9239  15.9241  16.0073  16.0076  16.0881  16.0884  16.2091  16.2095
    16.2237  16.2241  17.1044  17.1047  17.1352  17.1354  17.6975  17.6977
    17.7182  17.7184  17.7579  17.7580  17.8257  17.8260  18.1984  18.1985
    18.2489  18.2490  18.3248  18.3249  18.4489  18.4491  18.4973  18.4974
    18.5185  18.5186  18.5581  18.5582  18.6362  18.6364  19.5328  19.5330
    20.0581  20.0583  20.1046  20.1046  20.2610  20.2611  20.3211  20.3212
    20.3499  20.3500  20.3695  20.3696  20.7500  20.7502  20.9763  20.9767
    20.9950  20.9953  21.1342  21.1345  21.2169  21.2173

          k = 0.0556 0.2778 0.2778 ( 12530 PWs)   bands (ev):

   -52.2106 -52.1218 -52.1218 -52.0740 -52.0601 -52.0421 -52.0420 -52.0342
   -52.0299 -52.0298 -52.0280 -52.0221 -52.0096 -51.9838 -51.9838 -51.9153
   -23.8883 -23.8583 -23.8583 -23.8424 -23.8424 -23.7789 -23.7173 -23.7157
   -23.7156 -23.6987 -23.6986 -23.6965 -23.6589 -23.5935 -23.5268 -23.4782
   -23.4766 -23.4766 -23.4419 -23.4419 -23.4011 -23.3716 -23.3639 -23.3549
   -23.3549 -23.3337 -23.3337 -23.3189 -23.3188 -23.3106 -23.2456 -23.2126
   -23.1890 -23.1890 -23.1865 -23.1794 -23.1690 -23.1314 -23.1242 -23.0889
   -23.0889 -23.0700 -23.0699 -23.0577 -23.0577 -23.0526 -23.0082 -23.0032
    12.5810  14.4986  14.4986  15.1115  15.6278  15.6278  15.7140  15.7179
    15.7189  15.7258  15.7258  15.7950  16.0946  16.2671  16.2671  16.6861
    16.7707  16.8749  16.8750  17.2138  17.2907  17.2907  17.3056  17.3414
    17.3414  17.3620  17.4365  17.5973  17.7539  17.8272  17.8521  18.2575
    18.2575  18.3844  18.3844  18.3939  18.4210  18.4426  18.4982  18.6439
    18.8864  18.8864  18.9586  18.9586  19.1164  19.2185  19.2185  19.3509
    19.8189  19.8189  19.8965  19.9459  19.9899  19.9899  20.2599  20.3787
    20.3788  20.5725  20.6953  20.6953  20.7394  20.7588  20.7588  20.7768
    20.8629  21.0845  21.0883  21.0899  21.2193  21.2292

          k = 0.0556 0.2778 0.3889 ( 12541 PWs)   bands (ev):

   -52.1941 -52.1488 -52.1126 -52.0881 -52.0563 -52.0468 -52.0389 -52.0328
   -52.0315 -52.0303 -52.0279 -52.0237 -52.0007 -51.9879 -51.9616 -51.9271
   -23.8614 -23.8244 -23.8227 -23.8153 -23.8010 -23.7715 -23.7491 -23.7378
   -23.7371 -23.7261 -23.7158 -23.7125 -23.7036 -23.5661 -23.5568 -23.4889
   -23.4831 -23.4579 -23.4274 -23.4010 -23.3889 -23.3881 -23.3875 -23.3858
   -23.3779 -23.3667 -23.3429 -23.3193 -23.3174 -23.2761 -23.2481 -23.2271
   -23.1985 -23.1699 -23.1668 -23.1489 -23.1458 -23.1366 -23.1057 -23.0889
   -23.0865 -23.0862 -23.0767 -23.0684 -23.0538 -23.0536 -23.0130 -23.0095
    12.9479  13.9373  14.6786  15.0005  15.7197  15.7968  15.8747  15.8767
    15.8866  15.9236  16.0009  16.0134  16.1176  16.1921  16.2091  16.5503
    16.5581  16.5741  17.1458  17.1773  17.2264  17.2345  17.2617  17.3788
    17.4233  17.4677  17.5384  17.5651  17.9262  17.9592  17.9905  18.0230
    18.1135  18.2438  18.2498  18.3179  18.3398  18.3426  18.4584  18.4720
    18.5108  18.5903  18.5959  18.6044  18.7391  18.8203  19.5577  19.5810
    19.9791  20.0037  20.1008  20.1152  20.1271  20.1388  20.1412  20.2280
    20.3552  20.4416  20.5378  20.5916  20.6274  20.7486  20.7869  20.8241
    20.9020  20.9318  20.9971  21.0052  21.1207  21.2234

          k = 0.0556 0.2778-0.5000 ( 12514 PWs)   bands (ev):

   -52.1734 -52.1730 -52.1014 -52.1010 -52.0519 -52.0515 -52.0355 -52.0351
   -52.0316 -52.0312 -52.0259 -52.0255 -51.9936 -51.9932 -51.9427 -51.9424
   -23.8213 -23.8212 -23.7832 -23.7829 -23.7829 -23.7825 -23.7806 -23.7805
   -23.7529 -23.7528 -23.7256 -23.7256 -23.6371 -23.6371 -23.5310 -23.5306
   -23.4359 -23.4358 -23.4254 -23.4252 -23.4091 -23.4088 -23.3754 -23.3752
   -23.3676 -23.3674 -23.3233 -23.3232 -23.3197 -23.3194 -23.2209 -23.2208
   -23.2115 -23.2111 -23.1233 -23.1231 -23.1157 -23.1155 -23.1088 -23.1087
   -23.1081 -23.1078 -23.0844 -23.0843 -23.0280 -23.0280 -23.0269 -23.0268
    13.4085  13.4089  14.8550  14.8553  15.7925  15.7927  16.0252  16.0254
    16.0539  16.0542  16.0563  16.0566  16.2619  16.2622  16.2710  16.2714
    16.3016  16.3019  17.1780  17.1782  17.2111  17.2112  17.4885  17.4888
    17.5227  17.5230  17.5239  17.5243  17.7530  17.7531  18.2346  18.2347
    18.2349  18.2350  18.2386  18.2386  18.2762  18.2763  18.2996  18.2998
    18.4445  18.4445  18.4586  18.4588  18.5349  18.5351  19.8305  19.8306
    19.9410  19.9411  20.0186  20.0187  20.2326  20.2328  20.3482  20.3483
    20.3729  20.3731  20.4178  20.4179  20.5436  20.5438  20.8927  20.8930
    20.9115  20.9119  21.0630  21.0633  21.1011  21.1012

          k = 0.0556 0.3889 0.3889 ( 12500 PWs)   bands (ev):

   -52.1789 -52.1373 -52.1373 -52.1062 -52.0526 -52.0435 -52.0435 -52.0354
   -52.0313 -52.0285 -52.0285 -52.0249 -51.9876 -51.9680 -51.9680 -51.9374
   -23.8442 -23.7995 -23.7994 -23.7861 -23.7860 -23.7736 -23.7735 -23.7578
   -23.7517 -23.7515 -23.7433 -23.7261 -23.6416 -23.5409 -23.4813 -23.4812
   -23.4703 -23.4703 -23.4533 -23.4334 -23.4184 -23.4006 -23.4005 -23.3966
   -23.3799 -23.3427 -23.3426 -23.3319 -23.3289 -23.3289 -23.3225 -23.2196
   -23.2007 -23.1598 -23.1598 -23.1370 -23.1252 -23.1167 -23.0981 -23.0945
   -23.0931 -23.0931 -23.0853 -23.0853 -23.0275 -23.0274 -23.0071 -23.0044
    13.2900  14.1885  14.1885  14.7511  15.9543  15.9881  15.9994  15.9994
    16.0197  16.1329  16.1329  16.1862  16.1862  16.2481  16.2524  16.5010
    16.5268  16.8371  16.8371  17.2237  17.2490  17.2679  17.3201  17.3201
    17.3324  17.3324  17.4057  17.5765  17.6574  17.8561  17.9689  18.0093
    18.0093  18.1375  18.1915  18.2152  18.2524  18.2524  18.2809  18.2810
    18.4008  18.4008  18.4062  18.5153  18.5544  19.1472  19.1472  19.8582
    19.9301  20.0230  20.0934  20.0934  20.2641  20.2641  20.2897  20.2999
    20.4502  20.4503  20.4887  20.5972  20.6121  20.6468  20.6468  20.6731
    20.6731  20.8959  20.9001  20.9029  21.0198  21.1342

          k = 0.0556 0.3889-0.5000 ( 12520 PWs)   bands (ev):

   -52.1599 -52.1595 -52.1231 -52.1227 -52.0483 -52.0480 -52.0397 -52.0394
   -52.0300 -52.0296 -52.0268 -52.0264 -51.9769 -51.9765 -51.9513 -51.9510
   -23.8141 -23.8141 -23.7741 -23.7738 -23.7737 -23.7735 -23.7709 -23.7706
   -23.7636 -23.7635 -23.7549 -23.7547 -23.5631 -23.5631 -23.5088 -23.5084
   -23.4467 -23.4463 -23.4322 -23.4321 -23.4042 -23.4041 -23.4019 -23.4019
   -23.3817 -23.3816 -23.3645 -23.3644 -23.3402 -23.3400 -23.2729 -23.2729
   -23.1784 -23.1780 -23.1262 -23.1259 -23.1087 -23.1085 -23.1062 -23.1060
   -23.1021 -23.1020 -23.0879 -23.0878 -23.0119 -23.0119 -23.0106 -23.0106
    13.7131  13.7136  14.4715  14.4719  16.0286  16.0289  16.1033  16.1036
    16.1218  16.1221  16.2450  16.2452  16.2917  16.2920  16.3836  16.3839
    16.5341  16.5345  17.1885  17.1889  17.2464  17.2465  17.2480  17.2481
    17.3029  17.3032  17.3669  17.3671  17.8080  17.8081  18.0032  18.0033
    18.0778  18.0778  18.0894  18.0895  18.0899  18.0900  18.1508  18.1508
    18.4260  18.4260  18.4521  18.4523  18.7572  18.7572  19.5209  19.5209
    20.0156  20.0157  20.1477  20.1477  20.3097  20.3099  20.4099  20.4101
    20.4783  20.4785  20.4850  20.4852  20.4855  20.4857  20.7730  20.7733
    20.7847  20.7849  20.7993  20.7993  20.9818  20.9821

          k = 0.0556-0.5000-0.5000 ( 12492 PWs)   bands (ev):

   -52.1429 -52.1428 -52.1426 -52.1424 -52.0442 -52.0440 -52.0439 -52.0437
   -52.0284 -52.0282 -52.0280 -52.0278 -51.9628 -51.9626 -51.9624 -51.9623
   -23.7939 -23.7939 -23.7938 -23.7938 -23.7707 -23.7706 -23.7705 -23.7704
   -23.7608 -23.7607 -23.7606 -23.7605 -23.4832 -23.4832 -23.4832 -23.4832
   -23.4803 -23.4802 -23.4800 -23.4798 -23.4250 -23.4250 -23.4250 -23.4249
   -23.3560 -23.3560 -23.3559 -23.3559 -23.3269 -23.3269 -23.3268 -23.3268
   -23.1498 -23.1496 -23.1494 -23.1493 -23.1012 -23.1012 -23.1010 -23.1010
   -23.0962 -23.0962 -23.0961 -23.0960 -23.0058 -23.0058 -23.0058 -23.0057
    14.0788  14.0789  14.0792  14.0793  16.1326  16.1326  16.1329  16.1329
    16.2231  16.2232  16.2234  16.2234  16.3908  16.3909  16.3910  16.3911
    16.8494  16.8494  16.8498  16.8498  17.2304  17.2304  17.2306  17.2306
    17.2821  17.2822  17.2823  17.2823  17.9185  17.9185  17.9186  17.9186
    17.9690  17.9692  17.9692  17.9692  18.0599  18.0600  18.0600  18.0600
    18.4142  18.4143  18.4143  18.4144  19.1202  19.1202  19.1202  19.1203
    20.1179  20.1180  20.1181  20.1181  20.4657  20.4657  20.4658  20.4658
    20.5194  20.5194  20.5195  20.5195  20.6285  20.6286  20.6287  20.6288
    20.6336  20.6337  20.6339  20.6340  20.9533  20.9536

          k = 0.1667 0.1667 0.1667 ( 12545 PWs)   bands (ev):

   -52.2281 -52.0957 -52.0956 -52.0956 -52.0487 -52.0487 -52.0487 -52.0256
   -52.0252 -52.0252 -52.0251 -52.0191 -52.0083 -52.0083 -52.0083 -51.9029
   -23.9064 -23.9064 -23.9064 -23.8695 -23.8695 -23.8694 -23.6765 -23.6579
   -23.6578 -23.6578 -23.6544 -23.6544 -23.5759 -23.5759 -23.5653 -23.5099
   -23.5099 -23.5099 -23.4108 -23.4108 -23.4108 -23.3389 -23.3388 -23.3387
   -23.3386 -23.3385 -23.2976 -23.2976 -23.2975 -23.2865 -23.2864 -23.2864
   -23.2384 -23.2384 -23.2384 -23.2355 -23.1520 -23.1520 -23.1520 -23.1056
   -23.0583 -23.0583 -23.0583 -23.0224 -23.0224 -23.0224 -23.0119 -23.0119
    12.1957  15.0193  15.0193  15.0193  15.3178  15.3178  15.3178  15.5090
    15.5090  15.5090  15.5509  15.5509  16.2268  16.2268  16.2269  16.7912
    17.1173  17.1173  17.1173  17.1385  17.1385  17.2544  17.2544  17.2544
    17.3803  17.3804  17.3804  17.5215  17.5678  17.5678  18.1233  18.1234
    18.1234  18.5960  18.5960  18.5960  18.6189  18.6189  19.0838  19.0839
    19.0839  19.1249  19.2535  19.2535  19.2535  19.5034  19.5034  19.5034
    19.6473  19.6473  19.6473  19.8435  19.8435  19.8435  20.5362  20.5362
    20.5362  20.6375  20.6375  20.6376  20.7638  20.7638  20.8345  20.8345
    20.8345  21.1540  21.1540  21.1540  21.1970  21.1970

          k = 0.1667 0.1667 0.2778 ( 12529 PWs)   bands (ev):

   -52.2164 -52.1250 -52.0910 -52.0910 -52.0580 -52.0580 -52.0461 -52.0294
   -52.0240 -52.0197 -52.0197 -52.0190 -52.0090 -52.0090 -51.9824 -51.9112
   -23.8861 -23.8861 -23.8783 -23.8495 -23.8258 -23.8257 -23.7117 -23.7029
   -23.7029 -23.6825 -23.6748 -23.6519 -23.6336 -23.5678 -23.5678 -23.5369
   -23.5290 -23.4665 -23.4405 -23.4135 -23.4135 -23.3675 -23.3580 -23.3580
   -23.3503 -23.3479 -23.3011 -23.2734 -23.2734 -23.2648 -23.2495 -23.2495
   -23.2432 -23.2432 -23.1927 -23.1849 -23.1574 -23.1174 -23.1174 -23.1101
   -23.0847 -23.0846 -23.0706 -23.0487 -23.0305 -23.0258 -23.0258 -23.0127
    12.4554  14.4382  15.1300  15.1300  15.3227  15.3227  15.5406  15.6577
    15.6577  15.6806  15.7010  15.7098  16.2628  16.2628  16.3220  16.6982
    16.7533  16.9834  17.0962  17.1543  17.1543  17.2138  17.3138  17.3456
    17.3457  17.3915  17.5472  17.5472  17.6286  17.8156  17.9696  17.9696
    18.3141  18.3848  18.3848  18.4876  18.5230  18.5866  18.7783  18.7783
    18.7831  18.7832  19.0374  19.1807  19.1807  19.2084  19.3035  19.3103
    19.6400  19.7745  19.7745  19.9495  19.9495  20.1389  20.2639  20.4936
    20.4936  20.6149  20.7199  20.7614  20.7614  20.7984  20.8471  20.8610
    20.8613  20.8613  21.1343  21.1400  21.1618  21.1949

          k = 0.1667 0.1667 0.3889 ( 12537 PWs)   bands (ev):

   -52.1994 -52.1528 -52.0845 -52.0845 -52.0675 -52.0674 -52.0425 -52.0337
   -52.0225 -52.0197 -52.0155 -52.0155 -52.0103 -52.0103 -51.9594 -51.9234
   -23.8519 -23.8519 -23.8372 -23.8212 -23.7697 -23.7697 -23.7552 -23.7552
   -23.7493 -23.7221 -23.6951 -23.6895 -23.6356 -23.6356 -23.6032 -23.5183
   -23.4940 -23.4885 -23.4067 -23.4067 -23.4056 -23.3974 -23.3770 -23.3769
   -23.3667 -23.3486 -23.3189 -23.2629 -23.2629 -23.2485 -23.2485 -23.2208
   -23.2016 -23.2015 -23.1969 -23.1525 -23.1362 -23.1180 -23.1179 -23.0903
   -23.0874 -23.0843 -23.0843 -23.0738 -23.0580 -23.0375 -23.0375 -23.0241
    12.8311  13.8522  15.2413  15.2413  15.3311  15.3311  15.8380  15.8380
    15.8534  15.8716  15.8969  15.9823  16.1912  16.1912  16.2634  16.4160
    16.5434  16.6262  17.0938  17.1652  17.2415  17.2430  17.3522  17.3522
    17.4951  17.4951  17.7353  17.7353  17.8549  17.8549  17.9300  18.1066
    18.2333  18.2333  18.3213  18.3213  18.4236  18.4273  18.4519  18.4673
    18.4674  18.5436  18.6945  18.6946  18.7461  18.7482  19.5097  19.6057
    19.8760  19.9946  20.0662  20.0662  20.0816  20.0816  20.3431  20.3431
    20.3763  20.4035  20.4937  20.6027  20.6027  20.8251  20.9167  20.9617
    21.0449  21.0670  21.1589  21.1589  21.1715  21.1895

          k = 0.1667 0.1667-0.5000 ( 12494 PWs)   bands (ev):

   -52.1781 -52.1777 -52.0767 -52.0766 -52.0763 -52.0763 -52.0384 -52.0381
   -52.0212 -52.0208 -52.0126 -52.0126 -52.0123 -52.0122 -51.9398 -51.9394
   -23.8069 -23.8069 -23.8068 -23.8068 -23.7869 -23.7866 -23.7847 -23.7843
   -23.7048 -23.7048 -23.7047 -23.7047 -23.6968 -23.6966 -23.5644 -23.5640
   -23.4492 -23.4489 -23.4444 -23.4442 -23.3940 -23.3939 -23.3937 -23.3936
   -23.3366 -23.3363 -23.2919 -23.2918 -23.2548 -23.2548 -23.2545 -23.2545
   -23.1573 -23.1573 -23.1572 -23.1572 -23.1374 -23.1370 -23.1178 -23.1175
   -23.0937 -23.0933 -23.0569 -23.0569 -23.0569 -23.0569 -23.0448 -23.0447
    13.3049  13.3053  15.3116  15.3116  15.3119  15.3119  16.0287  16.0287
    16.0289  16.0289  16.1014  16.1017  16.1188  16.1192  16.2284  16.2288
    16.2838  16.2842  17.1207  17.1210  17.2017  17.2019  17.6674  17.6674
    17.6677  17.6677  17.6836  17.6836  17.6838  17.6838  18.2061  18.2061
    18.2062  18.2062  18.3114  18.3116  18.3425  18.3426  18.3427  18.3427
    18.4170  18.4170  18.4258  18.4260  18.4916  18.4918  19.7409  19.7410
    19.9684  19.9685  20.1471  20.1473  20.1981  20.1981  20.1981  20.1982
    20.3684  20.3684  20.3685  20.3685  20.8883  20.8886  20.9379  20.9383
    20.9888  20.9891  21.0998  21.1001  21.1811  21.1814

          k = 0.1667 0.2778 0.2778 ( 12552 PWs)   bands (ev):

   -52.2052 -52.1187 -52.1187 -52.0866 -52.0720 -52.0550 -52.0549 -52.0345
   -52.0190 -52.0190 -52.0176 -52.0096 -52.0095 -51.9849 -51.9849 -51.9188
   -23.8744 -23.8596 -23.8595 -23.8123 -23.8123 -23.7756 -23.7313 -23.7245
   -23.7215 -23.7215 -23.6875 -23.6667 -23.6292 -23.6067 -23.5547 -23.5009
   -23.5009 -23.4869 -23.4687 -23.4686 -23.4323 -23.3922 -23.3921 -23.3875
   -23.3259 -23.2979 -23.2979 -23.2859 -23.2859 -23.2514 -23.2500 -23.2363
   -23.2128 -23.2100 -23.1907 -23.1907 -23.1609 -23.1177 -23.0984 -23.0875
   -23.0874 -23.0818 -23.0817 -23.0499 -23.0499 -23.0420 -23.0212 -23.0131
    12.7072  14.5927  14.5927  15.2342  15.2676  15.5505  15.5505  15.8029
    15.8176  15.8508  15.8543  15.8543  16.3695  16.3695  16.3728  16.6596
    16.8442  16.8442  16.9203  17.0993  17.1641  17.2959  17.2959  17.4080
    17.4371  17.4439  17.4439  17.4955  17.7353  17.7865  17.7936  18.1192
    18.1192  18.2681  18.3115  18.3115  18.3735  18.4128  18.5140  18.5673
    18.6348  18.6348  18.8141  18.8141  18.8830  18.9630  18.9630  19.5214
    19.8940  19.8940  19.9407  20.0914  20.1720  20.1720  20.3536  20.3739
    20.6023  20.6024  20.6029  20.6030  20.6221  20.7425  20.7876  20.7876
    20.8128  21.0940  21.0949  21.0974  21.1042  21.1766

          k = 0.1667 0.2778 0.3889 ( 12532 PWs)   bands (ev):

   -52.1891 -52.1450 -52.1097 -52.0858 -52.0803 -52.0640 -52.0507 -52.0400
   -52.0182 -52.0172 -52.0152 -52.0107 -52.0010 -51.9887 -51.9634 -51.9301
   -23.8484 -23.8299 -23.8212 -23.7941 -23.7671 -23.7650 -23.7562 -23.7517
   -23.7273 -23.7180 -23.7139 -23.7073 -23.6567 -23.6026 -23.5715 -23.5256
   -23.5196 -23.4583 -23.4418 -23.4379 -23.4352 -23.4279 -23.4152 -23.4143
   -23.3465 -23.3211 -23.3003 -23.2795 -23.2744 -23.2585 -23.2476 -23.2298
   -23.2002 -23.1827 -23.1718 -23.1562 -23.1430 -23.1328 -23.1099 -23.0954
   -23.0851 -23.0800 -23.0674 -23.0557 -23.0553 -23.0527 -23.0245 -23.0176
    13.0698  14.0435  14.7843  15.1235  15.4156  15.5561  15.8700  15.9662
    15.9919  16.0328  16.0605  16.1158  16.3032  16.3179  16.3681  16.5566
    16.5821  16.6397  17.1026  17.1559  17.2004  17.2364  17.3182  17.3355
    17.4229  17.5304  17.5537  17.6735  17.6871  17.8638  17.9117  17.9572
    18.0468  18.1343  18.1884  18.2247  18.2614  18.3046  18.3188  18.3374
    18.4088  18.4130  18.4318  18.4491  18.5419  18.6168  19.2147  19.7672
    19.9456  20.0801  20.1658  20.1727  20.1760  20.2259  20.2430  20.3190
    20.4699  20.4777  20.4915  20.6331  20.6341  20.7385  20.8485  20.8984
    20.9542  21.0025  21.0187  21.1101  21.1731  21.1738

          k = 0.1667 0.2778-0.5000 ( 12518 PWs)   bands (ev):

   -52.1689 -52.1686 -52.0987 -52.0984 -52.0728 -52.0724 -52.0458 -52.0454
   -52.0177 -52.0173 -52.0127 -52.0123 -51.9942 -51.9939 -51.9452 -51.9449
   -23.8113 -23.8113 -23.7937 -23.7936 -23.7733 -23.7731 -23.7730 -23.7727
   -23.7218 -23.7217 -23.7115 -23.7114 -23.6444 -23.6444 -23.5651 -23.5648
   -23.4820 -23.4818 -23.4397 -23.4394 -23.4309 -23.4307 -23.3948 -23.3946
   -23.3527 -23.3527 -23.3133 -23.3130 -23.2658 -23.2656 -23.2134 -23.2131
   -23.1998 -23.1997 -23.1382 -23.1381 -23.1303 -23.1300 -23.1105 -23.1103
   -23.1017 -23.1014 -23.0653 -23.0652 -23.0360 -23.0360 -23.0310 -23.0309
    13.5239  13.5244  14.9717  14.9721  15.5190  15.5193  16.1557  16.1560
    16.1625  16.1627  16.2220  16.2222  16.2506  16.2510  16.2988  16.2991
    16.3882  16.3885  17.1827  17.1830  17.2719  17.2721  17.4484  17.4487
    17.4744  17.4748  17.5635  17.5637  17.7041  17.7042  18.0206  18.0208
    18.1550  18.1551  18.1661  18.1662  18.1942  18.1944  18.2307  18.2307
    18.2943  18.2944  18.3023  18.3024  18.3807  18.3809  19.5487  19.5488
    20.0332  20.0333  20.1803  20.1804  20.2956  20.2958  20.3521  20.3522
    20.4205  20.4206  20.4306  20.4307  20.8219  20.8222  20.8778  20.8781
    20.9302  20.9306  21.0369  21.0372  21.1497  21.1499

          k = 0.1667 0.3889 0.3889 ( 12503 PWs)   bands (ev):

   -52.1743 -52.1337 -52.1337 -52.1034 -52.0744 -52.0591 -52.0591 -52.0466
   -52.0158 -52.0150 -52.0149 -52.0114 -51.9884 -51.9696 -51.9696 -51.9401
   -23.8310 -23.7995 -23.7994 -23.7657 -23.7656 -23.7631 -23.7598 -23.7598
   -23.7531 -23.7331 -23.7316 -23.6867 -23.6477 -23.5815 -23.5261 -23.5060
   -23.5059 -23.4997 -23.4997 -23.4609 -23.4578 -23.4578 -23.4509 -23.3931
   -23.3492 -23.3082 -23.2952 -23.2952 -23.2874 -23.2873 -23.2687 -23.2006
   -23.1990 -23.1567 -23.1567 -23.1509 -23.1441 -23.1170 -23.1057 -23.1056
   -23.0890 -23.0814 -23.0814 -23.0778 -23.0340 -23.0339 -23.0193 -23.0149
    13.4104  14.3013  14.3013  14.8749  15.6213  15.8656  15.8656  16.0825
    16.1273  16.2846  16.2846  16.2934  16.2961  16.2961  16.5103  16.5145
    16.6096  16.8371  16.8371  17.1160  17.2266  17.2970  17.3394  17.3394
    17.3757  17.3757  17.5317  17.5691  17.6083  17.6228  17.9088  17.9609
    17.9609  17.9974  18.0914  18.0914  18.1479  18.1479  18.1541  18.1896
    18.2058  18.2485  18.2485  18.3651  18.3689  18.8371  18.8371  19.5231
    20.0533  20.2057  20.3060  20.3060  20.3403  20.3560  20.3560  20.3861
    20.5349  20.6281  20.6378  20.6378  20.6737  20.6738  20.7114  20.7115
    20.8745  20.9195  20.9264  20.9270  21.0206  21.1238

          k = 0.1667 0.3889-0.5000 ( 12518 PWs)   bands (ev):

   -52.1557 -52.1554 -52.1198 -52.1195 -52.0673 -52.0670 -52.0533 -52.0530
   -52.0152 -52.0149 -52.0130 -52.0126 -51.9781 -51.9777 -51.9535 -51.9531
   -23.8022 -23.8021 -23.7783 -23.7781 -23.7647 -23.7643 -23.7556 -23.7554
   -23.7529 -23.7529 -23.7226 -23.7224 -23.5748 -23.5748 -23.5481 -23.5477
   -23.4988 -23.4987 -23.4821 -23.4818 -23.4679 -23.4678 -23.4242 -23.4242
   -23.3440 -23.3439 -23.2989 -23.2988 -23.2778 -23.2776 -23.2457 -23.2456
   -23.1763 -23.1760 -23.1220 -23.1218 -23.1195 -23.1192 -23.1146 -23.1144
   -23.1078 -23.1077 -23.0785 -23.0784 -23.0225 -23.0225 -23.0203 -23.0203
    13.8307  13.8312  14.5911  14.5915  15.7883  15.7886  16.2051  16.2054
    16.2139  16.2143  16.2311  16.2314  16.4550  16.4551  16.5169  16.5172
    16.5615  16.5618  17.1886  17.1890  17.2473  17.2476  17.2689  17.2690
    17.2693  17.2695  17.4383  17.4385  17.7684  17.7685  17.7940  17.7941
    17.9412  17.9413  18.0086  18.0087  18.0374  18.0375  18.0813  18.0813
    18.2577  18.2578  18.2989  18.2990  18.4960  18.4961  19.1438  19.1438
    20.2488  20.2489  20.3494  20.3495  20.4606  20.4608  20.5088  20.5090
    20.5229  20.5230  20.5315  20.5317  20.6234  20.6236  20.7930  20.7932
    20.8161  20.8164  20.9653  20.9657  21.0049  21.0051

          k = 0.1667-0.5000-0.5000 ( 12516 PWs)   bands (ev):

   -52.1392 -52.1390 -52.1389 -52.1387 -52.0608 -52.0606 -52.0604 -52.0602
   -52.0138 -52.0137 -52.0135 -52.0133 -51.9645 -51.9644 -51.9642 -51.9640
   -23.7814 -23.7814 -23.7813 -23.7813 -23.7666 -23.7665 -23.7664 -23.7662
   -23.7378 -23.7378 -23.7377 -23.7376 -23.5192 -23.5191 -23.5189 -23.5187
   -23.5000 -23.5000 -23.5000 -23.5000 -23.4936 -23.4936 -23.4935 -23.4935
   -23.2939 -23.2939 -23.2938 -23.2938 -23.2885 -23.2885 -23.2884 -23.2884
   -23.1449 -23.1448 -23.1446 -23.1444 -23.1116 -23.1115 -23.1114 -23.1114
   -23.0957 -23.0956 -23.0955 -23.0954 -23.0174 -23.0174 -23.0173 -23.0172
    14.1982  14.1983  14.1986  14.1987  16.0512  16.0512  16.0515  16.0515
    16.2387  16.2387  16.2390  16.2390  16.5883  16.5883  16.5885  16.5885
    16.8699  16.8699  16.8702  16.8703  17.1828  17.1828  17.1830  17.1830
    17.3444  17.3444  17.3445  17.3446  17.7801  17.7802  17.7802  17.7803
    17.8800  17.8800  17.8801  17.8801  17.9959  17.9960  17.9960  17.9960
    18.2533  18.2534  18.2534  18.2535  18.7850  18.7851  18.7851  18.7851
    20.4082  20.4083  20.4083  20.4084  20.5360  20.5360  20.5362  20.5362
    20.6736  20.6737  20.6739  20.6739  20.6753  20.6754  20.6755  20.6756
    20.7030  20.7030  20.7030  20.7030  20.9450  20.9451

          k = 0.2778 0.2778 0.2778 ( 12551 PWs)   bands (ev):

   -52.1946 -52.1127 -52.1127 -52.1127 -52.0682 -52.0682 -52.0682 -52.0417
   -52.0143 -52.0096 -52.0095 -52.0095 -51.9871 -51.9871 -51.9871 -51.9258
   -23.8471 -23.8471 -23.8471 -23.7695 -23.7695 -23.7694 -23.7405 -23.7361
   -23.7360 -23.7360 -23.6656 -23.6656 -23.6280 -23.6280 -23.5442 -23.5442
   -23.5441 -23.4907 -23.4907 -23.4907 -23.4408 -23.4282 -23.4281 -23.4281
   -23.2666 -23.2574 -23.2573 -23.2573 -23.2546 -23.2546 -23.2539 -23.2539
   -23.2538 -23.1951 -23.1951 -23.1951 -23.1381 -23.1102 -23.1102 -23.1101
   -23.0710 -23.0709 -23.0709 -23.0464 -23.0464 -23.0464 -23.0330 -23.0330
    12.9534  14.7646  14.7646  14.7646  15.4719  15.4719  15.4719  15.9606
    15.9606  16.0126  16.0126  16.0126  16.5202  16.5202  16.5203  16.6710
    16.8273  16.8273  16.8273  17.0981  17.1547  17.1547  17.3567  17.3567
    17.3567  17.5859  17.5860  17.5860  17.6011  17.6011  17.9508  17.9508
    17.9508  18.1653  18.1653  18.1653  18.2791  18.2791  18.2791  18.3566
    18.3566  18.5235  18.5235  18.5236  18.6504  18.6505  18.6505  19.7656
    19.9299  20.0608  20.0608  20.0608  20.3241  20.3241  20.3241  20.5107
    20.5107  20.5108  20.7152  20.7152  20.7768  20.7768  20.7769  20.9171
    20.9171  20.9171  21.1007  21.1007  21.1008  21.1062

          k = 0.2778 0.2778 0.3889 ( 12507 PWs)   bands (ev):

   -52.1793 -52.1375 -52.1041 -52.1041 -52.0813 -52.0813 -52.0629 -52.0491
   -52.0119 -52.0098 -52.0017 -52.0017 -51.9905 -51.9905 -51.9671 -51.9363
   -23.8233 -23.8233 -23.8074 -23.7620 -23.7611 -23.7611 -23.7476 -23.7344
   -23.7169 -23.7169 -23.6970 -23.6960 -23.6337 -23.5990 -23.5990 -23.5819
   -23.5446 -23.4956 -23.4956 -23.4776 -23.4748 -23.4600 -23.4599 -23.3937
   -23.3314 -23.2995 -23.2651 -23.2642 -23.2339 -23.2339 -23.2109 -23.2109
   -23.2032 -23.2032 -23.1892 -23.1439 -23.1384 -23.1384 -23.1206 -23.1067
   -23.0835 -23.0617 -23.0601 -23.0600 -23.0499 -23.0470 -23.0470 -23.0303
    13.3066  14.2444  14.9809  14.9809  15.3609  15.3609  15.8090  16.1205
    16.1642  16.1905  16.1905  16.2695  16.5104  16.5116  16.5116  16.5640
    16.6624  16.6708  17.0169  17.0169  17.1796  17.2930  17.3986  17.4185
    17.4296  17.4683  17.4684  17.6715  17.6716  17.7848  17.7860  17.7860
    17.9709  17.9709  18.0450  18.0450  18.0784  18.1192  18.1304  18.1416
    18.2243  18.2320  18.2320  18.2796  18.3513  18.3513  18.8239  19.4973
    20.0419  20.2270  20.2762  20.2762  20.3896  20.3896  20.4444  20.4445
    20.5763  20.6289  20.6440  20.6759  20.6759  20.6930  20.8411  20.8418
    21.0187  21.0196  21.1054  21.1054  21.1075  21.1114

          k = 0.2778 0.2778-0.5000 ( 12538 PWs)   bands (ev):

   -52.1602 -52.1599 -52.0936 -52.0936 -52.0933 -52.0932 -52.0565 -52.0562
   -52.0107 -52.0103 -51.9956 -51.9955 -51.9952 -51.9952 -51.9503 -51.9499
   -23.7927 -23.7927 -23.7926 -23.7926 -23.7568 -23.7564 -23.7547 -23.7544
   -23.7207 -23.7206 -23.6586 -23.6586 -23.6585 -23.6585 -23.5931 -23.5928
   -23.5308 -23.5307 -23.4841 -23.4840 -23.4838 -23.4838 -23.4025 -23.4025
   -23.3464 -23.3462 -23.2681 -23.2679 -23.2162 -23.2162 -23.2160 -23.2159
   -23.1722 -23.1721 -23.1720 -23.1720 -23.1318 -23.1315 -23.1100 -23.1098
   -23.0993 -23.0990 -23.0517 -23.0517 -23.0517 -23.0517 -23.0362 -23.0362
    13.7461  13.7466  15.1937  15.1938  15.1941  15.1941  16.2203  16.2207
    16.3243  16.3247  16.3681  16.3681  16.3683  16.3683  16.3689  16.3692
    16.5240  16.5242  17.2295  17.2298  17.3345  17.3346  17.3671  17.3671
    17.3674  17.3674  17.6190  17.6190  17.6192  17.6192  17.7533  17.7535
    17.9712  17.9715  18.0566  18.0566  18.0567  18.0567  18.0923  18.0923
    18.0923  18.0924  18.1404  18.1405  18.1863  18.1865  19.1151  19.1151
    20.3386  20.3386  20.4074  20.4076  20.4114  20.4114  20.4114  20.4114
    20.4941  20.4941  20.4942  20.4943  20.8694  20.8697  20.9263  20.9267
    20.9856  20.9858  20.9887  20.9890  21.1115  21.1118

          k = 0.2778 0.3889 0.3889 ( 12517 PWs)   bands (ev):

   -52.1653 -52.1268 -52.1268 -52.0980 -52.0961 -52.0749 -52.0749 -52.0583
   -52.0079 -52.0029 -52.0029 -51.9934 -51.9900 -51.9728 -51.9727 -51.9454
   -23.8050 -23.7874 -23.7874 -23.7596 -23.7527 -23.7526 -23.7395 -23.7224
   -23.7224 -23.7084 -23.7022 -23.6595 -23.6362 -23.6292 -23.5959 -23.5490
   -23.5489 -23.5335 -23.5334 -23.5228 -23.5113 -23.5112 -23.5005 -23.3950
   -23.3453 -23.2534 -23.2534 -23.2406 -23.2371 -23.2370 -23.2090 -23.1994
   -23.1763 -23.1720 -23.1655 -23.1533 -23.1532 -23.1236 -23.1236 -23.1144
   -23.0801 -23.0800 -23.0768 -23.0666 -23.0462 -23.0461 -23.0433 -23.0360
    13.6435  14.5159  14.5159  15.1140  15.2359  15.6943  15.6943  16.2585
    16.3326  16.3730  16.4520  16.4520  16.4725  16.5074  16.5074  16.7327
    16.7501  16.8304  16.8304  16.9529  17.2588  17.3582  17.3583  17.3918
    17.3918  17.4545  17.4545  17.5522  17.5599  17.6511  17.7009  17.8735
    17.8775  17.8776  17.8820  17.8821  17.8923  17.8923  17.9095  18.0262
    18.0262  18.0733  18.0842  18.1047  18.1707  18.4573  18.4573  19.0700
    20.3525  20.4059  20.4059  20.4311  20.4669  20.5541  20.6239  20.6304
    20.6304  20.6621  20.6621  20.6801  20.7545  20.7546  20.8232  20.9556
    20.9846  20.9847  20.9888  21.0200  21.0904  21.1017

          k = 0.2778 0.3889-0.5000 ( 12534 PWs)   bands (ev):

   -52.1477 -52.1473 -52.1136 -52.1132 -52.0863 -52.0860 -52.0673 -52.0669
   -52.0051 -52.0047 -51.9977 -51.9973 -51.9805 -51.9802 -51.9578 -51.9575
   -23.7792 -23.7791 -23.7688 -23.7687 -23.7439 -23.7435 -23.7333 -23.7332
   -23.7303 -23.7301 -23.6790 -23.6789 -23.5970 -23.5969 -23.5953 -23.5949
   -23.5611 -23.5610 -23.5322 -23.5320 -23.5285 -23.5283 -23.4640 -23.4640
   -23.2983 -23.2981 -23.2384 -23.2383 -23.2194 -23.2193 -23.2105 -23.2104
   -23.1723 -23.1720 -23.1469 -23.1468 -23.1216 -23.1213 -23.1155 -23.1153
   -23.1104 -23.1101 -23.0738 -23.0737 -23.0433 -23.0433 -23.0387 -23.0387
    14.0570  14.0575  14.8206  14.8210  15.4945  15.4949  16.0891  16.0895
    16.3967  16.3971  16.4409  16.4412  16.6137  16.6140  16.6392  16.6394
    16.6961  16.6964  17.1833  17.1837  17.2090  17.2094  17.3064  17.3065
    17.3173  17.3175  17.5186  17.5188  17.5791  17.5792  17.6971  17.6972
    17.7800  17.7802  17.7992  17.7994  17.9151  17.9152  17.9644  17.9645
    18.0035  18.0036  18.0826  18.0827  18.1452  18.1452  18.7068  18.7069
    20.5362  20.5364  20.5442  20.5442  20.5771  20.5774  20.6023  20.6025
    20.6318  20.6318  20.6843  20.6843  20.8540  20.8543  20.8552  20.8554
    20.9279  20.9280  20.9336  20.9339  21.0217  21.0220

          k = 0.2778-0.5000-0.5000 ( 12528 PWs)   bands (ev):

   -52.1320 -52.1318 -52.1316 -52.1314 -52.0775 -52.0773 -52.0771 -52.0769
   -52.0009 -52.0007 -52.0005 -52.0004 -51.9680 -51.9678 -51.9677 -51.9675
   -23.7569 -23.7569 -23.7568 -23.7568 -23.7483 -23.7483 -23.7481 -23.7480
   -23.7039 -23.7039 -23.7038 -23.7037 -23.5715 -23.5714 -23.5713 -23.5711
   -23.5595 -23.5595 -23.5594 -23.5594 -23.5306 -23.5306 -23.5305 -23.5305
   -23.2528 -23.2527 -23.2526 -23.2526 -23.2247 -23.2247 -23.2246 -23.2246
   -23.1361 -23.1360 -23.1358 -23.1356 -23.1278 -23.1278 -23.1277 -23.1276
   -23.0995 -23.0994 -23.0993 -23.0992 -23.0397 -23.0397 -23.0396 -23.0396
    14.4279  14.4280  14.4284  14.4284  15.8222  15.8222  15.8225  15.8226
    16.4412  16.4412  16.4415  16.4415  16.8268  16.8268  16.8270  16.8270
    16.9083  16.9084  16.9087  16.9087  17.1330  17.1330  17.1333  17.1333
    17.4211  17.4211  17.4213  17.4213  17.6050  17.6051  17.6052  17.6052
    17.7920  17.7920  17.7921  17.7921  17.8091  17.8091  17.8092  17.8092
    18.0179  18.0180  18.0180  18.0181  18.3665  18.3665  18.3665  18.3665
    20.6146  20.6146  20.6148  20.6149  20.7316  20.7317  20.7319  20.7320
    20.7366  20.7367  20.7367  20.7368  20.7878  20.7879  20.7880  20.7881
    20.9261  20.9262  20.9264  20.9265  21.0455  21.0455

          k = 0.3889 0.3889 0.3889 ( 12559 PWs)   bands (ev):

   -52.1523 -52.1169 -52.1169 -52.1169 -52.0903 -52.0903 -52.0903 -52.0699
   -52.0014 -51.9926 -51.9926 -51.9926 -51.9776 -51.9776 -51.9776 -51.9535
   -23.7672 -23.7672 -23.7672 -23.7427 -23.7426 -23.7426 -23.7197 -23.6768
   -23.6768 -23.6768 -23.6747 -23.6747 -23.6609 -23.6609 -23.5805 -23.5805
   -23.5805 -23.5777 -23.5777 -23.5776 -23.5561 -23.5560 -23.5560 -23.4523
   -23.2983 -23.2131 -23.2131 -23.2130 -23.1957 -23.1956 -23.1956 -23.1786
   -23.1786 -23.1544 -23.1544 -23.1544 -23.1475 -23.1475 -23.1474 -23.1181
   -23.0785 -23.0784 -23.0784 -23.0669 -23.0669 -23.0610 -23.0609 -23.0609
    13.9730  14.8084  14.8084  14.8084  15.4500  15.4500  15.4500  16.2362
    16.4868  16.4868  16.6121  16.6121  16.6122  16.7866  16.7866  16.7866
    16.8192  16.8192  16.8192  16.9224  17.3171  17.3171  17.4223  17.4223
    17.4793  17.4793  17.4794  17.5229  17.5229  17.5229  17.5992  17.5993
    17.5993  17.7620  17.7620  17.7620  17.7679  17.7679  17.7679  17.8243
    17.8244  17.8244  17.9905  17.9905  18.0982  18.0982  18.0982  18.6417
    20.5405  20.5405  20.5405  20.6943  20.7287  20.7287  20.7288  20.7473
    20.7473  20.7642  20.7642  20.7642  20.7992  20.7992  20.7992  20.9826
    20.9826  21.0150  21.0151  21.0151  21.0358  21.0359

          k = 0.3889 0.3889-0.5000 ( 12528 PWs)   bands (ev):

   -52.1361 -52.1357 -52.1047 -52.1047 -52.1043 -52.1043 -52.0809 -52.0805
   -51.9966 -51.9962 -51.9844 -51.9843 -51.9840 -51.9840 -51.9644 -51.9641
   -23.7476 -23.7475 -23.7474 -23.7474 -23.7187 -23.7183 -23.7134 -23.7133
   -23.6978 -23.6976 -23.6318 -23.6314 -23.6272 -23.6271 -23.6270 -23.6270
   -23.6110 -23.6108 -23.5832 -23.5832 -23.5830 -23.5830 -23.5148 -23.5147
   -23.2540 -23.2538 -23.1888 -23.1886 -23.1775 -23.1774 -23.1773 -23.1773
   -23.1672 -23.1671 -23.1670 -23.1669 -23.1295 -23.1294 -23.1242 -23.1238
   -23.1067 -23.1064 -23.0730 -23.0730 -23.0729 -23.0729 -23.0611 -23.0611
    14.3731  14.3736  15.1381  15.1381  15.1385  15.1385  15.8476  15.8480
    16.6275  16.6279  16.7088  16.7091  16.7328  16.7328  16.7330  16.7331
    16.9028  16.9031  17.1577  17.1577  17.1580  17.1580  17.3488  17.3488
    17.3940  17.3943  17.4790  17.4792  17.4887  17.4889  17.6077  17.6077
    17.6078  17.6079  17.7438  17.7438  17.7440  17.7441  17.8019  17.8019
    17.8019  17.8020  17.8669  17.8670  17.8824  17.8826  18.2910  18.2911
    20.6502  20.6505  20.6788  20.6788  20.6791  20.6791  20.8073  20.8073
    20.8073  20.8074  20.8691  20.8694  20.8909  20.8912  20.9517  20.9520
    21.0028  21.0031  21.0054  21.0055  21.0057  21.0058

          k = 0.3889-0.5000-0.5000 ( 12552 PWs)   bands (ev):

   -52.1216 -52.1214 -52.1212 -52.1211 -52.0937 -52.0935 -52.0933 -52.0931
   -51.9898 -51.9896 -51.9894 -51.9892 -51.9733 -51.9732 -51.9730 -51.9728
   -23.7211 -23.7211 -23.7210 -23.7210 -23.7171 -23.7170 -23.7168 -23.7167
   -23.6622 -23.6622 -23.6621 -23.6620 -23.6254 -23.6253 -23.6251 -23.6250
   -23.6207 -23.6207 -23.6206 -23.6206 -23.5709 -23.5708 -23.5708 -23.5707
   -23.2133 -23.2133 -23.2132 -23.2131 -23.1666 -23.1666 -23.1665 -23.1665
   -23.1501 -23.1500 -23.1499 -23.1499 -23.1257 -23.1256 -23.1254 -23.1253
   -23.1065 -23.1064 -23.1063 -23.1062 -23.0727 -23.0727 -23.0726 -23.0726
    14.7480  14.7481  14.7485  14.7485  15.5031  15.5032  15.5035  15.5036
    16.7183  16.7184  16.7186  16.7187  16.9601  16.9601  16.9604  16.9604
    17.0741  17.0742  17.0744  17.0744  17.0780  17.0780  17.0783  17.0783
    17.5123  17.5123  17.5124  17.5125  17.5352  17.5353  17.5353  17.5353
    17.5423  17.5424  17.5425  17.5425  17.7162  17.7162  17.7163  17.7163
    17.7867  17.7868  17.7868  17.7869  17.9518  17.9519  17.9519  17.9519
    20.7220  20.7221  20.7223  20.7223  20.7938  20.7939  20.7941  20.7942
    20.8949  20.8950  20.8952  20.8953  20.9728  20.9729  20.9729  20.9730
    20.9858  20.9859  20.9861  20.9862  21.0186  21.0187

          k =-0.5000-0.5000-0.5000 ( 12568 PWs)   bands (ev):

   -52.1087 -52.1085 -52.1085 -52.1084 -52.1083 -52.1082 -52.1082 -52.1080
   -51.9807 -51.9805 -51.9805 -51.9804 -51.9803 -51.9801 -51.9801 -51.9800
   -23.6756 -23.6756 -23.6755 -23.6754 -23.6754 -23.6754 -23.6754 -23.6752
   -23.6752 -23.6752 -23.6752 -23.6751 -23.6751 -23.6751 -23.6750 -23.6750
   -23.6163 -23.6163 -23.6163 -23.6162 -23.6161 -23.6161 -23.6161 -23.6161
   -23.1788 -23.1788 -23.1788 -23.1787 -23.1786 -23.1786 -23.1786 -23.1785
   -23.1154 -23.1154 -23.1154 -23.1153 -23.1153 -23.1153 -23.1153 -23.1151
   -23.1151 -23.1151 -23.1151 -23.1150 -23.1150 -23.1150 -23.1149 -23.1149
    15.1241  15.1241  15.1241  15.1242  15.1245  15.1246  15.1246  15.1246
    17.0187  17.0187  17.0188  17.0188  17.0188  17.0188  17.0188  17.0188
    17.0191  17.0191  17.0191  17.0191  17.0191  17.0191  17.0191  17.0191
    17.5934  17.5934  17.5934  17.5934  17.5934  17.5935  17.5935  17.5936
    17.6134  17.6134  17.6134  17.6135  17.6135  17.6135  17.6135  17.6135
    17.6136  17.6137  17.6137  17.6137  17.6137  17.6138  17.6138  17.6138
    20.8501  20.8501  20.8502  20.8502  20.8503  20.8503  20.8503  20.8503
    20.8504  20.8505  20.8505  20.8505  20.8505  20.8506  20.8506  20.8506
    21.2266  21.2266  21.2266  21.2267  21.2267  21.2268

 ------ SPIN DOWN ----------


          k = 0.0556 0.0556 0.0556 ( 12572 PWs)   bands (ev):

   -52.2460 -52.0682 -52.0682 -52.0682 -52.0371 -52.0370 -52.0369 -52.0367
   -52.0366 -52.0366 -52.0337 -52.0337 -52.0337 -52.0193 -52.0181 -51.8894
   -23.9375 -23.9375 -23.9375 -23.9327 -23.9327 -23.9327 -23.6468 -23.6468
   -23.6364 -23.5462 -23.5415 -23.5414 -23.5414 -23.5063 -23.5063 -23.4865
   -23.4864 -23.4864 -23.4249 -23.4249 -23.3847 -23.3428 -23.3428 -23.3428
   -23.3257 -23.3257 -23.3257 -23.3009 -23.3008 -23.3008 -23.2958 -23.2957
   -23.2957 -23.2860 -23.2860 -23.2860 -23.2703 -23.2702 -23.2702 -23.0142
   -23.0142 -23.0142 -23.0127 -23.0093 -23.0093 -23.0093 -23.0017 -23.0017
    11.7915  15.1980  15.1981  15.1981  15.2195  15.2195  15.2195  15.3281
    15.3281  15.4504  15.4504  15.4504  15.8827  15.8827  15.8827  17.1389
    17.1950  17.1950  17.1950  17.2109  17.2110  17.2110  17.2442  17.2442
    17.4149  17.4149  17.4749  17.5875  17.5875  17.5875  18.0474  18.0474
    18.0474  18.7435  18.7435  18.7993  19.0912  19.0913  19.0913  19.2094
    19.2094  19.2094  19.3110  19.3111  19.3111  19.4213  19.4213  19.4214
    20.3141  20.3141  20.3141  20.3775  20.3775  20.3775  20.6083  20.6083
    20.6083  20.6133  20.6133  20.6133  20.8133  20.8133  20.8133  20.8295
    20.8295  20.8703  20.8703  20.8703  21.1837  21.1837

          k = 0.0556 0.0556 0.1667 ( 12558 PWs)   bands (ev):

   -52.2397 -52.0999 -52.0667 -52.0667 -52.0404 -52.0404 -52.0363 -52.0363
   -52.0357 -52.0328 -52.0322 -52.0322 -52.0204 -52.0190 -52.0070 -51.8939
   -23.9241 -23.9241 -23.9230 -23.9188 -23.9104 -23.9104 -23.6530 -23.6364
   -23.6206 -23.6058 -23.5895 -23.5894 -23.5870 -23.5854 -23.5367 -23.5367
   -23.4796 -23.4346 -23.4218 -23.3991 -23.3810 -23.3453 -23.3424 -23.3424
   -23.3234 -23.3115 -23.3069 -23.3069 -23.3055 -23.2919 -23.2918 -23.2871
   -23.2871 -23.2825 -23.2825 -23.2310 -23.2290 -23.2290 -23.2161 -23.0378
   -23.0286 -23.0286 -23.0268 -23.0227 -23.0139 -23.0139 -23.0108 -23.0059
    11.9280  14.8912  15.2278  15.2278  15.2935  15.2935  15.3091  15.3293
    15.3986  15.4073  15.4920  15.4920  15.9145  15.9145  16.1379  17.0099
    17.1319  17.1389  17.1593  17.1753  17.1897  17.2527  17.2528  17.2879
    17.3004  17.3004  17.5483  17.5483  17.6393  17.6480  17.9487  17.9487
    18.4780  18.7114  18.7358  18.8416  18.8417  18.8714  18.9217  19.0478
    19.0479  19.0897  19.4091  19.4091  19.5465  19.5465  19.5822  19.6999
    19.8162  19.8162  20.0288  20.0936  20.0936  20.1066  20.2300  20.5864
    20.5864  20.7300  20.7300  20.7346  20.8270  20.8270  20.8377  20.8663
    20.8675  20.8736  20.8737  20.9028  21.1875  21.2162

          k = 0.0556 0.0556 0.2778 ( 12548 PWs)   bands (ev):

   -52.2273 -52.1309 -52.0638 -52.0638 -52.0449 -52.0449 -52.0353 -52.0353
   -52.0337 -52.0316 -52.0316 -52.0310 -52.0224 -52.0208 -51.9794 -51.9028
   -23.8944 -23.8939 -23.8939 -23.8910 -23.8716 -23.8716 -23.6733 -23.6642
   -23.6566 -23.6560 -23.6560 -23.6175 -23.6162 -23.6068 -23.6068 -23.5977
   -23.4534 -23.4528 -23.4344 -23.4243 -23.3503 -23.3391 -23.3391 -23.3318
   -23.3240 -23.3137 -23.3136 -23.2892 -23.2892 -23.2869 -23.2868 -23.2699
   -23.2566 -23.2281 -23.2281 -23.1788 -23.1776 -23.1776 -23.1653 -23.0792
   -23.0523 -23.0523 -23.0520 -23.0495 -23.0289 -23.0284 -23.0284 -23.0211
    12.1959  14.2713  15.3006  15.3006  15.4148  15.4148  15.5225  15.5383
    15.5400  15.5415  15.5415  15.5550  15.9300  15.9300  16.2079  16.7196
    16.8340  16.8984  17.0713  17.1380  17.1409  17.1530  17.3817  17.3818
    17.4606  17.4606  17.5653  17.5653  17.8930  17.8930  17.9235  17.9449
    18.5044  18.5045  18.6886  18.6898  18.6899  18.7195  18.7242  18.8010
    18.9777  19.2022  19.2088  19.2089  19.4325  19.4325  19.6669  19.7093
    19.7113  19.7113  19.7555  19.7555  19.7602  19.9060  20.0360  20.5489
    20.5997  20.5997  20.7233  20.7233  20.8839  20.9027  20.9407  20.9485
    20.9485  21.1632  21.1649  21.1885  21.1946  21.2250

          k = 0.0556 0.0556 0.3889 ( 12531 PWs)   bands (ev):

   -52.2095 -52.1603 -52.0598 -52.0598 -52.0499 -52.0499 -52.0340 -52.0340
   -52.0318 -52.0318 -52.0311 -52.0286 -52.0251 -52.0231 -51.9547 -51.9160
   -23.8526 -23.8508 -23.8488 -23.8488 -23.8183 -23.8183 -23.7395 -23.7356
   -23.7257 -23.7257 -23.6816 -23.6816 -23.6567 -23.6390 -23.5867 -23.5670
   -23.5037 -23.4840 -23.4228 -23.4031 -23.3592 -23.3487 -23.3339 -23.3338
   -23.3207 -23.3207 -23.2877 -23.2876 -23.2867 -23.2866 -23.2755 -23.2007
   -23.1931 -23.1744 -23.1744 -23.1355 -23.1314 -23.1284 -23.1284 -23.1191
   -23.0889 -23.0888 -23.0850 -23.0850 -23.0554 -23.0525 -23.0525 -23.0460
    12.5847  13.6514  15.3992  15.3992  15.5498  15.5498  15.5704  15.5704
    15.7449  15.7493  15.8206  15.8331  15.8708  15.8708  16.1280  16.3418
    16.5360  16.5513  17.0535  17.0766  17.1010  17.1114  17.5766  17.5767
    17.6845  17.6845  17.7378  17.7379  17.9684  17.9684  18.1970  18.1970
    18.2833  18.3043  18.3325  18.3326  18.6290  18.6290  18.6781  18.7156
    18.7252  18.7319  18.8237  18.8238  19.1209  19.1839  19.1885  19.5157
    19.5635  19.9917  19.9917  20.0279  20.0279  20.2783  20.2812  20.4198
    20.4280  20.4280  20.5525  20.5525  20.9469  20.9594  21.0441  21.0951
    21.0990  21.1034  21.2040  21.2251  21.2317  21.2413

          k = 0.0556 0.0556-0.5000 ( 12548 PWs)   bands (ev):

   -52.1870 -52.1866 -52.0553 -52.0552 -52.0548 -52.0548 -52.0330 -52.0329
   -52.0326 -52.0325 -52.0284 -52.0279 -52.0259 -52.0257 -51.9336 -51.9332
   -23.7998 -23.7995 -23.7993 -23.7990 -23.7916 -23.7916 -23.7915 -23.7915
   -23.7537 -23.7537 -23.7536 -23.7536 -23.6514 -23.6512 -23.5489 -23.5485
   -23.5288 -23.5285 -23.3911 -23.3908 -23.3767 -23.3764 -23.3279 -23.3279
   -23.3275 -23.3275 -23.2870 -23.2870 -23.2867 -23.2866 -23.2024 -23.2022
   -23.1400 -23.1396 -23.1366 -23.1363 -23.1262 -23.1262 -23.1261 -23.1261
   -23.0901 -23.0897 -23.0863 -23.0863 -23.0862 -23.0862 -23.0790 -23.0787
    13.0776  13.0781  15.4947  15.4947  15.4949  15.4949  15.7358  15.7358
    15.7360  15.7360  15.9558  15.9561  16.0143  16.0147  16.1758  16.1763
    16.1794  16.1798  17.0675  17.0678  17.0793  17.0796  17.8242  17.8243
    17.8244  17.8244  17.9324  17.9325  17.9326  17.9326  18.1660  18.1660
    18.1663  18.1663  18.3445  18.3445  18.3448  18.3448  18.6872  18.6874
    18.7079  18.7080  18.7173  18.7176  18.7210  18.7211  19.3010  19.3013
    19.9450  19.9452  20.2219  20.2219  20.2219  20.2219  20.3164  20.3164
    20.3165  20.3165  20.6854  20.6855  20.8355  20.8357  21.0199  21.0202
    21.0273  21.0277  21.1726  21.1729  21.2145  21.2148

          k = 0.0556 0.1667 0.1667 ( 12541 PWs)   bands (ev):

   -52.2335 -52.0974 -52.0974 -52.0652 -52.0494 -52.0393 -52.0393 -52.0357
   -52.0313 -52.0313 -52.0252 -52.0219 -52.0195 -52.0074 -52.0074 -51.8982
   -23.9203 -23.9101 -23.9101 -23.8978 -23.8978 -23.8794 -23.6644 -23.6433
   -23.6307 -23.6306 -23.6305 -23.6200 -23.6107 -23.5960 -23.5701 -23.4965
   -23.4735 -23.4735 -23.4165 -23.3978 -23.3978 -23.3526 -23.3366 -23.3366
   -23.3226 -23.3191 -23.3191 -23.3132 -23.3015 -23.3015 -23.2945 -23.2783
   -23.2772 -23.2467 -23.2330 -23.2330 -23.1978 -23.1776 -23.1776 -23.0715
   -23.0522 -23.0385 -23.0385 -23.0265 -23.0265 -23.0185 -23.0087 -23.0021
    12.0624  14.9515  14.9515  15.2021  15.3398  15.3398  15.4020  15.4020
    15.4031  15.4693  15.4844  15.5435  15.9602  16.1728  16.1728  16.8916
    17.0232  17.1389  17.1390  17.2289  17.2296  17.2297  17.2722  17.2723
    17.2781  17.3715  17.4207  17.4879  17.6294  17.6628  17.8371  18.2903
    18.2903  18.6374  18.6863  18.6864  18.7153  18.7404  18.9029  18.9915
    19.3025  19.3026  19.3664  19.3699  19.3699  19.5029  19.6252  19.6460
    19.6460  19.7522  19.7522  19.8338  19.8338  19.9457  20.3016  20.3016
    20.5919  20.7190  20.7578  20.7578  20.7976  20.8311  20.8311  20.8397
    20.8433  21.0438  21.1490  21.1568  21.1568  21.1953

          k = 0.0556 0.1667 0.2778 ( 12535 PWs)   bands (ev):

   -52.2215 -52.1276 -52.0927 -52.0623 -52.0590 -52.0437 -52.0372 -52.0347
   -52.0308 -52.0297 -52.0244 -52.0208 -52.0195 -52.0082 -51.9806 -51.9068
   -23.8992 -23.8827 -23.8817 -23.8731 -23.8615 -23.8326 -23.6922 -23.6912
   -23.6764 -23.6703 -23.6697 -23.6596 -23.6248 -23.6111 -23.5654 -23.5460
   -23.4766 -23.4510 -23.4088 -23.4026 -23.3910 -23.3898 -23.3560 -23.3423
   -23.3387 -23.3281 -23.3198 -23.2995 -23.2986 -23.2804 -23.2662 -23.2523
   -23.2363 -23.2246 -23.2022 -23.1821 -23.1576 -23.1304 -23.1299 -23.1207
   -23.0844 -23.0585 -23.0578 -23.0513 -23.0381 -23.0360 -23.0134 -23.0080
    12.3260  14.3523  15.0489  15.2044  15.4129  15.5221  15.5533  15.5550
    15.6020  15.6094  15.6118  15.6350  16.0005  16.1780  16.2528  16.7479
    16.7601  16.8648  17.1485  17.1894  17.2160  17.2241  17.2582  17.3486
    17.3746  17.4164  17.4637  17.6104  17.7451  17.8111  17.8744  18.1558
    18.3809  18.4970  18.5033  18.5679  18.5886  18.6385  18.6908  18.8501
    18.9292  19.0981  19.1446  19.2606  19.3368  19.4127  19.4166  19.4877
    19.6058  19.7201  19.7477  19.8089  19.8401  20.0259  20.0266  20.4319
    20.5776  20.6311  20.6653  20.7276  20.7673  20.8126  20.8629  20.8948
    21.0808  21.1408  21.1440  21.1745  21.2227  21.2280

          k = 0.0556 0.1667 0.3889 ( 12544 PWs)   bands (ev):

   -52.2041 -52.1562 -52.0861 -52.0687 -52.0584 -52.0486 -52.0343 -52.0334
   -52.0311 -52.0277 -52.0273 -52.0227 -52.0151 -52.0096 -51.9568 -51.9195
   -23.8629 -23.8432 -23.8397 -23.8377 -23.8121 -23.7721 -23.7554 -23.7433
   -23.7336 -23.7289 -23.6886 -23.6837 -23.6770 -23.6244 -23.5821 -23.5289
   -23.5006 -23.4448 -23.4403 -23.3927 -23.3810 -23.3735 -23.3542 -23.3531
   -23.3436 -23.3373 -23.3278 -23.2997 -23.2989 -23.2560 -23.2410 -23.2239
   -23.1905 -23.1825 -23.1732 -23.1581 -23.1359 -23.1245 -23.1186 -23.0882
   -23.0878 -23.0877 -23.0875 -23.0845 -23.0618 -23.0574 -23.0281 -23.0253
    12.7078  13.7502  15.1437  15.2133  15.5100  15.6408  15.6763  15.7336
    15.7913  15.8390  15.8548  15.8950  15.9633  16.0886  16.1804  16.3926
    16.5381  16.5723  17.0959  17.1430  17.1522  17.1712  17.4503  17.5194
    17.5375  17.5741  17.6011  17.7475  17.8595  18.0156  18.1284  18.1896
    18.2407  18.2797  18.3323  18.3595  18.5100  18.5192  18.5472  18.5769
    18.6050  18.6635  18.7149  18.8628  18.9536  18.9579  19.3255  19.7468
    19.7708  19.9577  19.9601  20.0358  20.0415  20.0645  20.2654  20.3456
    20.3647  20.4633  20.5556  20.6098  20.7659  20.8887  20.9212  21.0005
    21.0385  21.0639  21.0728  21.1549  21.2184  21.2215

          k = 0.0556 0.1667-0.5000 ( 12520 PWs)   bands (ev):

   -52.1822 -52.1818 -52.0780 -52.0777 -52.0538 -52.0535 -52.0322 -52.0319
   -52.0312 -52.0308 -52.0252 -52.0249 -52.0120 -52.0117 -51.9364 -51.9361
   -23.8139 -23.8138 -23.7936 -23.7932 -23.7928 -23.7924 -23.7872 -23.7872
   -23.7528 -23.7527 -23.7014 -23.7014 -23.6846 -23.6845 -23.5450 -23.5447
   -23.4871 -23.4869 -23.4092 -23.4089 -23.3695 -23.3692 -23.3688 -23.3684
   -23.3463 -23.3459 -23.2993 -23.2990 -23.2528 -23.2527 -23.2477 -23.2473
   -23.1713 -23.1713 -23.1349 -23.1346 -23.1269 -23.1266 -23.1183 -23.1182
   -23.0956 -23.0952 -23.0845 -23.0845 -23.0528 -23.0528 -23.0524 -23.0523
    13.1905  13.1910  15.2003  15.2006  15.5997  15.5999  15.8384  15.8386
    15.9235  15.9238  16.0064  16.0068  16.0872  16.0876  16.2092  16.2096
    16.2238  16.2242  17.1050  17.1053  17.1357  17.1360  17.6980  17.6982
    17.7183  17.7186  17.7587  17.7588  17.8250  17.8253  18.1991  18.1992
    18.2488  18.2489  18.3245  18.3247  18.4485  18.4487  18.4982  18.4983
    18.5186  18.5187  18.5581  18.5582  18.6369  18.6372  19.5338  19.5340
    20.0574  20.0577  20.1048  20.1048  20.2612  20.2612  20.3212  20.3213
    20.3507  20.3508  20.3696  20.3696  20.7508  20.7510  20.9761  20.9764
    20.9946  20.9950  21.1335  21.1338  21.2163  21.2166

          k = 0.0556 0.2778 0.2778 ( 12530 PWs)   bands (ev):

   -52.2101 -52.1212 -52.1212 -52.0734 -52.0595 -52.0414 -52.0414 -52.0336
   -52.0293 -52.0293 -52.0273 -52.0216 -52.0090 -51.9832 -51.9832 -51.9147
   -23.8879 -23.8579 -23.8579 -23.8420 -23.8420 -23.7786 -23.7169 -23.7153
   -23.7152 -23.6983 -23.6982 -23.6961 -23.6585 -23.5931 -23.5264 -23.4778
   -23.4762 -23.4762 -23.4415 -23.4415 -23.4007 -23.3712 -23.3635 -23.3545
   -23.3544 -23.3333 -23.3333 -23.3185 -23.3184 -23.3102 -23.2452 -23.2122
   -23.1886 -23.1886 -23.1861 -23.1790 -23.1686 -23.1310 -23.1238 -23.0886
   -23.0885 -23.0696 -23.0695 -23.0573 -23.0573 -23.0522 -23.0078 -23.0028
    12.5804  14.4981  14.4981  15.1112  15.6277  15.6277  15.7138  15.7170
    15.7185  15.7257  15.7257  15.7941  16.0941  16.2664  16.2664  16.6866
    16.7712  16.8741  16.8741  17.2141  17.2914  17.2915  17.3058  17.3421
    17.3421  17.3615  17.4373  17.5971  17.7541  17.8279  17.8523  18.2582
    18.2582  18.3846  18.3846  18.3946  18.4202  18.4435  18.4988  18.6447
    18.8860  18.8860  18.9584  18.9584  19.1160  19.2193  19.2193  19.3519
    19.8187  19.8188  19.8967  19.9463  19.9905  19.9905  20.2599  20.3797
    20.3797  20.5718  20.6952  20.6952  20.7393  20.7587  20.7587  20.7777
    20.8621  21.0841  21.0878  21.0892  21.2187  21.2283

          k = 0.0556 0.2778 0.3889 ( 12541 PWs)   bands (ev):

   -52.1935 -52.1482 -52.1120 -52.0875 -52.0557 -52.0462 -52.0383 -52.0322
   -52.0309 -52.0297 -52.0273 -52.0231 -52.0001 -51.9873 -51.9610 -51.9265
   -23.8610 -23.8240 -23.8224 -23.8150 -23.8006 -23.7711 -23.7487 -23.7374
   -23.7367 -23.7257 -23.7154 -23.7121 -23.7032 -23.5657 -23.5565 -23.4885
   -23.4827 -23.4575 -23.4270 -23.4006 -23.3885 -23.3877 -23.3871 -23.3854
   -23.3775 -23.3663 -23.3425 -23.3189 -23.3170 -23.2757 -23.2477 -23.2267
   -23.1981 -23.1695 -23.1664 -23.1486 -23.1454 -23.1362 -23.1053 -23.0885
   -23.0861 -23.0859 -23.0763 -23.0680 -23.0534 -23.0532 -23.0126 -23.0091
    12.9472  13.9367  14.6781  15.0002  15.7196  15.7965  15.8746  15.8758
    15.8862  15.9236  16.0009  16.0125  16.1173  16.1916  16.2083  16.5507
    16.5572  16.5744  17.1449  17.1777  17.2270  17.2347  17.2622  17.3785
    17.4239  17.4682  17.5383  17.5659  17.9263  17.9585  17.9914  18.0231
    18.1142  18.2443  18.2506  18.3183  18.3398  18.3435  18.4580  18.4724
    18.5106  18.5911  18.5959  18.6042  18.7388  18.8211  19.5585  19.5820
[...]
    20.5231  20.5232  20.5313  20.5315  20.6241  20.6243  20.7930  20.7932
    20.8158  20.8161  20.9646  20.9649  21.0051  21.0052

          k = 0.1667-0.5000-0.5000 ( 12516 PWs)   bands (ev):

   -52.1386 -52.1385 -52.1382 -52.1381 -52.0601 -52.0600 -52.0598 -52.0597
   -52.0132 -52.0131 -52.0128 -52.0128 -51.9639 -51.9638 -51.9635 -51.9635
   -23.7810 -23.7810 -23.7809 -23.7809 -23.7662 -23.7661 -23.7660 -23.7659
   -23.7375 -23.7374 -23.7373 -23.7372 -23.5188 -23.5187 -23.5185 -23.5184
   -23.4996 -23.4996 -23.4996 -23.4996 -23.4932 -23.4932 -23.4931 -23.4931
   -23.2935 -23.2935 -23.2934 -23.2934 -23.2881 -23.2881 -23.2880 -23.2880
   -23.1445 -23.1444 -23.1442 -23.1441 -23.1112 -23.1111 -23.1110 -23.1110
   -23.0953 -23.0952 -23.0951 -23.0950 -23.0170 -23.0170 -23.0169 -23.0169
    14.1976  14.1977  14.1981  14.1982  16.0510  16.0511  16.0514  16.0514
    16.2380  16.2380  16.2383  16.2383  16.5885  16.5885  16.5886  16.5887
    16.8690  16.8691  16.8694  16.8695  17.1825  17.1825  17.1827  17.1828
    17.3446  17.3446  17.3447  17.3448  17.7806  17.7806  17.7807  17.7807
    17.8808  17.8808  17.8809  17.8809  17.9960  17.9960  17.9960  17.9960
    18.2537  18.2538  18.2538  18.2539  18.7858  18.7858  18.7858  18.7858
    20.4088  20.4089  20.4089  20.4090  20.5356  20.5357  20.5358  20.5359
    20.6734  20.6734  20.6736  20.6737  20.6755  20.6755  20.6757  20.6757
    20.7039  20.7039  20.7039  20.7039  20.9441  20.9443

          k = 0.2778 0.2778 0.2778 ( 12551 PWs)   bands (ev):

   -52.1941 -52.1121 -52.1121 -52.1121 -52.0676 -52.0676 -52.0676 -52.0411
   -52.0137 -52.0090 -52.0089 -52.0089 -51.9865 -51.9865 -51.9865 -51.9252
   -23.8467 -23.8467 -23.8467 -23.7691 -23.7691 -23.7691 -23.7402 -23.7357
   -23.7356 -23.7356 -23.6652 -23.6652 -23.6276 -23.6276 -23.5438 -23.5438
   -23.5438 -23.4903 -23.4903 -23.4903 -23.4404 -23.4278 -23.4278 -23.4278
   -23.2662 -23.2570 -23.2569 -23.2569 -23.2542 -23.2542 -23.2535 -23.2535
   -23.2535 -23.1947 -23.1947 -23.1947 -23.1377 -23.1098 -23.1098 -23.1098
   -23.0706 -23.0705 -23.0705 -23.0460 -23.0460 -23.0460 -23.0326 -23.0326
    12.9528  14.7641  14.7641  14.7641  15.4717  15.4717  15.4717  15.9597
    15.9597  16.0124  16.0124  16.0124  16.5196  16.5196  16.5196  16.6716
    16.8266  16.8266  16.8266  17.0980  17.1552  17.1552  17.3574  17.3574
    17.3575  17.5866  17.5866  17.5866  17.6010  17.6010  17.9510  17.9510
    17.9510  18.1660  18.1661  18.1661  18.2785  18.2785  18.2785  18.3575
    18.3575  18.5235  18.5235  18.5235  18.6510  18.6511  18.6511  19.7665
    19.9307  20.0606  20.0606  20.0606  20.3247  20.3247  20.3248  20.5108
    20.5108  20.5108  20.7145  20.7145  20.7766  20.7766  20.7766  20.9178
    20.9179  20.9179  21.1000  21.1001  21.1005  21.1057

          k = 0.2778 0.2778 0.3889 ( 12507 PWs)   bands (ev):

   -52.1788 -52.1369 -52.1035 -52.1035 -52.0807 -52.0807 -52.0623 -52.0485
   -52.0113 -52.0092 -52.0011 -52.0011 -51.9899 -51.9899 -51.9665 -51.9357
   -23.8229 -23.8229 -23.8070 -23.7616 -23.7607 -23.7607 -23.7472 -23.7340
   -23.7165 -23.7165 -23.6966 -23.6956 -23.6333 -23.5986 -23.5986 -23.5816
   -23.5442 -23.4952 -23.4952 -23.4773 -23.4744 -23.4596 -23.4595 -23.3933
   -23.3310 -23.2991 -23.2647 -23.2638 -23.2335 -23.2335 -23.2105 -23.2105
   -23.2029 -23.2028 -23.1888 -23.1435 -23.1380 -23.1380 -23.1202 -23.1063
   -23.0831 -23.0613 -23.0597 -23.0597 -23.0495 -23.0466 -23.0466 -23.0299
    13.3060  14.2438  14.9805  14.9805  15.3606  15.3606  15.8088  16.1196
    16.1633  16.1902  16.1902  16.2694  16.5097  16.5111  16.5111  16.5632
    16.6629  16.6708  17.0162  17.0162  17.1802  17.2937  17.3986  17.4187
    17.4301  17.4691  17.4691  17.6717  17.6718  17.7846  17.7864  17.7864
    17.9706  17.9706  18.0455  18.0455  18.0788  18.1200  18.1304  18.1411
    18.2251  18.2321  18.2321  18.2803  18.3518  18.3519  18.8246  19.4981
    20.0428  20.2266  20.2760  20.2760  20.3901  20.3901  20.4446  20.4446
    20.5757  20.6296  20.6449  20.6757  20.6757  20.6931  20.8404  20.8415
    21.0183  21.0194  21.1048  21.1048  21.1068  21.1108

          k = 0.2778 0.2778-0.5000 ( 12538 PWs)   bands (ev):

   -52.1596 -52.1593 -52.0931 -52.0930 -52.0927 -52.0926 -52.0559 -52.0556
   -52.0101 -52.0098 -51.9950 -51.9949 -51.9946 -51.9945 -51.9497 -51.9493
   -23.7923 -23.7923 -23.7922 -23.7922 -23.7564 -23.7560 -23.7543 -23.7540
   -23.7203 -23.7202 -23.6583 -23.6582 -23.6581 -23.6581 -23.5927 -23.5924
   -23.5305 -23.5303 -23.4837 -23.4836 -23.4834 -23.4834 -23.4021 -23.4021
   -23.3460 -23.3458 -23.2677 -23.2675 -23.2158 -23.2158 -23.2156 -23.2155
   -23.1718 -23.1718 -23.1716 -23.1716 -23.1314 -23.1311 -23.1096 -23.1094
   -23.0989 -23.0986 -23.0513 -23.0513 -23.0513 -23.0512 -23.0359 -23.0358
    13.7455  13.7460  15.1933  15.1934  15.1937  15.1937  16.2202  16.2206
    16.3235  16.3239  16.3677  16.3677  16.3679  16.3679  16.3681  16.3684
    16.5242  16.5245  17.2301  17.2304  17.3347  17.3348  17.3665  17.3665
    17.3669  17.3669  17.6196  17.6196  17.6198  17.6198  17.7535  17.7536
    17.9709  17.9711  18.0568  18.0569  18.0569  18.0570  18.0926  18.0927
    18.0927  18.0928  18.1412  18.1413  18.1869  18.1871  19.1158  19.1159
    20.3395  20.3395  20.4069  20.4071  20.4117  20.4117  20.4118  20.4118
    20.4938  20.4938  20.4940  20.4940  20.8694  20.8697  20.9259  20.9263
    20.9864  20.9866  20.9880  20.9883  21.1109  21.1112

          k = 0.2778 0.3889 0.3889 ( 12517 PWs)   bands (ev):

   -52.1647 -52.1262 -52.1262 -52.0974 -52.0955 -52.0743 -52.0743 -52.0577
   -52.0073 -52.0023 -52.0023 -51.9928 -51.9894 -51.9722 -51.9721 -51.9449
   -23.8046 -23.7870 -23.7870 -23.7592 -23.7523 -23.7523 -23.7391 -23.7220
   -23.7220 -23.7080 -23.7018 -23.6592 -23.6358 -23.6288 -23.5955 -23.5486
   -23.5485 -23.5331 -23.5331 -23.5224 -23.5109 -23.5108 -23.5001 -23.3946
   -23.3449 -23.2530 -23.2530 -23.2402 -23.2367 -23.2367 -23.2086 -23.1990
   -23.1759 -23.1716 -23.1651 -23.1528 -23.1528 -23.1232 -23.1232 -23.1140
   -23.0796 -23.0796 -23.0764 -23.0662 -23.0458 -23.0457 -23.0429 -23.0356
    13.6429  14.5154  14.5154  15.1137  15.2355  15.6940  15.6940  16.2577
    16.3322  16.3722  16.4519  16.4519  16.4723  16.5067  16.5067  16.7324
    16.7506  16.8296  16.8297  16.9523  17.2592  17.3581  17.3586  17.3924
    17.3925  17.4547  17.4547  17.5515  17.5606  17.6513  17.7007  17.8742
    17.8782  17.8782  17.8817  17.8817  17.8925  17.8926  17.9101  18.0267
    18.0267  18.0735  18.0850  18.1051  18.1714  18.4579  18.4580  19.0707
    20.3534  20.4055  20.4055  20.4308  20.4672  20.5546  20.6233  20.6311
    20.6311  20.6623  20.6623  20.6798  20.7542  20.7542  20.8225  20.9552
    20.9851  20.9852  20.9889  21.0194  21.0899  21.1011

          k = 0.2778 0.3889-0.5000 ( 12534 PWs)   bands (ev):

   -52.1471 -52.1467 -52.1130 -52.1127 -52.0857 -52.0854 -52.0667 -52.0663
   -52.0045 -52.0042 -51.9971 -51.9967 -51.9799 -51.9796 -51.9572 -51.9569
   -23.7788 -23.7788 -23.7684 -23.7683 -23.7435 -23.7432 -23.7329 -23.7328
   -23.7300 -23.7297 -23.6786 -23.6785 -23.5966 -23.5965 -23.5949 -23.5945
   -23.5607 -23.5606 -23.5318 -23.5316 -23.5281 -23.5279 -23.4637 -23.4636
   -23.2979 -23.2977 -23.2380 -23.2379 -23.2190 -23.2189 -23.2102 -23.2100
   -23.1719 -23.1716 -23.1465 -23.1464 -23.1212 -23.1209 -23.1151 -23.1149
   -23.1100 -23.1097 -23.0734 -23.0733 -23.0430 -23.0429 -23.0383 -23.0383
    14.0564  14.0569  14.8201  14.8205  15.4942  15.4945  16.0889  16.0893
    16.3960  16.3963  16.4404  16.4406  16.6129  16.6132  16.6390  16.6392
    16.6963  16.6966  17.1825  17.1829  17.2086  17.2090  17.3064  17.3064
    17.3179  17.3180  17.5191  17.5193  17.5794  17.5795  17.6978  17.6979
    17.7797  17.7799  17.7997  17.7999  17.9153  17.9153  17.9652  17.9652
    18.0039  18.0040  18.0831  18.0833  18.1458  18.1458  18.7076  18.7076
    20.5357  20.5359  20.5447  20.5447  20.5768  20.5770  20.6020  20.6022
    20.6321  20.6322  20.6852  20.6852  20.8536  20.8539  20.8553  20.8556
    20.9286  20.9288  20.9329  20.9333  21.0211  21.0214

          k = 0.2778-0.5000-0.5000 ( 12528 PWs)   bands (ev):

   -52.1313 -52.1312 -52.1310 -52.1309 -52.0768 -52.0767 -52.0765 -52.0764
   -52.0002 -52.0002 -51.9999 -51.9998 -51.9674 -51.9673 -51.9670 -51.9670
   -23.7565 -23.7565 -23.7564 -23.7564 -23.7479 -23.7479 -23.7477 -23.7476
   -23.7035 -23.7035 -23.7034 -23.7033 -23.5711 -23.5710 -23.5708 -23.5708
   -23.5591 -23.5591 -23.5590 -23.5590 -23.5302 -23.5302 -23.5302 -23.5301
   -23.2524 -23.2523 -23.2522 -23.2522 -23.2243 -23.2243 -23.2242 -23.2242
   -23.1356 -23.1356 -23.1354 -23.1353 -23.1274 -23.1274 -23.1273 -23.1272
   -23.0991 -23.0990 -23.0989 -23.0988 -23.0393 -23.0393 -23.0392 -23.0392
    14.4274  14.4275  14.4278  14.4279  15.8218  15.8219  15.8222  15.8223
    16.4405  16.4406  16.4408  16.4409  16.8270  16.8270  16.8271  16.8272
    16.9075  16.9076  16.9079  16.9080  17.1326  17.1326  17.1329  17.1329
    17.4215  17.4215  17.4216  17.4216  17.6056  17.6057  17.6058  17.6058
    17.7919  17.7920  17.7920  17.7920  17.8098  17.8098  17.8099  17.8099
    18.0184  18.0184  18.0185  18.0185  18.3672  18.3672  18.3672  18.3672
    20.6141  20.6142  20.6144  20.6144  20.7313  20.7313  20.7316  20.7316
    20.7373  20.7373  20.7374  20.7374  20.7882  20.7882  20.7883  20.7883
    20.9254  20.9255  20.9258  20.9258  21.0465  21.0465

          k = 0.3889 0.3889 0.3889 ( 12559 PWs)   bands (ev):

   -52.1517 -52.1163 -52.1163 -52.1163 -52.0897 -52.0897 -52.0897 -52.0693
   -52.0008 -51.9921 -51.9920 -51.9920 -51.9770 -51.9770 -51.9770 -51.9529
   -23.7668 -23.7668 -23.7668 -23.7423 -23.7422 -23.7422 -23.7193 -23.6764
   -23.6764 -23.6764 -23.6743 -23.6743 -23.6605 -23.6605 -23.5801 -23.5801
   -23.5801 -23.5773 -23.5773 -23.5773 -23.5557 -23.5556 -23.5556 -23.4519
   -23.2979 -23.2127 -23.2127 -23.2127 -23.1953 -23.1952 -23.1952 -23.1782
   -23.1782 -23.1540 -23.1540 -23.1540 -23.1471 -23.1471 -23.1471 -23.1177
   -23.0781 -23.0781 -23.0781 -23.0665 -23.0665 -23.0606 -23.0606 -23.0606
    13.9724  14.8079  14.8079  14.8079  15.4496  15.4496  15.4496  16.2358
    16.4860  16.4860  16.6119  16.6119  16.6119  16.7859  16.7859  16.7859
    16.8186  16.8186  16.8186  16.9231  17.3176  17.3176  17.4219  17.4219
    17.4800  17.4800  17.4800  17.5222  17.5222  17.5222  17.5997  17.5997
    17.5997  17.7622  17.7623  17.7623  17.7683  17.7683  17.7684  17.8250
    17.8251  17.8251  17.9912  17.9912  18.0987  18.0987  18.0987  18.6424
    20.5401  20.5401  20.5401  20.6952  20.7291  20.7291  20.7291  20.7467
    20.7467  20.7638  20.7638  20.7638  20.7998  20.7998  20.7998  20.9821
    20.9821  21.0144  21.0145  21.0145  21.0353  21.0353

          k = 0.3889 0.3889-0.5000 ( 12528 PWs)   bands (ev):

   -52.1355 -52.1351 -52.1041 -52.1041 -52.1037 -52.1037 -52.0803 -52.0799
   -51.9960 -51.9956 -51.9838 -51.9838 -51.9834 -51.9834 -51.9638 -51.9635
   -23.7472 -23.7472 -23.7471 -23.7470 -23.7183 -23.7179 -23.7130 -23.7129
   -23.6974 -23.6972 -23.6314 -23.6310 -23.6268 -23.6268 -23.6266 -23.6266
   -23.6106 -23.6105 -23.5828 -23.5828 -23.5827 -23.5826 -23.5144 -23.5143
   -23.2536 -23.2534 -23.1884 -23.1883 -23.1771 -23.1771 -23.1769 -23.1769
   -23.1668 -23.1667 -23.1666 -23.1666 -23.1291 -23.1290 -23.1238 -23.1234
   -23.1063 -23.1060 -23.0726 -23.0726 -23.0725 -23.0725 -23.0608 -23.0607
    14.3726  14.3730  15.1376  15.1376  15.1380  15.1380  15.8472  15.8477
    16.6268  16.6271  16.7081  16.7084  16.7323  16.7323  16.7326  16.7326
    16.9029  16.9032  17.1570  17.1571  17.1574  17.1575  17.3489  17.3489
    17.3946  17.3949  17.4784  17.4787  17.4891  17.4893  17.6082  17.6083
    17.6085  17.6085  17.7443  17.7443  17.7445  17.7445  17.8023  17.8023
    17.8024  17.8025  17.8676  17.8677  17.8829  17.8832  18.2917  18.2917
    20.6497  20.6500  20.6784  20.6784  20.6786  20.6787  20.8078  20.8078
    20.8078  20.8079  20.8686  20.8689  20.8903  20.8906  20.9520  20.9523
    21.0022  21.0025  21.0048  21.0048  21.0051  21.0052

          k = 0.3889-0.5000-0.5000 ( 12552 PWs)   bands (ev):

   -52.1209 -52.1209 -52.1206 -52.1205 -52.0930 -52.0929 -52.0927 -52.0926
   -51.9891 -51.9890 -51.9888 -51.9887 -51.9727 -51.9726 -51.9724 -51.9723
   -23.7207 -23.7207 -23.7206 -23.7206 -23.7167 -23.7166 -23.7164 -23.7164
   -23.6619 -23.6618 -23.6617 -23.6617 -23.6250 -23.6249 -23.6247 -23.6246
   -23.6203 -23.6203 -23.6202 -23.6202 -23.5705 -23.5705 -23.5704 -23.5704
   -23.2129 -23.2129 -23.2128 -23.2127 -23.1662 -23.1662 -23.1661 -23.1661
   -23.1497 -23.1496 -23.1495 -23.1495 -23.1252 -23.1252 -23.1250 -23.1249
   -23.1061 -23.1061 -23.1059 -23.1058 -23.0723 -23.0723 -23.0722 -23.0722
    14.7475  14.7476  14.7479  14.7480  15.5027  15.5028  15.5031  15.5032
    16.7177  16.7177  16.7180  16.7180  16.9593  16.9594  16.9597  16.9597
    17.0740  17.0741  17.0743  17.0743  17.0774  17.0775  17.0777  17.0778
    17.5128  17.5128  17.5129  17.5129  17.5354  17.5354  17.5354  17.5354
    17.5429  17.5430  17.5431  17.5431  17.7169  17.7169  17.7170  17.7170
    17.7873  17.7873  17.7874  17.7874  17.9525  17.9525  17.9526  17.9526
    20.7215  20.7216  20.7218  20.7218  20.7934  20.7934  20.7937  20.7937
    20.8943  20.8943  20.8946  20.8946  20.9733  20.9733  20.9734  20.9734
    20.9852  20.9853  20.9855  20.9856  21.0192  21.0193

          k =-0.5000-0.5000-0.5000 ( 12568 PWs)   bands (ev):

   -52.1080 -52.1079 -52.1079 -52.1079 -52.1076 -52.1076 -52.1075 -52.1075
   -51.9800 -51.9799 -51.9799 -51.9799 -51.9796 -51.9796 -51.9795 -51.9794
   -23.6752 -23.6752 -23.6751 -23.6750 -23.6750 -23.6750 -23.6750 -23.6749
   -23.6748 -23.6748 -23.6747 -23.6747 -23.6747 -23.6747 -23.6746 -23.6746
   -23.6160 -23.6160 -23.6159 -23.6159 -23.6157 -23.6157 -23.6157 -23.6157
   -23.1784 -23.1784 -23.1784 -23.1783 -23.1782 -23.1782 -23.1782 -23.1781
   -23.1151 -23.1151 -23.1150 -23.1149 -23.1149 -23.1149 -23.1149 -23.1148
   -23.1147 -23.1147 -23.1146 -23.1146 -23.1146 -23.1146 -23.1146 -23.1145
    15.1235  15.1237  15.1237  15.1238  15.1240  15.1241  15.1241  15.1242
    17.0180  17.0180  17.0181  17.0181  17.0181  17.0181  17.0182  17.0182
    17.0184  17.0184  17.0184  17.0184  17.0185  17.0185  17.0185  17.0185
    17.5940  17.5940  17.5940  17.5940  17.5941  17.5942  17.5942  17.5942
    17.6139  17.6139  17.6139  17.6141  17.6141  17.6141  17.6141  17.6141
    17.6143  17.6143  17.6143  17.6143  17.6143  17.6143  17.6143  17.6144
    20.8496  20.8496  20.8496  20.8496  20.8496  20.8497  20.8497  20.8497
    20.8499  20.8500  20.8500  20.8500  20.8500  20.8500  20.8500  20.8501
    21.2271  21.2271  21.2272  21.2273  21.2273  21.2273

     the Fermi energy is    19.6237 ev

!    total energy              =   -3971.54124065 Ry
     Harris-Foulkes estimate   =   -3971.54123129 Ry
     estimated scf accuracy    <       0.00000057 Ry

     total all-electron energy =    -33628.064120 Ry

     The total energy is the sum of the following terms:

     one-electron contribution =    -881.12694153 Ry
     hartree contribution      =     578.56766615 Ry
     xc contribution           =    -356.59677934 Ry
     ewald contribution        =   -2124.42745097 Ry
     one-center paw contrib.   =   -1187.97772339 Ry
     smearing contrib. (-TS)   =       0.01998844 Ry

     total magnetization       =     0.00 Bohr mag/cell
     absolute magnetization    =     0.02 Bohr mag/cell

     convergence has been achieved in  16 iterations

     Forces acting on atoms (cartesian axes, Ry/au):

     atom    1 type  1   force =     0.00000000    0.00000000    0.00000000
     atom    2 type  2   force =    -0.00010756   -0.00010756   -0.00010756
     atom    3 type  1   force =     0.00000000    0.00000000    0.00000000
     atom    4 type  2   force =    -0.00010756   -0.00010756    0.00010756
     atom    5 type  1   force =     0.00000000    0.00000000   -0.00000000
     atom    6 type  2   force =    -0.00010756    0.00010756   -0.00010756
     atom    7 type  1   force =     0.00000000    0.00000000    0.00000000
     atom    8 type  2   force =    -0.00010756    0.00010756    0.00010756
     atom    9 type  1   force =     0.00000000   -0.00000000    0.00000000
     atom   10 type  2   force =     0.00010756   -0.00010756   -0.00010756
     atom   11 type  1   force =     0.00000000    0.00000000    0.00000000
     atom   12 type  2   force =     0.00010756   -0.00010756    0.00010756
     atom   13 type  1   force =     0.00000000    0.00000000    0.00000000
     atom   14 type  2   force =     0.00010756    0.00010756   -0.00010756
     atom   15 type  1   force =     0.00000000    0.00000000    0.00000000
     atom   16 type  2   force =     0.00010756    0.00010756    0.00010756

     Total force =     0.000527     Total SCF correction =     0.002521
     SCF correction compared to forces is large: reduce conv_thr to get better values


     Computing stress (Cartesian axis) and pressure

          total   stress  (Ry/bohr**3)                   (kbar)     P=    3.72
   0.00002531   0.00000000   0.00000000          3.72      0.00      0.00
   0.00000000   0.00002531   0.00000000          0.00      3.72      0.00
   0.00000000   0.00000000   0.00002531          0.00      0.00      3.72


     Writing output data file IKUmyiBCNBLrOmjN.save/
 
     init_run     :      9.74s CPU     10.12s WALL (       1 calls)
     electrons    :    585.15s CPU    597.93s WALL (       1 calls)
     forces       :      3.22s CPU      3.39s WALL (       1 calls)
     stress       :     12.44s CPU     12.49s WALL (       1 calls)

     Called by init_run:
     wfcinit      :      9.00s CPU      9.31s WALL (       1 calls)
     potinit      :      0.35s CPU      0.37s WALL (       1 calls)
     hinit0       :      0.14s CPU      0.15s WALL (       1 calls)

     Called by electrons:
     c_bands      :    529.73s CPU    539.88s WALL (      17 calls)
     sum_band     :     49.01s CPU     51.15s WALL (      17 calls)
     v_of_rho     :      0.53s CPU      0.56s WALL (      17 calls)
     newd         :      1.14s CPU      1.37s WALL (      17 calls)
     PAW_pot      :      4.86s CPU      5.08s WALL (      17 calls)
     mix_rho      :      0.14s CPU      0.15s WALL (      17 calls)

     Called by c_bands:
     init_us_2    :      3.25s CPU      3.29s WALL (    2590 calls)
     cegterg      :    510.95s CPU    520.96s WALL (    1190 calls)

     Called by sum_band:
     sum_band:bec :      0.51s CPU      0.52s WALL (    1190 calls)
     addusdens    :      2.05s CPU      2.37s WALL (      17 calls)

     Called by *egterg:
     h_psi        :    218.75s CPU    225.94s WALL (    5325 calls)
     s_psi        :     19.83s CPU     19.89s WALL (    5325 calls)
     g_psi        :      1.13s CPU      1.13s WALL (    4065 calls)
     cdiaghg      :    209.24s CPU    209.54s WALL (    5185 calls)

     Called by h_psi:
     h_psi:pot    :    217.55s CPU    224.72s WALL (    5325 calls)
     h_psi:calbec :     22.22s CPU     23.89s WALL (    5325 calls)
     vloc_psi     :    175.72s CPU    181.13s WALL (    5325 calls)
     add_vuspsi   :     19.56s CPU     19.67s WALL (    5325 calls)

     General routines
     calbec       :     32.90s CPU     35.44s WALL (    6865 calls)
     fft          :      0.41s CPU      0.46s WALL (     467 calls)
     ffts         :      0.03s CPU      0.04s WALL (      68 calls)
     fftw         :    197.07s CPU    203.09s WALL (  969948 calls)
     interpolate  :      0.05s CPU      0.06s WALL (      34 calls)
 
     Parallel routines
     fft_scatt_xy :     14.89s CPU     15.38s WALL (  970483 calls)
     fft_scatt_yz :    103.62s CPU    106.93s WALL (  970483 calls)
 
     PWSCF        : 10m15.39s CPU    10m38.08s WALL

 
   This run was terminated on:   6: 7:37  15Jun2020            

=------------------------------------------------------------------------------=
   JOB DONE.
=------------------------------------------------------------------------------=
