
     Program PWSCF v.6.3 starts on 15Jun2020 at  4:36:26 

     This program is part of the open-source Quantum ESPRESSO suite
     for quantum simulation of materials; please cite
         "P. Giannozzi et al., J. Phys.:Condens. Matter 21 395502 (2009);
         "P. Giannozzi et al., J. Phys.:Condens. Matter 29 465901 (2017);
          URL http://www.quantum-espresso.org", 
     in publications or presentations arising from this work. More details at
     http://www.quantum-espresso.org/quote

     Parallel version (MPI & OpenMP), running on      20 processor cores
     Number of MPI processes:                20
     Threads/MPI process:                     1

     MPI processes distributed on     1 nodes
     R & G space division:  proc/nbgrp/npool/nimage =      20
     Reading input from wd/eos/eos_002.in
Warning: card &IONS ignored
Warning: card ION_DYNAMICS = 'BFGS', ignored
Warning: card / ignored
Warning: card &CELL ignored
Warning: card CELL_DYNAMICS = 'BFGS', ignored
Warning: card CELL_FACTOR = 2.0, ignored
Warning: card PRESS = 0.0, ignored
Warning: card / ignored

     Current dimensions of program PWSCF are:
     Max number of different atomic species (ntypx) = 10
     Max number of k-points (npk) =  40000
     Max angular momentum in pseudopotentials (lmaxx) =  3
     Message from routine read_upf::
     Pseudo file /rds/homes/b/bxp912/pp/Cr.pbe-spn-kjpaw_psl.1.0.0.UPF has been successfully fixed on the fly.
To avoid this message in the future you can permanently fix 
 your pseudo files following instructions given in: 
https://gitlab.com/QEF/q-e/blob/master/upftools/how_to_fix_upf.md
               file Cr.pbe-spn-kjpaw_psl.1.0.0.UPF: wavefunction(s)  3S 3P 3D renormalized
     Message from routine read_upf::
     Pseudo file /rds/homes/b/bxp912/pp/Cr.pbe-spn-kjpaw_psl.1.0.0.UPF has been successfully fixed on the fly.
To avoid this message in the future you can permanently fix 
 your pseudo files following instructions given in: 
https://gitlab.com/QEF/q-e/blob/master/upftools/how_to_fix_upf.md
               file Cr.pbe-spn-kjpaw_psl.1.0.0.UPF: wavefunction(s)  3S 3P 3D renormalized

     Subspace diagonalization in iterative solution of the eigenvalue problem:
     a serial algorithm will be used

     Found symmetry operation: I + (  0.0000  0.0000  0.5000)
     This is a supercell, fractional translations are disabled
 
     Parallelization info
     --------------------
     sticks:   dense  smooth     PW     G-vecs:    dense   smooth      PW
     Min         190     126     35                 8874     4758     707
     Max         191     127     37                 8879     4761     709
     Sum        3809    2537    709               177509    95193   14147
 


     bravais-lattice index     =            0
     lattice parameter (alat)  =      10.7442  a.u.
     unit-cell volume          =    1177.5880 (a.u.)^3
     number of atoms/cell      =           16
     number of atomic types    =            2
     number of electrons       =       224.00
     number of Kohn-Sham states=          134
     kinetic-energy cutoff     =      71.0000  Ry
     charge density cutoff     =     430.0000  Ry
     convergence threshold     =      1.0E-06
     mixing beta               =       0.1000
     number of iterations used =           10  plain     mixing
     Exchange-correlation      = SLA PW PBX PBC ( 1  4  3  4 0 0)

     celldm(1)=  10.744199  celldm(2)=   0.000000  celldm(3)=   0.000000
     celldm(4)=   0.000000  celldm(5)=   0.000000  celldm(6)=   0.000000

     crystal axes: (cart. coord. in units of alat)
               a(1) = (   0.982857   0.000000   0.000000 )  
               a(2) = (   0.000000   0.982857   0.000000 )  
               a(3) = (   0.000000   0.000000   0.982857 )  

     reciprocal axes: (cart. coord. in units 2 pi/alat)
               b(1) = (  1.017442  0.000000  0.000000 )  
               b(2) = (  0.000000  1.017442  0.000000 )  
               b(3) = (  0.000000  0.000000  1.017442 )  


     PseudoPot. # 1 for Cr read from file:
     /rds/homes/b/bxp912/pp/Cr.pbe-spn-kjpaw_psl.1.0.0.UPF
     MD5 check sum: cb1c17117da000fe5e03c4f1a6841d9c
     Pseudo is Projector augmented-wave + core cor, Zval = 14.0
     Generated using "atomic" code by A. Dal Corso v.5.1
     Shape of augmentation charge: PSQ
     Using radial grid of 1183 points,  6 beta functions with: 
                l(1) =   0
                l(2) =   0
                l(3) =   1
                l(4) =   1
                l(5) =   2
                l(6) =   2
     Q(r) pseudized with 0 coefficients 


     PseudoPot. # 2 for Cr read from file:
     /rds/homes/b/bxp912/pp/Cr.pbe-spn-kjpaw_psl.1.0.0.UPF
     MD5 check sum: cb1c17117da000fe5e03c4f1a6841d9c
     Pseudo is Projector augmented-wave + core cor, Zval = 14.0
     Generated using "atomic" code by A. Dal Corso v.5.1
     Shape of augmentation charge: PSQ
     Using radial grid of 1183 points,  6 beta functions with: 
                l(1) =   0
                l(2) =   0
                l(3) =   1
                l(4) =   1
                l(5) =   2
                l(6) =   2
     Q(r) pseudized with 0 coefficients 


     atomic species   valence    mass     pseudopotential
        Cr1           14.00    55.84500     Cr( 1.00)
        Cr2           14.00    55.84500     Cr( 1.00)

     Starting magnetic structure 
     atomic species   magnetization
        Cr1          0.100
        Cr2          0.100

     48 Sym. Ops., with inversion, found



   Cartesian axes

     site n.     atom                  positions (alat units)
         1           Cr1 tau(   1) = (   0.0000000   0.0000000   0.0000000  )
         2           Cr2 tau(   2) = (   0.2457147   0.2457147   0.2457143  )
         3           Cr1 tau(   3) = (   0.0000000   0.0000000   0.4914276  )
         4           Cr2 tau(   4) = (   0.2457147   0.2457147   0.7371419  )
         5           Cr1 tau(   5) = (   0.0000000   0.4914285   0.0000000  )
         6           Cr2 tau(   6) = (   0.2457147   0.7371422   0.2457143  )
         7           Cr1 tau(   7) = (   0.0000000   0.4914285   0.4914276  )
         8           Cr2 tau(   8) = (   0.2457147   0.7371422   0.7371419  )
         9           Cr1 tau(   9) = (   0.4914285   0.0000000   0.0000000  )
        10           Cr2 tau(  10) = (   0.7371422   0.2457147   0.2457143  )
        11           Cr1 tau(  11) = (   0.4914285   0.0000000   0.4914276  )
        12           Cr2 tau(  12) = (   0.7371422   0.2457147   0.7371419  )
        13           Cr1 tau(  13) = (   0.4914285   0.4914285   0.0000000  )
        14           Cr2 tau(  14) = (   0.7371422   0.7371422   0.2457143  )
        15           Cr1 tau(  15) = (   0.4914285   0.4914285   0.4914276  )
        16           Cr2 tau(  16) = (   0.7371422   0.7371422   0.7371419  )

     number of k points=    35  Marzari-Vanderbilt smearing, width (Ry)=  0.0400
                       cart. coord. in units 2pi/alat
        k(    1) = (   0.0565245   0.0565245   0.0565245), wk =   0.0109739
        k(    2) = (   0.0565245   0.0565245   0.1695736), wk =   0.0329218
        k(    3) = (   0.0565245   0.0565245   0.2826227), wk =   0.0329218
        k(    4) = (   0.0565245   0.0565245   0.3956718), wk =   0.0329218
        k(    5) = (   0.0565245   0.0565245  -0.5087209), wk =   0.0164609
        k(    6) = (   0.0565245   0.1695736   0.1695736), wk =   0.0329218
        k(    7) = (   0.0565245   0.1695736   0.2826227), wk =   0.0658436
        k(    8) = (   0.0565245   0.1695736   0.3956718), wk =   0.0658436
        k(    9) = (   0.0565245   0.1695736  -0.5087209), wk =   0.0329218
        k(   10) = (   0.0565245   0.2826227   0.2826227), wk =   0.0329218
        k(   11) = (   0.0565245   0.2826227   0.3956718), wk =   0.0658436
        k(   12) = (   0.0565245   0.2826227  -0.5087209), wk =   0.0329218
        k(   13) = (   0.0565245   0.3956718   0.3956718), wk =   0.0329218
        k(   14) = (   0.0565245   0.3956718  -0.5087209), wk =   0.0329218
        k(   15) = (   0.0565245  -0.5087209  -0.5087209), wk =   0.0082305
        k(   16) = (   0.1695736   0.1695736   0.1695736), wk =   0.0109739
        k(   17) = (   0.1695736   0.1695736   0.2826227), wk =   0.0329218
        k(   18) = (   0.1695736   0.1695736   0.3956718), wk =   0.0329218
        k(   19) = (   0.1695736   0.1695736  -0.5087209), wk =   0.0164609
        k(   20) = (   0.1695736   0.2826227   0.2826227), wk =   0.0329218
        k(   21) = (   0.1695736   0.2826227   0.3956718), wk =   0.0658436
        k(   22) = (   0.1695736   0.2826227  -0.5087209), wk =   0.0329218
        k(   23) = (   0.1695736   0.3956718   0.3956718), wk =   0.0329218
        k(   24) = (   0.1695736   0.3956718  -0.5087209), wk =   0.0329218
        k(   25) = (   0.1695736  -0.5087209  -0.5087209), wk =   0.0082305
        k(   26) = (   0.2826227   0.2826227   0.2826227), wk =   0.0109739
        k(   27) = (   0.2826227   0.2826227   0.3956718), wk =   0.0329218
        k(   28) = (   0.2826227   0.2826227  -0.5087209), wk =   0.0164609
        k(   29) = (   0.2826227   0.3956718   0.3956718), wk =   0.0329218
        k(   30) = (   0.2826227   0.3956718  -0.5087209), wk =   0.0329218
        k(   31) = (   0.2826227  -0.5087209  -0.5087209), wk =   0.0082305
        k(   32) = (   0.3956718   0.3956718   0.3956718), wk =   0.0109739
        k(   33) = (   0.3956718   0.3956718  -0.5087209), wk =   0.0164609
        k(   34) = (   0.3956718  -0.5087209  -0.5087209), wk =   0.0082305
        k(   35) = (  -0.5087209  -0.5087209  -0.5087209), wk =   0.0013717

     Dense  grid:   177509 G-vectors     FFT dimensions: (  72,  72,  72)

     Smooth grid:    95193 G-vectors     FFT dimensions: (  60,  60,  60)

     Estimated max dynamical RAM per process >     136.16 MB

     Estimated total dynamical RAM >       2.66 GB
     Generating pointlists ...
     new r_m :   0.1756 (alat units)  1.8862 (a.u.) for type    1
     new r_m :   0.1756 (alat units)  1.8862 (a.u.) for type    2

     Check: negative/imaginary core charge=   -0.000009    0.000000

     Initial potential from superposition of free atoms

     starting charge  223.98764, renormalised to  224.00000
     Starting wfcs are  160 randomized atomic wfcs
     Checking if some PAW data can be deallocated... 

     total cpu time spent up to now is       11.4 secs

     Self-consistent Calculation

     iteration #  1     ecut=    71.00 Ry     beta= 0.10
     Davidson diagonalization with overlap
     ethr =  1.00E-02,  avg # of iterations =  3.1

     Threshold (ethr) on eigenvalues was too large:
     Diagonalizing with lowered threshold

     Davidson diagonalization with overlap
     ethr =  7.92E-04,  avg # of iterations =  3.5

     total cpu time spent up to now is       69.5 secs

     total energy              =   -3971.35819738 Ry
     Harris-Foulkes estimate   =   -3971.52867742 Ry
     estimated scf accuracy    <       1.91934410 Ry

     total magnetization       =     4.39 Bohr mag/cell
     absolute magnetization    =     4.56 Bohr mag/cell

     iteration #  2     ecut=    71.00 Ry     beta= 0.10
     Davidson diagonalization with overlap
     ethr =  8.57E-04,  avg # of iterations =  1.0

     total cpu time spent up to now is       89.4 secs

     total energy              =   -3971.06418083 Ry
     Harris-Foulkes estimate   =   -3971.38033915 Ry
     estimated scf accuracy    <       1.25284220 Ry

     total magnetization       =     4.27 Bohr mag/cell
     absolute magnetization    =     4.41 Bohr mag/cell

     iteration #  3     ecut=    71.00 Ry     beta= 0.10
     Davidson diagonalization with overlap
     ethr =  5.59E-04,  avg # of iterations =  3.1

     total cpu time spent up to now is      121.5 secs

     total energy              =   -3971.34826014 Ry
     Harris-Foulkes estimate   =   -3971.40025993 Ry
     estimated scf accuracy    <       0.28203134 Ry

     total magnetization       =     3.48 Bohr mag/cell
     absolute magnetization    =     3.59 Bohr mag/cell

     iteration #  4     ecut=    71.00 Ry     beta= 0.10
     Davidson diagonalization with overlap
     ethr =  1.26E-04,  avg # of iterations =  1.9

     total cpu time spent up to now is      144.1 secs

     total energy              =   -3971.40228158 Ry
     Harris-Foulkes estimate   =   -3971.35954615 Ry
     estimated scf accuracy    <       0.18578006 Ry

     total magnetization       =     3.39 Bohr mag/cell
     absolute magnetization    =     3.51 Bohr mag/cell

     iteration #  5     ecut=    71.00 Ry     beta= 0.10
     Davidson diagonalization with overlap
     ethr =  8.29E-05,  avg # of iterations =  2.8

     total cpu time spent up to now is      173.5 secs

     total energy              =   -3971.46456188 Ry
     Harris-Foulkes estimate   =   -3971.44360002 Ry
     estimated scf accuracy    <       0.14405423 Ry

     total magnetization       =     2.21 Bohr mag/cell
     absolute magnetization    =     2.38 Bohr mag/cell

     iteration #  6     ecut=    71.00 Ry     beta= 0.10
     Davidson diagonalization with overlap
     ethr =  6.43E-05,  avg # of iterations =  2.6

     total cpu time spent up to now is      201.0 secs

     total energy              =   -3971.49918252 Ry
     Harris-Foulkes estimate   =   -3971.49920428 Ry
     estimated scf accuracy    <       0.00624529 Ry

     total magnetization       =     0.27 Bohr mag/cell
     absolute magnetization    =     0.39 Bohr mag/cell

     iteration #  7     ecut=    71.00 Ry     beta= 0.10
     Davidson diagonalization with overlap
     ethr =  2.79E-06,  avg # of iterations =  6.1

     total cpu time spent up to now is      247.0 secs

     total energy              =   -3971.49856206 Ry
     Harris-Foulkes estimate   =   -3971.50048852 Ry
     estimated scf accuracy    <       0.00536366 Ry

     total magnetization       =     0.16 Bohr mag/cell
     absolute magnetization    =     0.42 Bohr mag/cell

     iteration #  8     ecut=    71.00 Ry     beta= 0.10
     Davidson diagonalization with overlap
     ethr =  2.39E-06,  avg # of iterations =  4.3

     total cpu time spent up to now is      295.3 secs

     total energy              =   -3971.49995010 Ry
     Harris-Foulkes estimate   =   -3971.50256423 Ry
     estimated scf accuracy    <       0.01143791 Ry

     total magnetization       =     0.08 Bohr mag/cell
     absolute magnetization    =     0.25 Bohr mag/cell

     iteration #  9     ecut=    71.00 Ry     beta= 0.10
     Davidson diagonalization with overlap
     ethr =  2.39E-06,  avg # of iterations =  3.1

     total cpu time spent up to now is      326.0 secs

     total energy              =   -3971.50090475 Ry
     Harris-Foulkes estimate   =   -3971.50098762 Ry
     estimated scf accuracy    <       0.00082295 Ry

     total magnetization       =     0.07 Bohr mag/cell
     absolute magnetization    =     0.15 Bohr mag/cell

     iteration # 10     ecut=    71.00 Ry     beta= 0.10
     Davidson diagonalization with overlap
     ethr =  3.67E-07,  avg # of iterations =  3.9

     total cpu time spent up to now is      357.9 secs

     total energy              =   -3971.50100180 Ry
     Harris-Foulkes estimate   =   -3971.50100043 Ry
     estimated scf accuracy    <       0.00010944 Ry

     total magnetization       =     0.03 Bohr mag/cell
     absolute magnetization    =     0.10 Bohr mag/cell

     iteration # 11     ecut=    71.00 Ry     beta= 0.10
     Davidson diagonalization with overlap
     ethr =  4.89E-08,  avg # of iterations =  4.8

     total cpu time spent up to now is      397.0 secs

     total energy              =   -3971.50104450 Ry
     Harris-Foulkes estimate   =   -3971.50102186 Ry
     estimated scf accuracy    <       0.00016674 Ry

     total magnetization       =     0.04 Bohr mag/cell
     absolute magnetization    =     0.11 Bohr mag/cell

     iteration # 12     ecut=    71.00 Ry     beta= 0.10
     Davidson diagonalization with overlap
     ethr =  4.89E-08,  avg # of iterations =  6.2

     total cpu time spent up to now is      447.5 secs

     total energy              =   -3971.50096792 Ry
     Harris-Foulkes estimate   =   -3971.50110571 Ry
     estimated scf accuracy    <       0.00199741 Ry

     total magnetization       =     0.04 Bohr mag/cell
     absolute magnetization    =     0.12 Bohr mag/cell

     iteration # 13     ecut=    71.00 Ry     beta= 0.10
     Davidson diagonalization with overlap
     ethr =  4.89E-08,  avg # of iterations =  4.7

     total cpu time spent up to now is      497.5 secs

     total energy              =   -3971.50102196 Ry
     Harris-Foulkes estimate   =   -3971.50105138 Ry
     estimated scf accuracy    <       0.00023074 Ry

     total magnetization       =     0.04 Bohr mag/cell
     absolute magnetization    =     0.11 Bohr mag/cell

     iteration # 14     ecut=    71.00 Ry     beta= 0.10
     Davidson diagonalization with overlap
     ethr =  4.89E-08,  avg # of iterations =  4.0

     total cpu time spent up to now is      534.4 secs

     total energy              =   -3971.50096491 Ry
     Harris-Foulkes estimate   =   -3971.50104769 Ry
     estimated scf accuracy    <       0.00035865 Ry

     total magnetization       =     0.05 Bohr mag/cell
     absolute magnetization    =     0.12 Bohr mag/cell

     iteration # 15     ecut=    71.00 Ry     beta= 0.10
     Davidson diagonalization with overlap
     ethr =  4.89E-08,  avg # of iterations =  5.8

     total cpu time spent up to now is      599.6 secs

     total energy              =   -3971.50111759 Ry
     Harris-Foulkes estimate   =   -3971.50132280 Ry
     estimated scf accuracy    <       0.00431017 Ry

     total magnetization       =    -0.01 Bohr mag/cell
     absolute magnetization    =     0.08 Bohr mag/cell

     iteration # 16     ecut=    71.00 Ry     beta= 0.10
     Davidson diagonalization with overlap
     ethr =  4.89E-08,  avg # of iterations =  4.5

     total cpu time spent up to now is      639.2 secs

     total energy              =   -3971.50114717 Ry
     Harris-Foulkes estimate   =   -3971.50117737 Ry
     estimated scf accuracy    <       0.00088602 Ry

     total magnetization       =    -0.00 Bohr mag/cell
     absolute magnetization    =     0.06 Bohr mag/cell

     iteration # 17     ecut=    71.00 Ry     beta= 0.10
     Davidson diagonalization with overlap
     ethr =  4.89E-08,  avg # of iterations =  1.1

     total cpu time spent up to now is      659.6 secs

     total energy              =   -3971.50112645 Ry
     Harris-Foulkes estimate   =   -3971.50115450 Ry
     estimated scf accuracy    <       0.00041853 Ry

     total magnetization       =    -0.01 Bohr mag/cell
     absolute magnetization    =     0.05 Bohr mag/cell

     iteration # 18     ecut=    71.00 Ry     beta= 0.10
     Davidson diagonalization with overlap
     ethr =  4.89E-08,  avg # of iterations =  4.1

     total cpu time spent up to now is      693.6 secs

     total energy              =   -3971.50114924 Ry
     Harris-Foulkes estimate   =   -3971.50114657 Ry
     estimated scf accuracy    <       0.00002015 Ry

     total magnetization       =     0.00 Bohr mag/cell
     absolute magnetization    =     0.02 Bohr mag/cell

     iteration # 19     ecut=    71.00 Ry     beta= 0.10
     Davidson diagonalization with overlap
     ethr =  8.99E-09,  avg # of iterations =  4.1

     total cpu time spent up to now is      726.2 secs

     total energy              =   -3971.50114801 Ry
     Harris-Foulkes estimate   =   -3971.50115310 Ry
     estimated scf accuracy    <       0.00008100 Ry

     total magnetization       =    -0.00 Bohr mag/cell
     absolute magnetization    =     0.02 Bohr mag/cell

     iteration # 20     ecut=    71.00 Ry     beta= 0.10
     Davidson diagonalization with overlap
     ethr =  8.99E-09,  avg # of iterations =  2.8

     total cpu time spent up to now is      751.6 secs

     total energy              =   -3971.50115122 Ry
     Harris-Foulkes estimate   =   -3971.50115059 Ry
     estimated scf accuracy    <       0.00000638 Ry

     total magnetization       =    -0.00 Bohr mag/cell
     absolute magnetization    =     0.02 Bohr mag/cell

     iteration # 21     ecut=    71.00 Ry     beta= 0.10
     Davidson diagonalization with overlap
     ethr =  2.85E-09,  avg # of iterations =  4.4
 
     Magnetic moment per site:
     atom:    1    charge:   12.1800    magn:   -0.0038    constr:    0.0000
     atom:    2    charge:   12.1800    magn:    0.0009    constr:    0.0000
     atom:    3    charge:   12.1797    magn:   -0.0012    constr:    0.0000
     atom:    4    charge:   12.1800    magn:    0.0009    constr:    0.0000
     atom:    5    charge:   12.1797    magn:   -0.0012    constr:    0.0000
     atom:    6    charge:   12.1800    magn:    0.0009    constr:    0.0000
     atom:    7    charge:   12.1797    magn:   -0.0003    constr:    0.0000
     atom:    8    charge:   12.1800    magn:    0.0009    constr:    0.0000
     atom:    9    charge:   12.1797    magn:   -0.0012    constr:    0.0000
     atom:   10    charge:   12.1800    magn:    0.0009    constr:    0.0000
     atom:   11    charge:   12.1797    magn:   -0.0003    constr:    0.0000
     atom:   12    charge:   12.1800    magn:    0.0009    constr:    0.0000
     atom:   13    charge:   12.1797    magn:   -0.0003    constr:    0.0000
     atom:   14    charge:   12.1800    magn:    0.0009    constr:    0.0000
     atom:   15    charge:   12.1797    magn:    0.0005    constr:    0.0000
     atom:   16    charge:   12.1800    magn:    0.0009    constr:    0.0000

     total cpu time spent up to now is      784.5 secs

     End of self-consistent calculation

 ------ SPIN UP ------------


          k = 0.0565 0.0565 0.0565 ( 11876 PWs)   bands (ev):

   -51.0546 -50.8374 -50.8374 -50.8372 -50.7994 -50.7993 -50.7993 -50.7981
   -50.7980 -50.7978 -50.7946 -50.7946 -50.7942 -50.7760 -50.7747 -50.6196
   -22.8130 -22.8128 -22.8128 -22.8075 -22.8075 -22.8074 -22.4645 -22.4645
   -22.4523 -22.3538 -22.3484 -22.3484 -22.3483 -22.3070 -22.3070 -22.2842
   -22.2841 -22.2841 -22.2114 -22.2114 -22.1640 -22.1101 -22.1100 -22.1100
   -22.0902 -22.0902 -22.0901 -22.0597 -22.0597 -22.0597 -22.0538 -22.0538
   -22.0538 -22.0440 -22.0439 -22.0439 -22.0255 -22.0255 -22.0253 -21.7277
   -21.7277 -21.7276 -21.7245 -21.7219 -21.7217 -21.7217 -21.7118 -21.7118
    12.8312  16.1487  16.1487  16.1487  16.1688  16.1688  16.1688  16.2102
    16.2102  16.5797  16.5797  16.5797  16.9921  16.9921  16.9921  18.2050
    18.2225  18.2226  18.2226  18.2398  18.2398  18.2399  18.3206  18.3206
    18.5120  18.5120  18.5825  18.6140  18.6141  18.6141  19.1075  19.1076
    19.1076  19.8880  19.8880  19.9480  20.2634  20.2634  20.2636  20.3887
    20.3888  20.3888  20.4997  20.4997  20.4997  20.6179  20.6180  20.6180
    21.5706  21.5708  21.5708  21.6935  21.6936  21.6936  21.8868  21.8868
    21.8869  21.9594  21.9594  21.9595  22.1137  22.1138  22.1138  22.1187
    22.1187  22.1854  22.1854  22.1854  22.5097  22.5099

          k = 0.0565 0.0565 0.1696 ( 11881 PWs)   bands (ev):

   -51.0469 -50.8761 -50.8355 -50.8354 -50.8027 -50.8026 -50.7985 -50.7984
   -50.7967 -50.7933 -50.7926 -50.7925 -50.7774 -50.7758 -50.7627 -50.6250
   -22.7972 -22.7971 -22.7959 -22.7911 -22.7813 -22.7812 -22.4723 -22.4525
   -22.4340 -22.4240 -22.4040 -22.4039 -22.4018 -22.3993 -22.3424 -22.3424
   -22.2757 -22.2230 -22.2083 -22.1756 -22.1547 -22.1180 -22.1097 -22.1097
   -22.0921 -22.0728 -22.0668 -22.0668 -22.0657 -22.0493 -22.0493 -22.0449
   -22.0449 -22.0404 -22.0404 -21.9796 -21.9779 -21.9778 -21.9624 -21.7542
   -21.7444 -21.7443 -21.7425 -21.7377 -21.7273 -21.7272 -21.7223 -21.7167
    12.9743  16.0263  16.1873  16.1873  16.2486  16.2486  16.2671  16.2848
    16.2859  16.2985  16.6159  16.6160  17.0194  17.0194  17.2161  18.0631
    18.1346  18.1915  18.2028  18.2184  18.2333  18.2845  18.2845  18.3360
    18.3360  18.3716  18.5787  18.5788  18.7644  18.7696  19.0099  19.0099
    19.5745  19.8532  19.8795  19.9941  19.9942  20.0254  20.0808  20.2157
    20.2157  20.2551  20.6006  20.6007  20.7505  20.7505  20.7911  20.9179
    21.0892  21.0893  21.2645  21.4022  21.4023  21.4125  21.5567  21.8652
    21.8652  22.0147  22.0229  22.0230  22.1301  22.1302  22.1398  22.1602
    22.1715  22.1739  22.1740  22.2038  22.5145  22.5449

          k = 0.0565 0.0565 0.2826 ( 11883 PWs)   bands (ev):

   -51.0318 -50.9140 -50.8319 -50.8318 -50.8083 -50.8082 -50.7971 -50.7971
   -50.7943 -50.7920 -50.7919 -50.7910 -50.7799 -50.7780 -50.7290 -50.6358
   -22.7624 -22.7615 -22.7614 -22.7587 -22.7357 -22.7357 -22.5032 -22.4925
   -22.4818 -22.4818 -22.4769 -22.4363 -22.4288 -22.4243 -22.4243 -22.4071
   -22.2437 -22.2388 -22.2170 -22.2100 -22.1241 -22.1055 -22.1055 -22.0975
   -22.0885 -22.0749 -22.0749 -22.0465 -22.0465 -22.0445 -22.0445 -22.0291
   -22.0134 -21.9771 -21.9770 -21.9189 -21.9180 -21.9179 -21.9031 -21.8037
   -21.7723 -21.7722 -21.7721 -21.7693 -21.7443 -21.7442 -21.7436 -21.7345
    13.2546  15.4000  16.2770  16.2770  16.3829  16.3829  16.4328  16.4640
    16.4945  16.5105  16.6487  16.6487  17.0165  17.0165  17.2487  17.6876
    17.8801  17.9579  18.1182  18.1686  18.1819  18.1989  18.4230  18.4230
    18.5081  18.5082  18.6149  18.6150  18.9666  18.9667  19.0744  19.0945
    19.6313  19.6314  19.8283  19.8303  19.8304  19.8527  19.8669  19.9503
    20.1392  20.3582  20.4386  20.4386  20.6928  20.6928  20.9241  20.9241
    20.9476  20.9729  20.9729  20.9766  20.9992  21.1390  21.2792  21.8118
    21.8810  21.8811  22.0164  22.0165  22.1891  22.2096  22.2402  22.2560
    22.2561  22.4886  22.4904  22.5117  22.5229  22.5532

          k = 0.0565 0.0565 0.3957 ( 11888 PWs)   bands (ev):

   -51.0100 -50.9499 -50.8269 -50.8268 -50.8146 -50.8144 -50.7955 -50.7954
   -50.7925 -50.7923 -50.7910 -50.7879 -50.7833 -50.7810 -50.6989 -50.6519
   -22.7136 -22.7115 -22.7086 -22.7085 -22.6731 -22.6731 -22.5808 -22.5763
   -22.5638 -22.5637 -22.5122 -22.5122 -22.4778 -22.4604 -22.3941 -22.3712
   -22.2974 -22.2749 -22.2075 -22.1843 -22.1307 -22.1184 -22.0993 -22.0993
   -22.0834 -22.0834 -22.0449 -22.0449 -22.0440 -22.0440 -22.0364 -21.9475
   -21.9383 -21.9147 -21.9146 -21.8703 -21.8636 -21.8609 -21.8608 -21.8492
   -21.8156 -21.8156 -21.8106 -21.8105 -21.7748 -21.7725 -21.7724 -21.7635
    13.6603  14.7651  16.4012  16.4012  16.5589  16.5590  16.6249  16.6249
    16.6518  16.6837  16.8121  16.8229  16.9232  16.9232  17.1303  17.2855
    17.5693  17.5894  18.0914  18.1191  18.1300  18.1416  18.6323  18.6324
    18.7489  18.7489  18.8254  18.8255  19.0668  19.0668  19.3072  19.3073
    19.4471  19.4471  19.4648  19.4849  19.8140  19.8140  19.8170  19.8574
    19.8682  19.8736  20.0339  20.0340  20.2924  20.4319  20.4406  20.7148
    20.7413  21.2254  21.2254  21.2644  21.2644  21.5197  21.5389  21.6913
    21.6948  21.6949  21.8310  21.8310  22.2564  22.2700  22.3538  22.4152
    22.4194  22.4247  22.5321  22.5553  22.5626  22.5734

          k = 0.0565 0.0565-0.5087 ( 11892 PWs)   bands (ev):

   -50.9826 -50.9820 -50.8212 -50.8212 -50.8207 -50.8204 -50.7940 -50.7940
   -50.7935 -50.7933 -50.7875 -50.7869 -50.7848 -50.7840 -50.6734 -50.6727
   -22.6517 -22.6512 -22.6511 -22.6505 -22.6413 -22.6412 -22.6412 -22.6411
   -22.5971 -22.5970 -22.5970 -22.5970 -22.4736 -22.4731 -22.3501 -22.3495
   -22.3272 -22.3267 -22.1691 -22.1685 -22.1523 -22.1516 -22.0921 -22.0921
   -22.0915 -22.0915 -22.0444 -22.0444 -22.0437 -22.0437 -21.9497 -21.9492
   -21.8758 -21.8752 -21.8720 -21.8714 -21.8585 -21.8584 -21.8584 -21.8583
   -21.8154 -21.8148 -21.8117 -21.8117 -21.8117 -21.8115 -21.8023 -21.8019
    14.1725  14.1730  16.5310  16.5310  16.5312  16.5312  16.7527  16.7527
    16.7529  16.7529  16.9218  16.9223  16.9376  16.9381  17.1902  17.1908
    17.1914  17.1918  18.0995  18.1000  18.1132  18.1137  18.8989  18.8989
    18.8990  18.8991  19.0208  19.0209  19.0210  19.0211  19.3017  19.3018
    19.3020  19.3021  19.5035  19.5036  19.5039  19.5040  19.8267  19.8272
    19.8588  19.8594  19.9234  19.9236  19.9348  19.9350  20.4849  20.4854
    21.1539  21.1544  21.4724  21.4725  21.4726  21.4726  21.5755  21.5755
    21.5756  21.5756  21.9757  21.9762  22.1374  22.1380  22.3343  22.3350
    22.3425  22.3431  22.4954  22.4960  22.5435  22.5441

          k = 0.0565 0.1696 0.1696 ( 11900 PWs)   bands (ev):

   -51.0394 -50.8731 -50.8730 -50.8336 -50.8137 -50.8013 -50.8012 -50.7976
   -50.7916 -50.7914 -50.7842 -50.7793 -50.7764 -50.7632 -50.7630 -50.6302
   -22.7922 -22.7810 -22.7809 -22.7665 -22.7664 -22.7452 -22.4861 -22.4681
   -22.4518 -22.4517 -22.4455 -22.4394 -22.4296 -22.4051 -22.3813 -22.2954
   -22.2683 -22.2682 -22.2017 -22.1743 -22.1741 -22.1218 -22.1038 -22.1037
   -22.0854 -22.0821 -22.0820 -22.0799 -22.0613 -22.0613 -22.0540 -22.0374
   -22.0336 -21.9983 -21.9820 -21.9818 -21.9412 -21.9178 -21.9177 -21.7940
   -21.7722 -21.7564 -21.7563 -21.7421 -21.7421 -21.7313 -21.7210 -21.7124
    13.1149  16.0826  16.0826  16.1737  16.3065  16.3065  16.3606  16.3620
    16.3642  16.3642  16.3822  16.6648  17.0641  17.2483  17.2484  17.9330
    18.0759  18.1408  18.1409  18.2610  18.2611  18.3010  18.3072  18.3072
    18.3115  18.4616  18.4655  18.5169  18.7620  18.7877  18.8938  19.3824
    19.3825  19.7731  19.8268  19.8269  19.8573  19.8893  20.0619  20.1547
    20.4892  20.4894  20.5523  20.5524  20.6022  20.6972  20.8326  20.9128
    20.9129  20.9725  20.9726  21.1301  21.1301  21.2663  21.5594  21.5596
    21.8721  21.9978  22.0525  22.0525  22.0933  22.1297  22.1328  22.1328
    22.1492  22.3581  22.4710  22.4787  22.4788  22.5241

          k = 0.0565 0.1696 0.2826 ( 11865 PWs)   bands (ev):

   -51.0246 -50.9100 -50.8672 -50.8300 -50.8255 -50.8067 -50.7986 -50.7963
   -50.7909 -50.7894 -50.7825 -50.7782 -50.7771 -50.7640 -50.7305 -50.6406
   -22.7674 -22.7488 -22.7472 -22.7376 -22.7237 -22.6899 -22.5244 -22.5239
   -22.5002 -22.4988 -22.4985 -22.4850 -22.4453 -22.4229 -22.3693 -22.3532
   -22.2718 -22.2362 -22.1922 -22.1851 -22.1663 -22.1656 -22.1259 -22.1101
   -22.1041 -22.0924 -22.0835 -22.0591 -22.0586 -22.0385 -22.0197 -22.0080
   -21.9854 -21.9752 -21.9464 -21.9225 -21.8944 -21.8628 -21.8620 -21.8525
   -21.8097 -21.7795 -21.7785 -21.7713 -21.7555 -21.7517 -21.7264 -21.7192
    13.3903  15.4794  16.1679  16.1968  16.3961  16.4970  16.5041  16.5195
    16.5353  16.5490  16.5850  16.7205  17.0915  17.2355  17.2919  17.7248
    17.7937  17.9124  18.2084  18.2206  18.2434  18.2585  18.3336  18.3888
    18.4148  18.4622  18.5032  18.6695  18.8055  18.9591  19.0189  19.2511
    19.4990  19.6141  19.6376  19.6979  19.7209  19.7799  19.8307  20.0467
    20.0874  20.3191  20.3239  20.5127  20.5882  20.6697  20.6863  20.6921
    20.8152  20.9293  20.9594  21.0283  21.0647  21.2646  21.2676  21.6983
    21.8435  21.9144  21.9519  22.0198  22.0647  22.1111  22.1658  22.1899
    22.3992  22.4641  22.4674  22.5004  22.5530  22.5591

          k = 0.0565 0.1696 0.3957 ( 11890 PWs)   bands (ev):

   -51.0034 -50.9449 -50.8590 -50.8374 -50.8251 -50.8129 -50.7951 -50.7944
   -50.7915 -50.7868 -50.7862 -50.7805 -50.7720 -50.7656 -50.7014 -50.6561
   -22.7245 -22.7022 -22.6978 -22.6961 -22.6657 -22.6189 -22.5984 -22.5854
   -22.5736 -22.5673 -22.5202 -22.5096 -22.5045 -22.4453 -22.3891 -22.3272
   -22.2940 -22.2335 -22.2244 -22.1722 -22.1546 -22.1476 -22.1225 -22.1223
   -22.1124 -22.1036 -22.0969 -22.0600 -22.0586 -22.0078 -21.9907 -21.9726
   -21.9352 -21.9253 -21.9145 -21.8950 -21.8685 -21.8564 -21.8491 -21.8144
   -21.8143 -21.8131 -21.8126 -21.8096 -21.7820 -21.7782 -21.7437 -21.7394
    13.7879  14.8650  16.2355  16.2377  16.5185  16.6713  16.7090  16.7142
    16.7209  16.7747  16.8537  16.8887  17.0225  17.1159  17.1783  17.3504
    17.5656  17.6113  18.1390  18.1751  18.2055  18.2066  18.5194  18.5724
    18.5898  18.6423  18.6614  18.8219  18.9376  19.1042  19.3016  19.3606
    19.3674  19.4069  19.4852  19.4881  19.6351  19.6453  19.6768  19.7366
    19.7603  19.8010  19.9200  20.0876  20.1813  20.1948  20.5131  20.9445
    20.9895  21.1916  21.1935  21.2713  21.2761  21.3015  21.5183  21.5909
    21.6321  21.7323  21.8326  21.8929  22.0615  22.1926  22.2278  22.3060
    22.3542  22.3810  22.3905  22.4808  22.5487  22.5522

          k = 0.0565 0.1696-0.5087 ( 11914 PWs)   bands (ev):

   -50.9767 -50.9761 -50.8491 -50.8485 -50.8195 -50.8189 -50.7932 -50.7926
   -50.7910 -50.7904 -50.7839 -50.7832 -50.7685 -50.7679 -50.6768 -50.6762
   -22.6669 -22.6669 -22.6446 -22.6440 -22.6432 -22.6426 -22.6362 -22.6361
   -22.5960 -22.5959 -22.5360 -22.5359 -22.5121 -22.5118 -22.3459 -22.3453
   -22.2789 -22.2786 -22.1908 -22.1902 -22.1442 -22.1436 -22.1400 -22.1394
   -22.1145 -22.1140 -22.0596 -22.0590 -22.0084 -22.0082 -21.9986 -21.9980
   -21.9112 -21.9111 -21.8699 -21.8693 -21.8603 -21.8598 -21.8489 -21.8488
   -21.8215 -21.8209 -21.8095 -21.8095 -21.7729 -21.7728 -21.7712 -21.7710
    14.2884  14.2889  16.2589  16.2592  16.6420  16.6422  16.8619  16.8621
    16.9243  16.9245  16.9574  16.9579  17.0367  17.0371  17.2291  17.2296
    17.2367  17.2372  18.1402  18.1407  18.1759  18.1763  18.7663  18.7666
    18.7960  18.7963  18.8274  18.8275  18.9346  18.9351  19.3048  19.3049
    19.3889  19.3890  19.4825  19.4827  19.6191  19.6193  19.6225  19.6228
    19.7224  19.7226  19.7577  19.7580  19.7720  19.7725  20.7363  20.7366
    21.2781  21.2785  21.3458  21.3459  21.5139  21.5139  21.5785  21.5786
    21.6156  21.6159  21.6320  21.6320  22.0467  22.0473  22.2863  22.2869
    22.3064  22.3070  22.4525  22.4531  22.5458  22.5465

          k = 0.0565 0.2826 0.2826 ( 11901 PWs)   bands (ev):

   -51.0107 -50.9021 -50.9020 -50.8432 -50.8265 -50.8039 -50.8038 -50.7949
   -50.7891 -50.7890 -50.7861 -50.7792 -50.7645 -50.7337 -50.7335 -50.6502
   -22.7535 -22.7194 -22.7194 -22.7011 -22.7010 -22.6266 -22.5544 -22.5504
   -22.5502 -22.5313 -22.5297 -22.5261 -22.4848 -22.4020 -22.3240 -22.2733
   -22.2712 -22.2711 -22.2251 -22.2250 -22.1827 -22.1444 -22.1334 -22.1247
   -22.1246 -22.1005 -22.1004 -22.0822 -22.0821 -22.0729 -21.9953 -21.9608
   -21.9299 -21.9299 -21.9297 -21.9210 -21.9070 -21.8631 -21.8558 -21.8140
   -21.8139 -21.7924 -21.7923 -21.7781 -21.7780 -21.7706 -21.7198 -21.7132
    13.6551  15.6192  15.6192  16.1282  16.6237  16.6238  16.6296  16.6833
    16.7131  16.7132  16.7225  16.8238  17.1849  17.2874  17.2875  17.7133
    17.8112  17.8829  17.8829  18.2789  18.3302  18.3303  18.3839  18.3856
    18.3856  18.3948  18.4818  18.6486  18.9022  18.9034  18.9968  19.3630
    19.3631  19.5038  19.5039  19.5282  19.5636  19.5814  19.6358  19.7811
    20.1016  20.1016  20.1923  20.1923  20.3774  20.3991  20.3992  20.5420
    21.0294  21.0295  21.1173  21.1741  21.2281  21.2282  21.5121  21.6454
    21.6456  21.8383  21.9829  21.9829  22.0325  22.0517  22.0517  22.0739
    22.1540  22.4022  22.4045  22.4060  22.5489  22.5599

          k = 0.0565 0.2826 0.3957 ( 11909 PWs)   bands (ev):

   -50.9905 -50.9350 -50.8907 -50.8605 -50.8217 -50.8098 -50.8000 -50.7931
   -50.7907 -50.7896 -50.7865 -50.7811 -50.7537 -50.7384 -50.7066 -50.6645
   -22.7215 -22.6797 -22.6775 -22.6692 -22.6521 -22.6157 -22.5915 -22.5781
   -22.5765 -22.5616 -22.5487 -22.5469 -22.5372 -22.3699 -22.3655 -22.2799
   -22.2739 -22.2487 -22.2080 -22.1821 -22.1668 -22.1657 -22.1612 -22.1611
   -22.1520 -22.1385 -22.1115 -22.0830 -22.0812 -22.0333 -22.0019 -21.9738
   -21.9408 -21.9092 -21.9065 -21.8853 -21.8793 -21.8692 -21.8333 -21.8147
   -21.8117 -21.8113 -21.7988 -21.7903 -21.7729 -21.7726 -21.7251 -21.7207
    14.0355  15.0514  15.7845  16.0484  16.7398  16.8027  16.8628  16.8814
    16.8826  16.9364  16.9626  17.0045  17.1864  17.1899  17.1923  17.5499
    17.5753  17.6132  18.1935  18.2313  18.2658  18.2984  18.3053  18.4262
    18.4731  18.5227  18.5946  18.6197  19.0769  19.0800  19.0859  19.1808
    19.2134  19.3557  19.3767  19.4500  19.4556  19.4724  19.5981  19.6361
    19.7033  19.7237  19.8031  19.8048  19.9542  19.9710  20.7638  20.7892
    21.2144  21.2248  21.3469  21.3569  21.3658  21.3771  21.3834  21.4859
    21.6209  21.6965  21.8118  21.8694  21.9094  22.0440  22.0811  22.1210
    22.2107  22.2298  22.3075  22.3160  22.4394  22.5519

          k = 0.0565 0.2826-0.5087 ( 11898 PWs)   bands (ev):

   -50.9652 -50.9646 -50.8769 -50.8763 -50.8162 -50.8156 -50.7957 -50.7951
   -50.7915 -50.7909 -50.7841 -50.7834 -50.7454 -50.7447 -50.6837 -50.6831
   -22.6745 -22.6744 -22.6315 -22.6312 -22.6310 -22.6306 -22.6278 -22.6276
   -22.5954 -22.5953 -22.5598 -22.5596 -22.4600 -22.4600 -22.3290 -22.3284
   -22.2193 -22.2192 -22.2097 -22.2093 -22.1867 -22.1861 -22.1491 -22.1487
   -22.1418 -22.1413 -22.0908 -22.0907 -22.0837 -22.0834 -21.9687 -21.9687
   -21.9559 -21.9553 -21.8554 -21.8550 -21.8461 -21.8457 -21.8369 -21.8368
   -21.8355 -21.8349 -21.8087 -21.8086 -21.7431 -21.7430 -21.7409 -21.7408
    14.5105  14.5110  15.9352  15.9356  16.8449  16.8451  17.0042  17.0046
    17.0402  17.0404  17.0599  17.0600  17.2434  17.2439  17.2914  17.2918
    17.3199  17.3203  18.2210  18.2214  18.2598  18.2602  18.5506  18.5509
    18.5818  18.5821  18.6094  18.6098  18.8216  18.8217  19.3820  19.3821
    19.3841  19.3842  19.3875  19.3876  19.4172  19.4174  19.4778  19.4779
    19.5671  19.5672  19.6257  19.6259  19.6649  19.6654  21.0571  21.0572
    21.1759  21.1760  21.2547  21.2548  21.4703  21.4706  21.6065  21.6066
    21.6320  21.6321  21.6807  21.6808  21.8257  21.8261  22.1947  22.1953
    22.2148  22.2154  22.3743  22.3749  22.4229  22.4230

          k = 0.0565 0.3957 0.3957 ( 11919 PWs)   bands (ev):

   -50.9718 -50.9210 -50.9208 -50.8827 -50.8170 -50.8057 -50.8056 -50.7956
   -50.7911 -50.7875 -50.7873 -50.7827 -50.7379 -50.7144 -50.7142 -50.6771
   -22.7009 -22.6503 -22.6503 -22.6347 -22.6347 -22.6173 -22.6172 -22.6016
   -22.5940 -22.5939 -22.5798 -22.5636 -22.4651 -22.3406 -22.2767 -22.2765
   -22.2582 -22.2580 -22.2432 -22.2163 -22.1974 -22.1797 -22.1796 -22.1747
   -22.1570 -22.1118 -22.1117 -22.0988 -22.0951 -22.0950 -22.0897 -21.9673
   -21.9432 -21.8958 -21.8957 -21.8715 -21.8571 -21.8460 -21.8238 -21.8203
   -21.8189 -21.8188 -21.8102 -21.8102 -21.7422 -21.7420 -21.7181 -21.7147
    14.3874  15.2981  15.2982  15.8262  16.9257  16.9939  17.0335  17.0335
    17.0371  17.1534  17.1534  17.1607  17.1608  17.2238  17.3166  17.5440
    17.5541  17.8612  17.8613  18.2811  18.3080  18.3133  18.3676  18.3677
    18.3834  18.3834  18.4549  18.6667  18.7186  19.0063  19.0968  19.0969
    19.1193  19.2705  19.2928  19.3487  19.4271  19.4272  19.4485  19.4486
    19.5259  19.5326  19.5327  19.6453  19.7391  20.3224  20.3225  21.0873
    21.1640  21.2596  21.3401  21.3402  21.5091  21.5092  21.5403  21.5535
    21.7235  21.7236  21.7499  21.8838  21.8911  21.9286  21.9286  21.9562
    21.9562  22.1947  22.1975  22.2045  22.3268  22.4538

          k = 0.0565 0.3957-0.5087 ( 11908 PWs)   bands (ev):

   -50.9486 -50.9480 -50.9035 -50.9028 -50.8118 -50.8112 -50.8010 -50.8004
   -50.7894 -50.7888 -50.7853 -50.7846 -50.7250 -50.7244 -50.6941 -50.6934
   -22.6649 -22.6648 -22.6205 -22.6201 -22.6198 -22.6195 -22.6170 -22.6165
   -22.6042 -22.6042 -22.5977 -22.5975 -22.3727 -22.3727 -22.3031 -22.3025
   -22.2305 -22.2299 -22.2178 -22.2176 -22.1841 -22.1839 -22.1832 -22.1831
   -22.1563 -22.1563 -22.1384 -22.1382 -22.1088 -22.1086 -22.0297 -22.0297
   -21.9173 -21.9167 -21.8566 -21.8560 -21.8381 -21.8377 -21.8343 -21.8340
   -21.8292 -21.8290 -21.8127 -21.8125 -21.7237 -21.7236 -21.7221 -21.7221
    14.8190  14.8195  15.5685  15.5689  17.0567  17.0571  17.0904  17.0906
    17.0953  17.0956  17.2905  17.2907  17.3358  17.3362  17.4128  17.4131
    17.5318  17.5323  18.2451  18.2455  18.2970  18.2971  18.3023  18.3024
    18.3533  18.3537  18.4186  18.4190  18.8804  18.8805  19.1603  19.1605
    19.1703  19.1704  19.2337  19.2340  19.2457  19.2458  19.2928  19.2930
    19.5783  19.5785  19.5817  19.5821  19.9031  19.9032  20.7242  20.7243
    21.2542  21.2544  21.3984  21.3984  21.5744  21.5748  21.6656  21.6659
    21.7460  21.7462  21.7510  21.7512  21.7522  21.7525  22.0645  22.0649
    22.0763  22.0768  22.0994  22.0994  22.2849  22.2854

          k = 0.0565-0.5087-0.5087 ( 11908 PWs)   bands (ev):

   -50.9280 -50.9275 -50.9274 -50.9268 -50.8068 -50.8063 -50.8063 -50.8056
   -50.7875 -50.7870 -50.7869 -50.7862 -50.7081 -50.7077 -50.7076 -50.7069
   -22.6406 -22.6405 -22.6404 -22.6404 -22.6163 -22.6161 -22.6160 -22.6157
   -22.6049 -22.6047 -22.6046 -22.6043 -22.2790 -22.2789 -22.2789 -22.2789
   -22.2700 -22.2696 -22.2695 -22.2689 -22.2090 -22.2090 -22.2089 -22.2089
   -22.1281 -22.1280 -22.1279 -22.1279 -22.0928 -22.0928 -22.0926 -22.0926
   -21.8842 -21.8838 -21.8837 -21.8830 -21.8282 -21.8280 -21.8280 -21.8278
   -21.8229 -21.8227 -21.8227 -21.8225 -21.7167 -21.7166 -21.7165 -21.7165
    15.1840  15.1842  15.1845  15.1846  17.0947  17.0949  17.0950  17.0953
    17.2827  17.2827  17.2829  17.2830  17.4343  17.4344  17.4345  17.4346
    17.8757  17.8759  17.8761  17.8764  18.2812  18.2813  18.2814  18.2815
    18.3336  18.3338  18.3338  18.3339  18.9990  18.9990  18.9991  18.9991
    19.1107  19.1109  19.1109  19.1113  19.2026  19.2027  19.2027  19.2030
    19.5515  19.5517  19.5517  19.5521  20.2934  20.2934  20.2936  20.2936
    21.3668  21.3671  21.3671  21.3675  21.7380  21.7381  21.7382  21.7382
    21.7894  21.7895  21.7895  21.7897  21.9078  21.9081  21.9081  21.9084
    21.9122  21.9125  21.9126  21.9129  22.2533  22.2540

          k = 0.1696 0.1696 0.1696 ( 11843 PWs)   bands (ev):

   -51.0320 -50.8701 -50.8701 -50.8699 -50.8121 -50.8121 -50.8119 -50.7836
   -50.7834 -50.7834 -50.7827 -50.7752 -50.7635 -50.7635 -50.7633 -50.6353
   -22.7757 -22.7755 -22.7755 -22.7329 -22.7329 -22.7328 -22.5065 -22.4831
   -22.4831 -22.4829 -22.4735 -22.4735 -22.3882 -22.3882 -22.3685 -22.3101
   -22.3100 -22.3100 -22.1894 -22.1892 -22.1892 -22.1097 -22.1097 -22.1041
   -22.1041 -22.1041 -22.0573 -22.0573 -22.0573 -22.0432 -22.0432 -22.0432
   -21.9880 -21.9879 -21.9879 -21.9876 -21.8872 -21.8872 -21.8870 -21.8341
   -21.7788 -21.7788 -21.7787 -21.7368 -21.7367 -21.7367 -21.7232 -21.7232
    13.2536  16.1476  16.1476  16.1477  16.2965  16.2965  16.2965  16.4517
    16.4517  16.4734  16.4734  16.4734  17.3043  17.3043  17.3043  17.8224
    18.1185  18.1186  18.1186  18.1964  18.1964  18.2880  18.2881  18.2881
    18.4244  18.4244  18.4245  18.6631  18.6792  18.6792  19.2058  19.2059
    19.2059  19.7349  19.7349  19.7351  19.7540  19.7540  20.2551  20.2552
    20.2552  20.2995  20.4843  20.4844  20.4844  20.6921  20.6922  20.6922
    20.9445  20.9445  20.9445  21.0703  21.0704  21.0704  21.8141  21.8143
    21.8143  21.9211  21.9212  21.9212  22.0460  22.0460  22.1361  22.1361
    22.1361  22.4758  22.4759  22.4759  22.5253  22.5253

          k = 0.1696 0.1696 0.2826 ( 11870 PWs)   bands (ev):

   -51.0177 -50.9060 -50.8644 -50.8643 -50.8236 -50.8234 -50.8087 -50.7879
   -50.7818 -50.7768 -50.7768 -50.7751 -50.7643 -50.7642 -50.7320 -50.6453
   -22.7516 -22.7515 -22.7426 -22.7093 -22.6815 -22.6815 -22.5476 -22.5359
   -22.5358 -22.5114 -22.4979 -22.4773 -22.4492 -22.3782 -22.3782 -22.3421
   -22.3262 -22.2544 -22.2289 -22.1927 -22.1927 -22.1391 -22.1272 -22.1271
   -22.1228 -22.1164 -22.0612 -22.0282 -22.0282 -22.0222 -22.0013 -22.0013
   -21.9937 -21.9937 -21.9368 -21.9254 -21.8951 -21.8471 -21.8470 -21.8383
   -21.8095 -21.8095 -21.7930 -21.7677 -21.7451 -21.7408 -21.7407 -21.7242
    13.5246  15.5644  16.2494  16.2495  16.3220  16.3220  16.5329  16.5892
    16.6193  16.6307  16.6307  16.6873  17.3288  17.3289  17.3670  17.7224
    17.7297  18.0467  18.1432  18.1729  18.1730  18.2470  18.3560  18.3858
    18.3858  18.4821  18.6038  18.6039  18.7742  18.9504  19.0482  19.0482
    19.4171  19.5114  19.5115  19.6168  19.6504  19.7187  19.9328  19.9328
    19.9716  19.9716  20.2586  20.4418  20.4419  20.4715  20.4917  20.4984
    20.8331  20.9841  20.9842  21.1823  21.1823  21.3892  21.5227  21.7647
    21.7648  21.8836  22.0098  22.0558  22.0558  22.0977  22.1371  22.1632
    22.1646  22.1647  22.4567  22.4624  22.4847  22.5238

          k = 0.1696 0.1696 0.3957 ( 11896 PWs)   bands (ev):

   -50.9969 -50.9399 -50.8563 -50.8562 -50.8352 -50.8351 -50.8043 -50.7933
   -50.7799 -50.7762 -50.7718 -50.7716 -50.7658 -50.7656 -50.7039 -50.6602
   -22.7113 -22.7112 -22.6946 -22.6761 -22.6156 -22.6155 -22.5976 -22.5975
   -22.5919 -22.5597 -22.5251 -22.5162 -22.4578 -22.4578 -22.4137 -22.3147
   -22.2910 -22.2795 -22.1852 -22.1848 -22.1847 -22.1739 -22.1496 -22.1495
   -22.1419 -22.1200 -22.0832 -22.0161 -22.0161 -21.9997 -21.9996 -21.9697
   -21.9454 -21.9454 -21.9424 -21.8896 -21.8686 -21.8481 -21.8481 -21.8161
   -21.8131 -21.8088 -21.8087 -21.7959 -21.7772 -21.7543 -21.7541 -21.7373
    13.9154  14.9681  16.3393  16.3393  16.3599  16.3600  16.7917  16.8253
    16.8253  16.8403  16.8643  16.9769  17.2267  17.2268  17.2727  17.3703
    17.5639  17.6785  18.1334  18.1987  18.2853  18.3071  18.4098  18.4099
    18.5462  18.5462  18.8082  18.8083  18.9322  18.9323  19.0945  19.2661
    19.3614  19.3615  19.4756  19.4757  19.5392  19.5498  19.5739  19.5956
    19.5956  19.6717  19.9064  19.9065  19.9531  19.9734  20.7134  20.8167
    21.0840  21.2339  21.3058  21.3058  21.3166  21.3166  21.6021  21.6021
    21.6446  21.6537  21.7710  21.8826  21.8827  22.1232  22.2224  22.2629
    22.3601  22.3835  22.4850  22.4851  22.4955  22.5159

          k = 0.1696 0.1696-0.5087 ( 11914 PWs)   bands (ev):

   -50.9710 -50.9703 -50.8466 -50.8466 -50.8461 -50.8459 -50.7993 -50.7986
   -50.7782 -50.7776 -50.7685 -50.7684 -50.7680 -50.7677 -50.6801 -50.6795
   -22.6584 -22.6583 -22.6583 -22.6583 -22.6361 -22.6356 -22.6333 -22.6327
   -22.5393 -22.5392 -22.5392 -22.5392 -22.5261 -22.5259 -22.3687 -22.3681
   -22.2376 -22.2371 -22.2287 -22.2284 -22.1697 -22.1697 -22.1692 -22.1692
   -22.1051 -22.1046 -22.0539 -22.0537 -22.0070 -22.0070 -22.0065 -22.0065
   -21.8938 -21.8938 -21.8937 -21.8937 -21.8722 -21.8716 -21.8487 -21.8483
   -21.8190 -21.8184 -21.7772 -21.7771 -21.7771 -21.7770 -21.7620 -21.7618
    14.4056  14.4061  16.3761  16.3761  16.3764  16.3764  17.0365  17.0365
    17.0367  17.0367  17.0542  17.0547  17.0757  17.0761  17.2605  17.2610
    17.2950  17.2954  18.1560  18.1565  18.2499  18.2503  18.7487  18.7487
    18.7488  18.7489  18.7562  18.7562  18.7565  18.7567  19.3238  19.3238
    19.3239  19.3239  19.5049  19.5049  19.5050  19.5051  19.5051  19.5054
    19.5372  19.5372  19.6094  19.6096  19.6144  19.6149  20.9616  20.9618
    21.2066  21.2069  21.3758  21.3761  21.4463  21.4464  21.4464  21.4464
    21.6277  21.6278  21.6279  21.6279  22.1950  22.1956  22.2446  22.2452
    22.2994  22.3000  22.4148  22.4154  22.5061  22.5066

          k = 0.1696 0.2826 0.2826 ( 11896 PWs)   bands (ev):

   -51.0040 -50.8983 -50.8981 -50.8588 -50.8407 -50.8198 -50.8196 -50.7942
   -50.7759 -50.7758 -50.7736 -50.7649 -50.7644 -50.7349 -50.7348 -50.6545
   -22.7373 -22.7205 -22.7205 -22.6657 -22.6656 -22.6225 -22.5706 -22.5612
   -22.5572 -22.5571 -22.5130 -22.4945 -22.4442 -22.4235 -22.3630 -22.2996
   -22.2995 -22.2771 -22.2572 -22.2571 -22.2154 -22.1684 -22.1683 -22.1619
   -22.0940 -22.0580 -22.0579 -22.0435 -22.0435 -22.0035 -22.0007 -21.9886
   -21.9603 -21.9549 -21.9323 -21.9322 -21.8993 -21.8479 -21.8247 -21.8125
   -21.8124 -21.8056 -21.8055 -21.7689 -21.7689 -21.7586 -21.7347 -21.7249
    13.7866  15.7152  15.7152  16.2582  16.3848  16.5631  16.5631  16.7235
    16.7817  16.7940  16.8400  16.8400  17.4019  17.4020  17.4471  17.6784
    17.8465  17.8465  17.9790  18.1126  18.2188  18.3348  18.3348  18.4522
    18.4961  18.4961  18.5306  18.6368  18.8060  18.8610  18.9174  19.2113
    19.2114  19.3920  19.4304  19.4305  19.5312  19.5323  19.6402  19.7039
    19.8218  19.8219  20.0465  20.0465  20.1222  20.1252  20.1253  20.7265
    21.1085  21.1086  21.1616  21.3337  21.4234  21.4235  21.6134  21.6422
    21.8827  21.8827  21.8879  21.8880  21.8923  22.0341  22.0823  22.0823
    22.0996  22.4093  22.4139  22.4157  22.4261  22.5034

          k = 0.1696 0.2826 0.3957 ( 11911 PWs)   bands (ev):

   -50.9843 -50.9303 -50.8871 -50.8576 -50.8510 -50.8308 -50.8144 -50.8011
   -50.7747 -50.7732 -50.7712 -50.7661 -50.7540 -50.7394 -50.7087 -50.6682
   -22.7064 -22.6856 -22.6755 -22.6442 -22.6107 -22.6100 -22.5988 -22.5945
   -22.5629 -22.5545 -22.5501 -22.5370 -22.4824 -22.4135 -22.3824 -22.3281
   -22.3168 -22.2451 -22.2251 -22.2225 -22.2201 -22.2137 -22.1946 -22.1944
   -22.1148 -22.0880 -22.0616 -22.0387 -22.0304 -22.0123 -21.9991 -21.9774
   -21.9431 -21.9254 -21.9103 -21.8926 -21.8766 -21.8659 -21.8385 -21.8218
   -21.8102 -21.8035 -21.7882 -21.7752 -21.7751 -21.7713 -21.7387 -21.7302
    14.1624  15.1608  15.8949  16.1789  16.5193  16.5977  16.9001  16.9005
    16.9757  17.0134  17.0328  17.1174  17.3084  17.3124  17.4200  17.5481
    17.6003  17.7030  18.1468  18.2020  18.2401  18.2748  18.3854  18.3927
    18.4712  18.5834  18.6172  18.7379  18.8328  18.9636  18.9918  19.1014
    19.1580  19.2579  19.2891  19.3486  19.4135  19.4148  19.4333  19.4620
    19.5704  19.6026  19.6082  19.6091  19.7381  19.7536  20.3968  20.9911
    21.1828  21.3069  21.4116  21.4151  21.4162  21.4770  21.4949  21.5842
    21.7450  21.7471  21.7508  21.9138  21.9143  22.0289  22.1471  22.1936
    22.2662  22.3139  22.3304  22.4277  22.4978  22.4989

          k = 0.1696 0.2826-0.5087 ( 11888 PWs)   bands (ev):

   -50.9597 -50.9591 -50.8737 -50.8730 -50.8418 -50.8412 -50.8083 -50.8077
   -50.7740 -50.7734 -50.7684 -50.7678 -50.7461 -50.7454 -50.6867 -50.6861
   -22.6627 -22.6626 -22.6428 -22.6427 -22.6198 -22.6193 -22.6191 -22.6185
   -22.5553 -22.5551 -22.5469 -22.5468 -22.4682 -22.4681 -22.3700 -22.3694
   -22.2760 -22.2756 -22.2232 -22.2227 -22.2142 -22.2139 -22.1708 -22.1706
   -22.1251 -22.1250 -22.0780 -22.0776 -22.0207 -22.0204 -21.9584 -21.9579
   -21.9434 -21.9433 -21.8710 -21.8709 -21.8636 -21.8630 -21.8397 -21.8394
   -21.8283 -21.8277 -21.7866 -21.7866 -21.7524 -21.7523 -21.7458 -21.7457
    14.6302  14.6307  16.0589  16.0592  16.5947  16.5949  17.1105  17.1109
    17.1568  17.1570  17.2434  17.2436  17.2751  17.2756  17.3004  17.3009
    17.4029  17.4033  18.2225  18.2230  18.3274  18.3277  18.5160  18.5164
    18.5556  18.5561  18.6223  18.6225  18.7696  18.7698  19.1903  19.1905
    19.2899  19.2900  19.3021  19.3023  19.3355  19.3356  19.3556  19.3558
    19.4082  19.4083  19.4548  19.4549  19.4973  19.4976  20.7565  20.7567
    21.2770  21.2771  21.4288  21.4289  21.5389  21.5392  21.6121  21.6121
    21.6816  21.6818  21.6924  21.6926  22.1238  22.1243  22.1791  22.1797
    22.2348  22.2354  22.3460  22.3465  22.4726  22.4730

          k = 0.1696 0.3957 0.3957 ( 11896 PWs)   bands (ev):

   -50.9662 -50.9166 -50.9164 -50.8793 -50.8437 -50.8248 -50.8247 -50.8093
   -50.7717 -50.7709 -50.7706 -50.7668 -50.7388 -50.7162 -50.7161 -50.6803
   -22.6853 -22.6498 -22.6498 -22.6081 -22.6080 -22.6066 -22.6038 -22.6037
   -22.5958 -22.5720 -22.5660 -22.5175 -22.4721 -22.3891 -22.3285 -22.3010
   -22.3009 -22.2980 -22.2979 -22.2501 -22.2468 -22.2467 -22.2364 -22.1688
   -22.1208 -22.0728 -22.0551 -22.0550 -22.0468 -22.0467 -22.0246 -21.9434
   -21.9424 -21.8925 -21.8923 -21.8878 -21.8778 -21.8471 -21.8333 -21.8333
   -21.8134 -21.8061 -21.8060 -21.8009 -21.7497 -21.7496 -21.7324 -21.7272
    14.5129  15.4162  15.4162  15.9578  16.7245  16.9235  16.9235  17.0287
    17.1096  17.2674  17.2790  17.2791  17.2998  17.2998  17.5761  17.5844
    17.6307  17.8619  17.8620  18.1456  18.2787  18.3686  18.3857  18.3857
    18.4316  18.4316  18.5889  18.6595  18.6822  18.7370  19.0446  19.0448
    19.0449  19.1159  19.2524  19.2543  19.2544  19.2947  19.2948  19.3111
    19.3118  19.3666  19.3667  19.4859  19.5300  19.9910  19.9911  20.7295
    21.2993  21.4565  21.5536  21.5537  21.5934  21.6217  21.6218  21.6489
    21.8000  21.9074  21.9197  21.9197  21.9666  21.9668  21.9969  21.9969
    22.1673  22.2239  22.2296  22.2371  22.3280  22.4429

          k = 0.1696 0.3957-0.5087 ( 11918 PWs)   bands (ev):

   -50.9435 -50.9429 -50.8995 -50.8989 -50.8350 -50.8344 -50.8177 -50.8171
   -50.7712 -50.7706 -50.7687 -50.7680 -50.7265 -50.7258 -50.6967 -50.6960
   -22.6510 -22.6510 -22.6248 -22.6245 -22.6090 -22.6085 -22.5988 -22.5984
   -22.5919 -22.5917 -22.5598 -22.5596 -22.3863 -22.3862 -22.3502 -22.3497
   -22.2961 -22.2958 -22.2731 -22.2726 -22.2587 -22.2585 -22.2092 -22.2092
   -22.1119 -22.1117 -22.0613 -22.0610 -22.0357 -22.0355 -21.9971 -21.9970
   -21.9152 -21.9147 -21.8521 -21.8519 -21.8491 -21.8485 -21.8452 -21.8447
   -21.8360 -21.8357 -21.8021 -21.8019 -21.7362 -21.7362 -21.7335 -21.7334
    14.9419  14.9424  15.6952  15.6956  16.8752  16.8755  17.1668  17.1673
    17.2130  17.2133  17.2862  17.2866  17.4921  17.4922  17.5413  17.5416
    17.5614  17.5618  18.2456  18.2461  18.2978  18.2982  18.3169  18.3171
    18.3275  18.3276  18.4921  18.4924  18.8383  18.8384  18.9324  18.9325
    19.0704  19.0707  19.1271  19.1272  19.1481  19.1483  19.2065  19.2066
    19.3930  19.3932  19.4144  19.4147  19.6243  19.6243  20.3218  20.3219
    21.5049  21.5051  21.6159  21.6159  21.7223  21.7225  21.7757  21.7760
    21.7958  21.7960  21.8008  21.8012  21.9104  21.9107  22.0871  22.0875
    22.1098  22.1104  22.2673  22.2679  22.3167  22.3169

          k = 0.1696-0.5087-0.5087 ( 11948 PWs)   bands (ev):

   -50.9234 -50.9229 -50.9229 -50.9222 -50.8270 -50.8266 -50.8265 -50.8258
   -50.7697 -50.7693 -50.7692 -50.7685 -50.7102 -50.7097 -50.7097 -50.7089
   -22.6260 -22.6259 -22.6258 -22.6258 -22.6112 -22.6109 -22.6109 -22.6105
   -22.5778 -22.5776 -22.5776 -22.5773 -22.3166 -22.3162 -22.3162 -22.3156
   -22.2984 -22.2984 -22.2983 -22.2983 -22.2895 -22.2895 -22.2894 -22.2894
   -22.0536 -22.0535 -22.0535 -22.0535 -22.0488 -22.0487 -22.0486 -22.0486
   -21.8787 -21.8783 -21.8783 -21.8776 -21.8402 -21.8400 -21.8399 -21.8397
   -21.8229 -21.8226 -21.8226 -21.8223 -21.7302 -21.7301 -21.7300 -21.7300
    15.3098  15.3100  15.3103  15.3104  17.1397  17.1398  17.1400  17.1401
    17.2094  17.2096  17.2097  17.2100  17.6271  17.6271  17.6272  17.6273
    17.8977  17.8980  17.8981  17.8985  18.2322  18.2324  18.2325  18.2327
    18.3968  18.3969  18.3970  18.3971  18.9008  18.9011  18.9011  18.9015
    18.9579  18.9579  18.9580  18.9580  19.1233  19.1233  19.1234  19.1236
    19.3747  19.3749  19.3749  19.3752  19.9358  19.9359  19.9360  19.9360
    21.6781  21.6783  21.6783  21.6786  21.8046  21.8047  21.8048  21.8051
    21.9546  21.9549  21.9550  21.9554  21.9599  21.9602  21.9602  21.9605
    21.9986  21.9987  21.9988  21.9988  22.2446  22.2453

          k = 0.2826 0.2826 0.2826 ( 11881 PWs)   bands (ev):

   -50.9911 -50.8908 -50.8908 -50.8906 -50.8360 -50.8360 -50.8358 -50.8031
   -50.7697 -50.7644 -50.7644 -50.7641 -50.7375 -50.7375 -50.7373 -50.6630
   -22.7055 -22.7053 -22.7053 -22.6152 -22.6152 -22.6151 -22.5812 -22.5741
   -22.5741 -22.5740 -22.4876 -22.4876 -22.4490 -22.4490 -22.3502 -22.3502
   -22.3502 -22.2835 -22.2834 -22.2834 -22.2238 -22.2107 -22.2107 -22.2106
   -22.0232 -22.0102 -22.0102 -22.0099 -22.0097 -22.0096 -22.0061 -22.0061
   -22.0061 -21.9380 -21.9378 -21.9378 -21.8722 -21.8387 -21.8387 -21.8387
   -21.7929 -21.7929 -21.7927 -21.7646 -21.7645 -21.7645 -21.7480 -21.7480
    14.0424  15.8882  15.8882  15.8883  16.5100  16.5100  16.5100  16.8982
    16.8982  17.0022  17.0022  17.0022  17.5731  17.5731  17.5731  17.6866
    17.8213  17.8214  17.8214  18.2018  18.2018  18.2581  18.3992  18.3993
    18.3993  18.6484  18.6484  18.6485  18.7104  18.7104  19.0313  19.0314
    19.0314  19.2764  19.2764  19.2766  19.4340  19.4341  19.4341  19.4704
    19.4704  19.7305  19.7305  19.7306  19.7905  19.7906  19.7906  20.9902
    21.1665  21.2885  21.2887  21.2887  21.5862  21.5863  21.5863  21.7832
    21.7832  21.7832  21.9939  21.9939  22.0701  22.0701  22.0701  22.2268
    22.2270  22.2270  22.4169  22.4172  22.4183  22.4252

          k = 0.2826 0.2826 0.3957 ( 11903 PWs)   bands (ev):

   -50.9723 -50.9211 -50.8802 -50.8801 -50.8521 -50.8520 -50.8293 -50.8123
   -50.7669 -50.7645 -50.7549 -50.7547 -50.7416 -50.7414 -50.7132 -50.6757
   -22.6771 -22.6770 -22.6589 -22.6064 -22.6038 -22.6036 -22.5893 -22.5713
   -22.5534 -22.5533 -22.5286 -22.5254 -22.4506 -22.4145 -22.4145 -22.3942
   -22.3469 -22.2902 -22.2901 -22.2702 -22.2686 -22.2481 -22.2481 -22.1692
   -22.0997 -22.0596 -22.0221 -22.0195 -21.9829 -21.9829 -21.9559 -21.9559
   -21.9476 -21.9475 -21.9327 -21.8780 -21.8713 -21.8713 -21.8512 -21.8345
   -21.8083 -21.7817 -21.7802 -21.7801 -21.7682 -21.7655 -21.7653 -21.7453
    14.4078  15.3663  16.0989  16.0990  16.4307  16.4308  16.8665  17.0681
    17.1262  17.1883  17.1883  17.2754  17.5343  17.5396  17.5396  17.5402
    17.6798  17.7751  18.0520  18.0521  18.2223  18.3341  18.4814  18.4861
    18.5186  18.5186  18.5270  18.7492  18.7493  18.8576  18.8577  18.9095
    19.0890  19.0890  19.1545  19.1546  19.1694  19.2214  19.2898  19.3028
    19.3284  19.3869  19.3988  19.3989  19.4712  19.4712  19.9782  20.7029
    21.2881  21.4665  21.5225  21.5226  21.6556  21.6556  21.7122  21.7123
    21.8435  21.9154  21.9358  21.9588  21.9589  21.9800  22.1315  22.1395
    22.3301  22.3329  22.4228  22.4231  22.4251  22.4303

          k = 0.2826 0.2826-0.5087 ( 11876 PWs)   bands (ev):

   -50.9490 -50.9484 -50.8673 -50.8673 -50.8668 -50.8666 -50.8216 -50.8209
   -50.7656 -50.7650 -50.7476 -50.7476 -50.7471 -50.7468 -50.6928 -50.6921
   -22.6409 -22.6407 -22.6407 -22.6406 -22.5997 -22.5990 -22.5977 -22.5973
   -22.5541 -22.5539 -22.4846 -22.4845 -22.4844 -22.4844 -22.4034 -22.4028
   -22.3334 -22.3330 -22.2766 -22.2765 -22.2762 -22.2761 -22.1834 -22.1834
   -22.1142 -22.1140 -22.0251 -22.0246 -21.9624 -21.9624 -21.9620 -21.9620
   -21.9106 -21.9105 -21.9104 -21.9103 -21.8652 -21.8646 -21.8385 -21.8382
   -21.8258 -21.8252 -21.7706 -21.7706 -21.7705 -21.7704 -21.7519 -21.7519
    14.8595  14.8600  16.2935  16.2935  16.2938  16.2939  17.2849  17.2853
    17.3007  17.3012  17.3606  17.3610  17.3778  17.3778  17.3780  17.3781
    17.5419  17.5422  18.2702  18.2707  18.3951  18.3954  18.4379  18.4380
    18.4383  18.4385  18.6799  18.6799  18.6801  18.6802  18.8924  18.8926
    19.1092  19.1094  19.1855  19.1856  19.1857  19.1859  19.1971  19.1971
    19.1971  19.1972  19.2403  19.2404  19.2859  19.2864  20.2925  20.2926
    21.6076  21.6077  21.6608  21.6612  21.6778  21.6778  21.6778  21.6778
    21.7598  21.7598  21.7600  21.7601  22.1705  22.1710  22.2302  22.2308
    22.2935  22.2941  22.2995  22.3000  22.4301  22.4305

          k = 0.2826 0.3957 0.3957 ( 11891 PWs)   bands (ev):

   -50.9551 -50.9080 -50.9079 -50.8726 -50.8703 -50.8442 -50.8441 -50.8236
   -50.7620 -50.7563 -50.7562 -50.7449 -50.7407 -50.7200 -50.7198 -50.6868
   -22.6549 -22.6351 -22.6350 -22.6021 -22.5929 -22.5928 -22.5794 -22.5596
   -22.5595 -22.5392 -22.5355 -22.4858 -22.4580 -22.4458 -22.4104 -22.3524
   -22.3524 -22.3373 -22.3372 -22.3226 -22.3095 -22.3094 -22.2956 -22.1745
   -22.1128 -22.0055 -22.0055 -21.9928 -21.9879 -21.9878 -21.9546 -21.9426
   -21.9152 -21.9103 -21.9048 -21.8890 -21.8889 -21.8541 -21.8541 -21.8435
   -21.8041 -21.8041 -21.7995 -21.7879 -21.7639 -21.7638 -21.7608 -21.7518
    14.7551  15.6396  15.6396  16.2121  16.3583  16.7842  16.7842  17.2214
    17.3303  17.3522  17.4676  17.4676  17.5060  17.5061  17.6018  17.7721
    17.7896  17.8570  17.8570  17.9711  18.3078  18.4364  18.4369  18.4396
    18.4396  18.5172  18.5173  18.6160  18.6427  18.7156  18.8131  18.9559
    18.9560  18.9716  18.9961  18.9998  18.9999  19.0263  19.0264  19.1249
    19.1250  19.1774  19.2084  19.2111  19.2710  19.5853  19.5854  20.2454
    21.6232  21.6616  21.6617  21.6903  21.7380  21.8322  21.8964  21.9165
    21.9166  21.9472  21.9472  21.9628  22.0432  22.0432  22.1123  22.2609
    22.2991  22.2992  22.3001  22.3281  22.4091  22.4191

          k = 0.2826 0.3957-0.5087 ( 11900 PWs)   bands (ev):

   -50.9336 -50.9330 -50.8918 -50.8912 -50.8584 -50.8577 -50.8348 -50.8342
   -50.7589 -50.7582 -50.7501 -50.7494 -50.7294 -50.7288 -50.7019 -50.7013
   -22.6242 -22.6241 -22.6131 -22.6128 -22.5842 -22.5836 -22.5691 -22.5689
   -22.5688 -22.5684 -22.5084 -22.5082 -22.4119 -22.4118 -22.4066 -22.4060
   -22.3690 -22.3687 -22.3329 -22.3325 -22.3298 -22.3296 -22.2556 -22.2555
   -22.0581 -22.0579 -21.9901 -21.9898 -21.9671 -21.9668 -21.9554 -21.9553
   -21.9110 -21.9105 -21.8810 -21.8808 -21.8532 -21.8527 -21.8446 -21.8443
   -21.8388 -21.8382 -21.7968 -21.7966 -21.7607 -21.7607 -21.7549 -21.7548
    15.1775  15.1780  15.9377  15.9381  16.6093  16.6096  17.2020  17.2024
    17.3741  17.3746  17.4390  17.4393  17.6184  17.6188  17.6700  17.6701
    17.7237  17.7240  18.2407  18.2412  18.2637  18.2642  18.3644  18.3648
    18.3674  18.3675  18.5755  18.5758  18.6806  18.6807  18.7628  18.7629
    18.8943  18.8945  18.9031  18.9035  19.0157  19.0158  19.0493  19.0493
    19.1132  19.1135  19.1788  19.1791  19.2503  19.2504  19.8553  19.8554
    21.8021  21.8025  21.8227  21.8229  21.8490  21.8494  21.8766  21.8770
    21.9152  21.9153  21.9807  21.9808  22.1505  22.1510  22.1556  22.1560
    22.2334  22.2340  22.2374  22.2378  22.3304  22.3310

          k = 0.2826-0.5087-0.5087 ( 11884 PWs)   bands (ev):

   -50.9145 -50.9140 -50.9139 -50.9133 -50.8475 -50.8471 -50.8470 -50.8463
   -50.7540 -50.7535 -50.7535 -50.7528 -50.7143 -50.7139 -50.7138 -50.7131
   -22.5973 -22.5972 -22.5972 -22.5971 -22.5892 -22.5889 -22.5888 -22.5884
   -22.5378 -22.5376 -22.5376 -22.5373 -22.3789 -22.3786 -22.3785 -22.3781
   -22.3667 -22.3666 -22.3666 -22.3666 -22.3338 -22.3337 -22.3337 -22.3337
   -22.0048 -22.0046 -22.0046 -22.0045 -21.9739 -21.9738 -21.9737 -21.9737
   -21.8689 -21.8685 -21.8685 -21.8679 -21.8588 -21.8586 -21.8586 -21.8584
   -21.8271 -21.8269 -21.8268 -21.8265 -21.7562 -21.7561 -21.7561 -21.7561
    15.5513  15.5514  15.5517  15.5518  16.9462  16.9463  16.9466  16.9467
    17.4285  17.4287  17.4288  17.4291  17.8699  17.8700  17.8701  17.8701
    17.9391  17.9394  17.9396  17.9399  18.1801  18.1804  18.1805  18.1807
    18.4755  18.4755  18.4756  18.4757  18.6924  18.6927  18.6927  18.6931
    18.8824  18.8824  18.8825  18.8825  18.8937  18.8937  18.8938  18.8939
    19.1164  19.1166  19.1166  19.1169  19.4895  19.4897  19.4897  19.4897
    21.8888  21.8890  21.8891  21.8895  22.0168  22.0172  22.0173  22.0177
    22.0311  22.0313  22.0314  22.0316  22.0832  22.0835  22.0835  22.0837
    22.2247  22.2251  22.2252  22.2258  22.3705  22.3706

          k = 0.3957 0.3957 0.3957 ( 11890 PWs)   bands (ev):

   -50.9391 -50.8958 -50.8958 -50.8956 -50.8631 -50.8631 -50.8629 -50.8378
   -50.7543 -50.7439 -50.7439 -50.7436 -50.7258 -50.7258 -50.7255 -50.6965
   -22.6106 -22.6105 -22.6105 -22.5812 -22.5812 -22.5810 -22.5561 -22.5059
   -22.5059 -22.5059 -22.4999 -22.4999 -22.4863 -22.4863 -22.3898 -22.3897
   -22.3897 -22.3889 -22.3889 -22.3889 -22.3620 -22.3620 -22.3618 -22.2416
   -22.0578 -21.9582 -21.9581 -21.9581 -21.9393 -21.9393 -21.9392 -21.9197
   -21.9197 -21.8908 -21.8906 -21.8906 -21.8816 -21.8816 -21.8816 -21.8478
   -21.8023 -21.8021 -21.8021 -21.7880 -21.7880 -21.7814 -21.7814 -21.7812
    15.0954  15.9406  15.9406  15.9406  16.5694  16.5694  16.5694  17.3982
    17.4734  17.4734  17.6308  17.6309  17.6309  17.7933  17.7934  17.7934
    17.8616  17.8616  17.8616  17.9512  18.3654  18.3654  18.5065  18.5065
    18.5318  18.5319  18.5319  18.6127  18.6128  18.6128  18.6672  18.6672
    18.6672  18.8396  18.8396  18.8396  18.8639  18.8639  18.8640  18.9075
    18.9075  18.9076  19.0769  19.0769  19.2021  19.2022  19.2022  19.7876
    21.8079  21.8080  21.8080  21.9926  22.0204  22.0204  22.0205  22.0306
    22.0306  22.0531  22.0532  22.0532  22.0979  22.0980  22.0980  22.2898
    22.2898  22.3234  22.3236  22.3241  22.3468  22.3468

          k = 0.3957 0.3957-0.5087 ( 11862 PWs)   bands (ev):

   -50.9193 -50.9187 -50.8808 -50.8808 -50.8803 -50.8801 -50.8515 -50.8509
   -50.7486 -50.7479 -50.7340 -50.7339 -50.7334 -50.7332 -50.7098 -50.7092
   -22.5874 -22.5873 -22.5872 -22.5871 -22.5541 -22.5535 -22.5460 -22.5458
   -22.5304 -22.5301 -22.4498 -22.4492 -22.4473 -22.4472 -22.4471 -22.4469
   -22.4274 -22.4271 -22.3938 -22.3937 -22.3935 -22.3934 -22.3149 -22.3149
   -22.0061 -22.0059 -21.9317 -21.9313 -21.9165 -21.9165 -21.9163 -21.9162
   -21.9059 -21.9058 -21.9056 -21.9055 -21.8606 -21.8603 -21.8558 -21.8552
   -21.8347 -21.8341 -21.7955 -21.7954 -21.7954 -21.7953 -21.7814 -21.7813
    15.5041  15.5045  16.2716  16.2716  16.2720  16.2720  16.9920  16.9925
    17.6235  17.6239  17.7239  17.7243  17.7537  17.7537  17.7539  17.7539
    17.9400  17.9403  18.2139  18.2139  18.2143  18.2144  18.4080  18.4082
    18.4436  18.4441  18.5584  18.5586  18.5669  18.5672  18.6689  18.6689
    18.6691  18.6692  18.8272  18.8272  18.8275  18.8276  18.8862  18.8862
    18.8862  18.8864  18.9464  18.9466  18.9613  18.9618  19.4115  19.4116
    21.9261  21.9264  21.9589  21.9589  21.9593  21.9594  22.1062  22.1062
    22.1062  22.1063  22.1664  22.1670  22.1875  22.1880  22.2612  22.2616
    22.3109  22.3113  22.3132  22.3133  22.3138  22.3138

          k = 0.3957-0.5087-0.5087 ( 11872 PWs)   bands (ev):

   -50.9017 -50.9012 -50.9012 -50.9005 -50.8674 -50.8669 -50.8669 -50.8662
   -50.7405 -50.7401 -50.7400 -50.7393 -50.7207 -50.7203 -50.7202 -50.7195
   -22.5556 -22.5555 -22.5554 -22.5554 -22.5520 -22.5517 -22.5516 -22.5512
   -22.4885 -22.4883 -22.4883 -22.4881 -22.4431 -22.4428 -22.4428 -22.4423
   -22.4383 -22.4382 -22.4381 -22.4381 -22.3810 -22.3808 -22.3808 -22.3807
   -21.9584 -21.9582 -21.9582 -21.9581 -21.9053 -21.9052 -21.9052 -21.9052
   -21.8845 -21.8843 -21.8843 -21.8842 -21.8572 -21.8569 -21.8569 -21.8564
   -21.8350 -21.8347 -21.8347 -21.8343 -21.7950 -21.7949 -21.7948 -21.7948
    15.8855  15.8857  15.8860  15.8861  16.6503  16.6504  16.6507  16.6508
    17.7292  17.7293  17.7295  17.7298  17.9949  17.9951  17.9953  17.9956
    18.1216  18.1218  18.1219  18.1222  18.1275  18.1276  18.1278  18.1279
    18.5699  18.5700  18.5701  18.5701  18.6059  18.6062  18.6062  18.6065
    18.6079  18.6079  18.6079  18.6082  18.7840  18.7840  18.7841  18.7841
    18.8633  18.8635  18.8635  18.8638  19.0482  19.0484  19.0484  19.0485
    22.0050  22.0052  22.0053  22.0057  22.0837  22.0841  22.0841  22.0846
    22.1917  22.1921  22.1922  22.1928  22.2845  22.2847  22.2848  22.2849
    22.2922  22.2925  22.2926  22.2931  22.3350  22.3351

          k =-0.5087-0.5087-0.5087 ( 11752 PWs)   bands (ev):

   -50.8859 -50.8855 -50.8855 -50.8854 -50.8850 -50.8850 -50.8850 -50.8840
   -50.7296 -50.7292 -50.7292 -50.7291 -50.7287 -50.7287 -50.7287 -50.7277
   -22.5023 -22.5023 -22.5023 -22.5022 -22.5021 -22.5021 -22.5021 -22.5020
   -22.5017 -22.5017 -22.5017 -22.5016 -22.5016 -22.5012 -22.5012 -22.5012
   -22.4341 -22.4340 -22.4340 -22.4339 -22.4337 -22.4336 -22.4336 -22.4336
   -21.9179 -21.9178 -21.9178 -21.9178 -21.9176 -21.9175 -21.9175 -21.9175
   -21.8452 -21.8452 -21.8452 -21.8451 -21.8451 -21.8451 -21.8450 -21.8450
   -21.8447 -21.8446 -21.8446 -21.8446 -21.8446 -21.8441 -21.8441 -21.8441
    16.2728  16.2729  16.2729  16.2731  16.2732  16.2733  16.2733  16.2735
    18.0579  18.0580  18.0581  18.0581  18.0582  18.0582  18.0583  18.0584
    18.0584  18.0584  18.0585  18.0585  18.0585  18.0585  18.0589  18.0589
    18.6667  18.6669  18.6669  18.6669  18.6670  18.6671  18.6671  18.6671
    18.6755  18.6755  18.6755  18.6756  18.6756  18.6756  18.6757  18.6757
    18.6759  18.6760  18.6760  18.6760  18.6760  18.6764  18.6764  18.6764
    22.1440  22.1440  22.1442  22.1442  22.1443  22.1444  22.1444  22.1445
    22.1446  22.1446  22.1446  22.1447  22.1447  22.1447  22.1454  22.1454
    22.5598  22.5598  22.5598  22.5598  22.5601  22.5601

 ------ SPIN DOWN ----------


          k = 0.0565 0.0565 0.0565 ( 11876 PWs)   bands (ev):

   -51.0547 -50.8378 -50.8374 -50.8374 -50.8000 -50.7993 -50.7993 -50.7981
   -50.7980 -50.7980 -50.7948 -50.7946 -50.7946 -50.7759 -50.7751 -50.6197
   -22.8131 -22.8131 -22.8130 -22.8078 -22.8077 -22.8077 -22.4647 -22.4647
   -22.4525 -22.3541 -22.3487 -22.3486 -22.3486 -22.3073 -22.3073 -22.2845
   -22.2845 -22.2843 -22.2116 -22.2116 -22.1643 -22.1103 -22.1103 -22.1102
   -22.0904 -22.0904 -22.0904 -22.0599 -22.0599 -22.0599 -22.0541 -22.0541
   -22.0540 -22.0442 -22.0442 -22.0441 -22.0258 -22.0256 -22.0256 -21.7280
   -21.7279 -21.7279 -21.7248 -21.7221 -21.7221 -21.7220 -21.7120 -21.7120
    12.8309  16.1484  16.1484  16.1485  16.1685  16.1685  16.1686  16.2094
    16.2094  16.5792  16.5792  16.5793  16.9916  16.9916  16.9916  18.2051
    18.2228  18.2228  18.2229  18.2400  18.2401  18.2401  18.3207  18.3207
    18.5121  18.5121  18.5826  18.6132  18.6132  18.6133  19.1068  19.1068
    19.1068  19.8883  19.8883  19.9483  20.2635  20.2638  20.2638  20.3889
    20.3889  20.3890  20.4999  20.4999  20.4999  20.6182  20.6182  20.6183
    21.5709  21.5709  21.5711  21.6930  21.6930  21.6930  21.8871  21.8871
    21.8871  21.9590  21.9590  21.9590  22.1132  22.1132  22.1133  22.1177
    22.1177  22.1850  22.1850  22.1850  22.5093  22.5108

          k = 0.0565 0.0565 0.1696 ( 11881 PWs)   bands (ev):

   -51.0470 -50.8762 -50.8357 -50.8355 -50.8029 -50.8026 -50.7988 -50.7985
   -50.7967 -50.7935 -50.7928 -50.7926 -50.7774 -50.7762 -50.7629 -50.6252
   -22.7974 -22.7973 -22.7961 -22.7913 -22.7815 -22.7814 -22.4726 -22.4527
   -22.4343 -22.4242 -22.4042 -22.4042 -22.4021 -22.3995 -22.3427 -22.3426
   -22.2760 -22.2232 -22.2086 -22.1759 -22.1549 -22.1182 -22.1099 -22.1099
   -22.0923 -22.0730 -22.0670 -22.0670 -22.0660 -22.0496 -22.0496 -22.0452
   -22.0451 -22.0407 -22.0406 -21.9798 -21.9782 -21.9780 -21.9626 -21.7545
   -21.7446 -21.7446 -21.7428 -21.7380 -21.7275 -21.7275 -21.7225 -21.7169
    12.9740  16.0260  16.1871  16.1871  16.2483  16.2484  16.2668  16.2840
    16.2857  16.2977  16.6155  16.6155  17.0189  17.0189  17.2155  18.0633
    18.1337  18.1916  18.2030  18.2186  18.2334  18.2847  18.2848  18.3362
    18.3363  18.3716  18.5779  18.5780  18.7644  18.7696  19.0092  19.0092
    19.5738  19.8535  19.8798  19.9943  19.9945  20.0257  20.0810  20.2159
    20.2160  20.2551  20.6007  20.6007  20.7506  20.7506  20.7913  20.9181
    21.0886  21.0887  21.2648  21.4017  21.4017  21.4121  21.5565  21.8654
    21.8655  22.0137  22.0224  22.0225  22.1296  22.1297  22.1393  22.1592
    22.1709  22.1742  22.1742  22.2040  22.5131  22.5443

          k = 0.0565 0.0565 0.2826 ( 11883 PWs)   bands (ev):

   -51.0320 -50.9142 -50.8321 -50.8319 -50.8085 -50.8083 -50.7974 -50.7971
   -50.7943 -50.7922 -50.7920 -50.7912 -50.7799 -50.7783 -50.7292 -50.6360
   -22.7627 -22.7617 -22.7617 -22.7589 -22.7360 -22.7359 -22.5034 -22.4928
   -22.4821 -22.4820 -22.4771 -22.4366 -22.4290 -22.4246 -22.4246 -22.4073
   -22.2440 -22.2391 -22.2173 -22.2103 -22.1244 -22.1057 -22.1057 -22.0978
   -22.0887 -22.0752 -22.0751 -22.0468 -22.0467 -22.0448 -22.0447 -22.0293
   -22.0137 -21.9773 -21.9773 -21.9192 -21.9183 -21.9182 -21.9033 -21.8040
   -21.7725 -21.7725 -21.7724 -21.7696 -21.7446 -21.7445 -21.7438 -21.7347
    13.2543  15.3997  16.2767  16.2767  16.3826  16.3826  16.4320  16.4632
    16.4943  16.5103  16.6483  16.6483  17.0160  17.0161  17.2480  17.6867
    17.8801  17.9578  18.1183  18.1689  18.1821  18.1989  18.4232  18.4233
    18.5083  18.5084  18.6142  18.6143  18.9660  18.9661  19.0744  19.0945
    19.6315  19.6316  19.8285  19.8306  19.8306  19.8526  19.8672  19.9506
    20.1395  20.3576  20.4379  20.4380  20.6922  20.6923  20.9240  20.9240
    20.9473  20.9729  20.9729  20.9769  20.9991  21.1393  21.2794  21.8108
    21.8805  21.8806  22.0160  22.0161  22.1885  22.2090  22.2392  22.2563
    22.2563  22.4879  22.4896  22.5119  22.5210  22.5534

          k = 0.0565 0.0565 0.3957 ( 11888 PWs)   bands (ev):

   -51.0101 -50.9501 -50.8271 -50.8269 -50.8148 -50.8145 -50.7958 -50.7955
   -50.7927 -50.7925 -50.7910 -50.7882 -50.7833 -50.7813 -50.6991 -50.6521
   -22.7138 -22.7118 -22.7088 -22.7087 -22.6734 -22.6733 -22.5811 -22.5766
   -22.5641 -22.5640 -22.5125 -22.5125 -22.4781 -22.4606 -22.3943 -22.3714
   -22.2976 -22.2751 -22.2078 -22.1845 -22.1309 -22.1187 -22.0995 -22.0995
   -22.0836 -22.0836 -22.0452 -22.0451 -22.0442 -22.0442 -22.0367 -21.9478
   -21.9386 -21.9150 -21.9149 -21.8705 -21.8638 -21.8612 -21.8611 -21.8495
   -21.8159 -21.8159 -21.8108 -21.8108 -21.7750 -21.7727 -21.7727 -21.7638
    13.6600  14.7648  16.4009  16.4010  16.5586  16.5587  16.6245  16.6245
    16.6510  16.6829  16.8120  16.8227  16.9228  16.9228  17.1296  17.2847
    17.5692  17.5894  18.0916  18.1192  18.1303  18.1418  18.6326  18.6327
    18.7491  18.7492  18.8248  18.8248  19.0663  19.0664  19.3072  19.3074
    19.4473  19.4473  19.4648  19.4848  19.8133  19.8134  19.8172  19.8576
    19.8684  19.8738  20.0334  20.0334  20.2927  20.4318  20.4405  20.7151
    20.7404  21.2252  21.2253  21.2641  21.2642  21.5187  21.5391  21.6916
    21.6944  21.6945  21.8305  21.8306  22.2558  22.2694  22.3529  22.4145
    22.4186  22.4249  22.5311  22.5544  22.5617  22.5726

          k = 0.0565 0.0565-0.5087 ( 11892 PWs)   bands (ev):

   -50.9828 -50.9821 -50.8216 -50.8212 -50.8207 -50.8206 -50.7945 -50.7940
   -50.7936 -50.7935 -50.7876 -50.7869 -50.7850 -50.7844 -50.6736 -50.6729
   -22.6520 -22.6515 -22.6513 -22.6508 -22.6415 -22.6415 -22.6414 -22.6413
   -22.5974 -22.5973 -22.5973 -22.5972 -22.4738 -22.4734 -22.3504 -22.3497
   -22.3275 -22.3269 -22.1693 -22.1687 -22.1525 -22.1519 -22.0924 -22.0924
   -22.0917 -22.0916 -22.0447 -22.0446 -22.0440 -22.0439 -21.9499 -21.9495
   -21.8762 -21.8754 -21.8723 -21.8717 -21.8588 -21.8587 -21.8586 -21.8586
   -21.8157 -21.8150 -21.8120 -21.8119 -21.8119 -21.8118 -21.8026 -21.8021
    14.1722  14.1727  16.5307  16.5307  16.5309  16.5309  16.7524  16.7524
    16.7526  16.7526  16.9211  16.9215  16.9367  16.9373  17.1901  17.1906
    17.1912  17.1917  18.0997  18.1002  18.1134  18.1139  18.8990  18.8992
    18.8992  18.8993  19.0208  19.0210  19.0211  19.0212  19.3012  19.3013
    19.3016  19.3016  19.5030  19.5031  19.5033  19.5033  19.8270  19.8274
    19.8591  19.8596  19.9233  19.9236  19.9347  19.9349  20.4852  20.4857
    21.1530  21.1535  21.4722  21.4722  21.4722  21.4723  21.5752  21.5752
    21.5752  21.5753  21.9759  21.9764  22.1376  22.1382  22.3337  22.3343
    22.3418  22.3424  22.4945  22.4951  22.5425  22.5432

          k = 0.0565 0.1696 0.1696 ( 11900 PWs)   bands (ev):

   -51.0395 -50.8733 -50.8731 -50.8337 -50.8139 -50.8015 -50.8012 -50.7978
   -50.7918 -50.7916 -50.7843 -50.7794 -50.7767 -50.7634 -50.7632 -50.6304
   -22.7925 -22.7812 -22.7811 -22.7667 -22.7667 -22.7454 -22.4863 -22.4684
   -22.4521 -22.4520 -22.4457 -22.4397 -22.4299 -22.4054 -22.3816 -22.2957
   -22.2687 -22.2684 -22.2020 -22.1745 -22.1744 -22.1220 -22.1041 -22.1039
   -22.0856 -22.0823 -22.0823 -22.0801 -22.0616 -22.0616 -22.0543 -22.0376
   -22.0339 -21.9986 -21.9822 -21.9821 -21.9415 -21.9181 -21.9179 -21.7943
   -21.7725 -21.7566 -21.7566 -21.7424 -21.7423 -21.7316 -21.7213 -21.7126
    13.1146  16.0822  16.0823  16.1735  16.3063  16.3063  16.3604  16.3612
    16.3640  16.3640  16.3814  16.6643  17.0636  17.2478  17.2478  17.9331
    18.0760  18.1400  18.1401  18.2612  18.2613  18.3010  18.3074  18.3075
    18.3117  18.4616  18.4657  18.5162  18.7620  18.7877  18.8932  19.3818
    19.3819  19.7734  19.8270  19.8272  19.8575  19.8895  20.0620  20.1550
    20.4894  20.4896  20.5522  20.5523  20.6016  20.6972  20.8327  20.9123
    20.9123  20.9726  20.9728  21.1297  21.1297  21.2659  21.5597  21.5599
    21.8716  21.9968  22.0519  22.0520  22.0935  22.1287  22.1322  22.1323
    22.1488  22.3583  22.4701  22.4789  22.4790  22.5226

          k = 0.0565 0.1696 0.2826 ( 11865 PWs)   bands (ev):

   -51.0248 -50.9101 -50.8674 -50.8302 -50.8257 -50.8069 -50.7987 -50.7964
   -50.7911 -50.7896 -50.7826 -50.7783 -50.7773 -50.7642 -50.7307 -50.6408
   -22.7676 -22.7491 -22.7475 -22.7379 -22.7240 -22.6902 -22.5246 -22.5241
   -22.5004 -22.4990 -22.4988 -22.4852 -22.4455 -22.4232 -22.3696 -22.3534
   -22.2720 -22.2365 -22.1925 -22.1853 -22.1665 -22.1659 -22.1262 -22.1103
   -22.1044 -22.0927 -22.0838 -22.0594 -22.0588 -22.0387 -22.0199 -22.0083
   -21.9856 -21.9754 -21.9467 -21.9227 -21.8947 -21.8631 -21.8622 -21.8528
   -21.8100 -21.7798 -21.7788 -21.7716 -21.7558 -21.7519 -21.7266 -21.7195
    13.3900  15.4790  16.1676  16.1966  16.3959  16.4967  16.5033  16.5192
    16.5351  16.5482  16.5848  16.7201  17.0911  17.2350  17.2912  17.7240
    17.7938  17.9124  18.2085  18.2208  18.2426  18.2587  18.3336  18.3890
    18.4151  18.4624  18.5025  18.6697  18.8049  18.9591  19.0188  19.2507
    19.4991  19.6139  19.6377  19.6982  19.7211  19.7800  19.8309  20.0460
    20.0876  20.3194  20.3233  20.5122  20.5879  20.6693  20.6861  20.6916
    20.8154  20.9291  20.9592  21.0282  21.0647  21.2648  21.2677  21.6979
    21.8425  21.9140  21.9522  22.0193  22.0642  22.1105  22.1653  22.1890
    22.3993  22.4633  22.4666  22.5007  22.5522  22.5583

          k = 0.0565 0.1696 0.3957 ( 11890 PWs)   bands (ev):

   -51.0035 -50.9450 -50.8591 -50.8376 -50.8252 -50.8130 -50.7953 -50.7946
   -50.7916 -50.7870 -50.7863 -50.7807 -50.7722 -50.7658 -50.7016 -50.6563
   -22.7247 -22.7024 -22.6981 -22.6964 -22.6659 -22.6192 -22.5986 -22.5856
   -22.5739 -22.5676 -22.5205 -22.5099 -22.5047 -22.4455 -22.3893 -22.3274
   -22.2942 -22.2338 -22.2247 -22.1725 -22.1548 -22.1479 -22.1228 -22.1226
   -22.1127 -22.1039 -22.0972 -22.0602 -22.0588 -22.0081 -21.9910 -21.9729
   -21.9355 -21.9256 -21.9148 -21.8953 -21.8687 -21.8567 -21.8493 -21.8147
   -21.8145 -21.8134 -21.8129 -21.8099 -21.7822 -21.7784 -21.7439 -21.7396
    13.7876  14.8647  16.2353  16.2374  16.5183  16.6711  16.7082  16.7138
    16.7206  16.7739  16.8536  16.8885  17.0221  17.1154  17.1775  17.3496
    17.5656  17.6113  18.1392  18.1753  18.2056  18.2068  18.5187  18.5726
    18.5900  18.6418  18.6615  18.8215  18.9379  19.1044  19.3016  19.3606
    19.3670  19.4069  19.4853  19.4874  19.6354  19.6455  19.6770  19.7366
    19.7598  19.8012  19.9195  20.0871  20.1811  20.1947  20.5133  20.9438
    20.9897  21.1915  21.1937  21.2712  21.2759  21.3011  21.5180  21.5899
    21.6323  21.7319  21.8322  21.8925  22.0617  22.1921  22.2272  22.3051
    22.3544  22.3803  22.3898  22.4810  22.5478  22.5513

          k = 0.0565 0.1696-0.5087 ( 11914 PWs)   bands (ev):

   -50.9769 -50.9762 -50.8493 -50.8486 -50.8197 -50.8190 -50.7934 -50.7927
   -50.7912 -50.7905 -50.7840 -50.7834 -50.7687 -50.7680 -50.6770 -50.6763
   -22.6672 -22.6671 -22.6449 -22.6442 -22.6435 -22.6428 -22.6365 -22.6363
   -22.5963 -22.5961 -22.5362 -22.5361 -22.5123 -22.5121 -22.3462 -22.3455
   -22.2792 -22.2788 -22.1910 -22.1905 -22.1444 -22.1438 -22.1403 -22.1396
   -22.1147 -22.1141 -22.0599 -22.0593 -22.0087 -22.0084 -21.9989 -21.9982
   -21.9114 -21.9114 -21.8702 -21.8696 -21.8606 -21.8600 -21.8491 -21.8491
   -21.8218 -21.8211 -21.8098 -21.8098 -21.7731 -21.7731 -21.7715 -21.7712
    14.2881  14.2886  16.2586  16.2589  16.6418  16.6420  16.8616  16.8618
    16.9239  16.9241  16.9566  16.9570  17.0359  17.0363  17.2290  17.2295
    17.2366  17.2371  18.1404  18.1409  18.1760  18.1764  18.7664  18.7667
    18.7959  18.7962  18.8276  18.8278  18.9340  18.9344  19.3049  19.3051
    19.3886  19.3887  19.4821  19.4823  19.6186  19.6189  19.6228  19.6230
    19.7223  19.7225  19.7576  19.7578  19.7722  19.7726  20.7366  20.7369
    21.2772  21.2777  21.3455  21.3456  21.5136  21.5136  21.5782  21.5783
    21.6158  21.6161  21.6316  21.6317  22.0469  22.0475  22.2857  22.2863
    22.3057  22.3063  22.4516  22.4521  22.5449  22.5455

[...]
    21.7956  21.7957  21.8003  21.8006  21.9105  21.9108  22.0867  22.0871
    22.1092  22.1097  22.2664  22.2669  22.3162  22.3165

          k = 0.1696-0.5087-0.5087 ( 11948 PWs)   bands (ev):

   -50.9237 -50.9230 -50.9228 -50.9225 -50.8274 -50.8266 -50.8265 -50.8261
   -50.7701 -50.7693 -50.7692 -50.7688 -50.7105 -50.7097 -50.7096 -50.7092
   -22.6262 -22.6262 -22.6261 -22.6260 -22.6115 -22.6112 -22.6111 -22.6107
   -22.5781 -22.5779 -22.5778 -22.5775 -22.3170 -22.3164 -22.3163 -22.3159
   -22.2987 -22.2987 -22.2985 -22.2984 -22.2898 -22.2898 -22.2896 -22.2896
   -22.0539 -22.0539 -22.0538 -22.0535 -22.0490 -22.0490 -22.0489 -22.0488
   -21.8792 -21.8785 -21.8784 -21.8779 -21.8404 -21.8403 -21.8402 -21.8399
   -21.8232 -21.8229 -21.8229 -21.8225 -21.7304 -21.7304 -21.7303 -21.7302
    15.3096  15.3096  15.3100  15.3101  17.1396  17.1396  17.1399  17.1399
    17.2087  17.2089  17.2091  17.2092  17.6270  17.6271  17.6272  17.6272
    17.8970  17.8972  17.8975  17.8976  18.2319  18.2320  18.2322  18.2323
    18.3967  18.3968  18.3969  18.3970  18.9008  18.9012  18.9013  18.9014
    18.9581  18.9581  18.9582  18.9583  19.1230  19.1232  19.1232  19.1233
    19.3746  19.3749  19.3749  19.3750  19.9360  19.9360  19.9361  19.9362
    21.6781  21.6784  21.6784  21.6786  21.8038  21.8041  21.8042  21.8044
    21.9539  21.9544  21.9545  21.9547  21.9596  21.9599  21.9599  21.9601
    21.9988  21.9988  21.9990  21.9990  22.2432  22.2439

          k = 0.2826 0.2826 0.2826 ( 11881 PWs)   bands (ev):

   -50.9912 -50.8912 -50.8908 -50.8908 -50.8364 -50.8360 -50.8360 -50.8033
   -50.7698 -50.7647 -50.7644 -50.7644 -50.7378 -50.7375 -50.7375 -50.6631
   -22.7057 -22.7057 -22.7056 -22.6154 -22.6154 -22.6154 -22.5814 -22.5745
   -22.5742 -22.5742 -22.4878 -22.4878 -22.4493 -22.4493 -22.3505 -22.3505
   -22.3503 -22.2837 -22.2837 -22.2836 -22.2241 -22.2110 -22.2108 -22.2108
   -22.0235 -22.0104 -22.0104 -22.0102 -22.0099 -22.0099 -22.0064 -22.0064
   -22.0062 -21.9382 -21.9382 -21.9381 -21.8725 -21.8390 -21.8390 -21.8389
   -21.7933 -21.7930 -21.7930 -21.7648 -21.7648 -21.7647 -21.7482 -21.7482
    14.0421  15.8879  15.8879  15.8879  16.5098  16.5098  16.5098  16.8974
    16.8974  17.0019  17.0019  17.0020  17.5725  17.5725  17.5726  17.6867
    17.8206  17.8206  17.8207  18.2019  18.2019  18.2580  18.3995  18.3995
    18.3996  18.6485  18.6486  18.6486  18.7102  18.7102  19.0312  19.0312
    19.0313  19.2766  19.2768  19.2768  19.4335  19.4335  19.4335  19.4706
    19.4706  19.7303  19.7304  19.7304  19.7906  19.7906  19.7908  20.9905
    21.1667  21.2880  21.2880  21.2881  21.5863  21.5863  21.5864  21.7828
    21.7828  21.7828  21.9929  21.9929  22.0695  22.0695  22.0696  22.2269
    22.2269  22.2271  22.4162  22.4163  22.4164  22.4243

          k = 0.2826 0.2826 0.3957 ( 11903 PWs)   bands (ev):

   -50.9725 -50.9213 -50.8804 -50.8802 -50.8523 -50.8521 -50.8295 -50.8125
   -50.7671 -50.7646 -50.7551 -50.7549 -50.7418 -50.7416 -50.7133 -50.6758
   -22.6773 -22.6773 -22.6592 -22.6067 -22.6040 -22.6039 -22.5895 -22.5715
   -22.5536 -22.5536 -22.5288 -22.5256 -22.4508 -22.4148 -22.4147 -22.3945
   -22.3471 -22.2904 -22.2903 -22.2704 -22.2688 -22.2484 -22.2483 -22.1694
   -22.0999 -22.0598 -22.0223 -22.0197 -21.9832 -21.9832 -21.9562 -21.9561
   -21.9478 -21.9478 -21.9330 -21.8783 -21.8716 -21.8715 -21.8515 -21.8348
   -21.8086 -21.7820 -21.7805 -21.7804 -21.7685 -21.7657 -21.7656 -21.7455
    14.4075  15.3660  16.0987  16.0987  16.4305  16.4305  16.8664  17.0673
    17.1254  17.1879  17.1880  17.2752  17.5336  17.5391  17.5392  17.5395
    17.6799  17.7750  18.0513  18.0514  18.2224  18.3343  18.4812  18.4861
    18.5188  18.5188  18.5269  18.7492  18.7492  18.8576  18.8577  18.9092
    19.0886  19.0886  19.1546  19.1547  19.1694  19.2216  19.2893  19.3027
    19.3286  19.3871  19.3987  19.3987  19.4712  19.4713  19.9784  20.7031
    21.2884  21.4659  21.5219  21.5220  21.6556  21.6556  21.7120  21.7120
    21.8426  21.9155  21.9360  21.9582  21.9582  21.9797  22.1306  22.1389
    22.3294  22.3324  22.4221  22.4225  22.4245  22.4295

          k = 0.2826 0.2826-0.5087 ( 11876 PWs)   bands (ev):

   -50.9492 -50.9485 -50.8677 -50.8673 -50.8668 -50.8668 -50.8218 -50.8211
   -50.7658 -50.7651 -50.7479 -50.7476 -50.7471 -50.7470 -50.6930 -50.6923
   -22.6411 -22.6410 -22.6410 -22.6408 -22.5999 -22.5992 -22.5980 -22.5975
   -22.5543 -22.5542 -22.4849 -22.4847 -22.4847 -22.4846 -22.4037 -22.4030
   -22.3336 -22.3333 -22.2769 -22.2768 -22.2764 -22.2764 -22.1837 -22.1836
   -22.1144 -22.1142 -22.0253 -22.0249 -21.9627 -21.9627 -21.9622 -21.9622
   -21.9109 -21.9107 -21.9106 -21.9106 -21.8655 -21.8648 -21.8388 -21.8384
   -21.8261 -21.8254 -21.7709 -21.7708 -21.7708 -21.7707 -21.7522 -21.7522
    14.8592  14.8597  16.2933  16.2933  16.2936  16.2936  17.2841  17.2846
    17.3006  17.3011  17.3599  17.3602  17.3774  17.3774  17.3776  17.3776
    17.5418  17.5421  18.2704  18.2709  18.3950  18.3953  18.4373  18.4375
    18.4378  18.4379  18.6800  18.6801  18.6803  18.6803  18.8924  18.8925
    19.1088  19.1090  19.1854  19.1856  19.1857  19.1858  19.1970  19.1971
    19.1971  19.1971  19.2405  19.2406  19.2861  19.2865  20.2927  20.2928
    21.6079  21.6079  21.6600  21.6604  21.6776  21.6777  21.6777  21.6777
    21.7591  21.7592  21.7595  21.7595  22.1701  22.1706  22.2295  22.2301
    22.2926  22.2932  22.2996  22.3002  22.4293  22.4300

          k = 0.2826 0.3957 0.3957 ( 11891 PWs)   bands (ev):

   -50.9552 -50.9082 -50.9080 -50.8727 -50.8704 -50.8444 -50.8442 -50.8238
   -50.7622 -50.7565 -50.7563 -50.7451 -50.7409 -50.7202 -50.7200 -50.6869
   -22.6551 -22.6353 -22.6353 -22.6023 -22.5932 -22.5930 -22.5797 -22.5598
   -22.5598 -22.5394 -22.5358 -22.4861 -22.4583 -22.4461 -22.4106 -22.3527
   -22.3526 -22.3376 -22.3374 -22.3229 -22.3097 -22.3096 -22.2958 -22.1748
   -22.1131 -22.0058 -22.0057 -21.9931 -21.9881 -21.9880 -21.9549 -21.9428
   -21.9155 -21.9105 -21.9051 -21.8892 -21.8891 -21.8544 -21.8543 -21.8438
   -21.8043 -21.8043 -21.7998 -21.7881 -21.7642 -21.7640 -21.7610 -21.7521
    14.7548  15.6393  15.6393  16.2119  16.3581  16.7840  16.7840  17.2207
    17.3299  17.3515  17.4673  17.4673  17.5054  17.5054  17.6017  17.7723
    17.7892  17.8562  17.8563  17.9705  18.3079  18.4365  18.4366  18.4397
    18.4398  18.5171  18.5172  18.6162  18.6420  18.7155  18.8127  18.9561
    18.9562  18.9718  18.9962  18.9994  18.9995  19.0263  19.0263  19.1250
    19.1251  19.1776  19.2083  19.2110  19.2712  19.5855  19.5856  20.2456
    21.6235  21.6609  21.6610  21.6897  21.7379  21.8321  21.8955  21.9166
    21.9167  21.9469  21.9469  21.9622  22.0425  22.0426  22.1114  22.2602
    22.2990  22.2991  22.2997  22.3272  22.4087  22.4183

          k = 0.2826 0.3957-0.5087 ( 11900 PWs)   bands (ev):

   -50.9338 -50.9331 -50.8920 -50.8913 -50.8586 -50.8578 -50.8350 -50.8343
   -50.7591 -50.7584 -50.7502 -50.7496 -50.7296 -50.7289 -50.7021 -50.7014
   -22.6245 -22.6244 -22.6133 -22.6131 -22.5845 -22.5838 -22.5693 -22.5692
   -22.5690 -22.5687 -22.5086 -22.5084 -22.4122 -22.4120 -22.4068 -22.4062
   -22.3692 -22.3690 -22.3332 -22.3327 -22.3301 -22.3298 -22.2559 -22.2558
   -22.0583 -22.0581 -21.9903 -21.9901 -21.9674 -21.9671 -21.9557 -21.9555
   -21.9113 -21.9107 -21.8813 -21.8810 -21.8535 -21.8529 -21.8449 -21.8445
   -21.8391 -21.8384 -21.7971 -21.7969 -21.7610 -21.7609 -21.7551 -21.7551
    15.1772  15.1777  15.9375  15.9378  16.6091  16.6094  17.2018  17.2022
    17.3734  17.3738  17.4384  17.4387  17.6176  17.6180  17.6696  17.6698
    17.7236  17.7239  18.2400  18.2405  18.2633  18.2637  18.3645  18.3649
    18.3671  18.3672  18.5755  18.5758  18.6806  18.6807  18.7629  18.7631
    18.8939  18.8941  18.9032  18.9035  19.0156  19.0157  19.0495  19.0495
    19.1132  19.1135  19.1789  19.1792  19.2504  19.2505  19.8555  19.8556
    21.8013  21.8017  21.8227  21.8228  21.8483  21.8487  21.8759  21.8763
    21.9151  21.9151  21.9810  21.9810  22.1498  22.1503  22.1553  22.1557
    22.2325  22.2331  22.2376  22.2380  22.3295  22.3301

          k = 0.2826-0.5087-0.5087 ( 11884 PWs)   bands (ev):

   -50.9148 -50.9140 -50.9139 -50.9135 -50.8479 -50.8471 -50.8470 -50.8466
   -50.7543 -50.7536 -50.7534 -50.7531 -50.7147 -50.7139 -50.7138 -50.7134
   -22.5976 -22.5975 -22.5974 -22.5973 -22.5895 -22.5891 -22.5890 -22.5887
   -22.5381 -22.5379 -22.5378 -22.5375 -22.3793 -22.3788 -22.3787 -22.3783
   -22.3670 -22.3670 -22.3668 -22.3667 -22.3341 -22.3341 -22.3340 -22.3337
   -22.0050 -22.0050 -22.0049 -22.0046 -21.9742 -21.9742 -21.9740 -21.9739
   -21.8693 -21.8687 -21.8686 -21.8682 -21.8591 -21.8589 -21.8589 -21.8585
   -21.8274 -21.8271 -21.8271 -21.8267 -21.7565 -21.7565 -21.7563 -21.7562
    15.5510  15.5511  15.5514  15.5515  16.9461  16.9461  16.9464  16.9465
    17.4278  17.4280  17.4282  17.4284  17.8699  17.8699  17.8701  17.8701
    17.9384  17.9387  17.9389  17.9390  18.1797  18.1798  18.1800  18.1801
    18.4755  18.4755  18.4756  18.4757  18.6925  18.6929  18.6929  18.6931
    18.8826  18.8826  18.8827  18.8828  18.8934  18.8935  18.8935  18.8936
    19.1164  19.1167  19.1167  19.1168  19.4898  19.4898  19.4898  19.4899
    21.8879  21.8884  21.8885  21.8887  22.0161  22.0166  22.0167  22.0169
    22.0311  22.0314  22.0315  22.0316  22.0831  22.0832  22.0833  22.0835
    22.2237  22.2243  22.2244  22.2247  22.3707  22.3708

          k = 0.3957 0.3957 0.3957 ( 11890 PWs)   bands (ev):

   -50.9393 -50.8961 -50.8958 -50.8958 -50.8634 -50.8631 -50.8631 -50.8380
   -50.7545 -50.7442 -50.7438 -50.7438 -50.7261 -50.7257 -50.7257 -50.6967
   -22.6108 -22.6108 -22.6107 -22.5815 -22.5813 -22.5813 -22.5564 -22.5062
   -22.5062 -22.5061 -22.5001 -22.5001 -22.4866 -22.4866 -22.3900 -22.3900
   -22.3899 -22.3892 -22.3892 -22.3890 -22.3623 -22.3621 -22.3621 -22.2419
   -22.0581 -21.9585 -21.9585 -21.9582 -21.9396 -21.9394 -21.9394 -21.9200
   -21.9200 -21.8910 -21.8910 -21.8909 -21.8819 -21.8819 -21.8817 -21.8480
   -21.8025 -21.8025 -21.8024 -21.7882 -21.7882 -21.7817 -21.7815 -21.7815
    15.0951  15.9403  15.9403  15.9403  16.5692  16.5692  16.5692  17.3981
    17.4727  17.4727  17.6304  17.6304  17.6305  17.7927  17.7927  17.7927
    17.8610  17.8610  17.8610  17.9513  18.3655  18.3655  18.5060  18.5060
    18.5320  18.5320  18.5321  18.6121  18.6121  18.6121  18.6672  18.6672
    18.6672  18.8396  18.8396  18.8397  18.8638  18.8640  18.8640  18.9076
    18.9078  18.9078  19.0771  19.0771  19.2022  19.2022  19.2024  19.7878
    21.8072  21.8072  21.8073  21.9928  22.0203  22.0203  22.0203  22.0297
    22.0298  22.0524  22.0524  22.0525  22.0979  22.0979  22.0980  22.2889
    22.2890  22.3226  22.3227  22.3245  22.3459  22.3461

          k = 0.3957 0.3957-0.5087 ( 11862 PWs)   bands (ev):

   -50.9195 -50.9188 -50.8812 -50.8808 -50.8803 -50.8803 -50.8517 -50.8510
   -50.7488 -50.7481 -50.7343 -50.7339 -50.7335 -50.7334 -50.7100 -50.7093
   -22.5877 -22.5876 -22.5875 -22.5873 -22.5544 -22.5537 -22.5462 -22.5461
   -22.5307 -22.5303 -22.4501 -22.4494 -22.4476 -22.4474 -22.4473 -22.4472
   -22.4276 -22.4274 -22.3941 -22.3940 -22.3937 -22.3936 -22.3152 -22.3151
   -22.0063 -22.0061 -21.9319 -21.9316 -21.9169 -21.9166 -21.9165 -21.9165
   -21.9062 -21.9061 -21.9058 -21.9057 -21.8609 -21.8606 -21.8561 -21.8554
   -21.8350 -21.8343 -21.7958 -21.7957 -21.7957 -21.7955 -21.7816 -21.7816
    15.5038  15.5042  16.2714  16.2714  16.2718  16.2718  16.9918  16.9922
    17.6228  17.6232  17.7232  17.7235  17.7531  17.7532  17.7534  17.7534
    17.9398  17.9402  18.2132  18.2134  18.2137  18.2138  18.4078  18.4080
    18.4437  18.4442  18.5585  18.5587  18.5664  18.5667  18.6690  18.6691
    18.6693  18.6693  18.8271  18.8273  18.8276  18.8276  18.8861  18.8863
    18.8863  18.8863  18.9466  18.9468  18.9614  18.9618  19.4117  19.4117
    21.9252  21.9257  21.9582  21.9582  21.9586  21.9586  22.1061  22.1062
    22.1062  22.1062  22.1656  22.1662  22.1866  22.1871  22.2610  22.2614
    22.3100  22.3106  22.3124  22.3124  22.3129  22.3129

          k = 0.3957-0.5087-0.5087 ( 11872 PWs)   bands (ev):

   -50.9021 -50.9013 -50.9011 -50.9008 -50.8677 -50.8670 -50.8668 -50.8664
   -50.7409 -50.7401 -50.7400 -50.7396 -50.7211 -50.7203 -50.7202 -50.7198
   -22.5558 -22.5558 -22.5556 -22.5556 -22.5523 -22.5519 -22.5518 -22.5514
   -22.4888 -22.4886 -22.4886 -22.4882 -22.4435 -22.4431 -22.4430 -22.4426
   -22.4385 -22.4385 -22.4384 -22.4383 -22.3812 -22.3812 -22.3811 -22.3808
   -21.9587 -21.9586 -21.9585 -21.9582 -21.9056 -21.9056 -21.9054 -21.9053
   -21.8848 -21.8847 -21.8846 -21.8843 -21.8576 -21.8571 -21.8570 -21.8566
   -21.8353 -21.8350 -21.8349 -21.8345 -21.7953 -21.7953 -21.7951 -21.7950
    15.8853  15.8854  15.8857  15.8858  16.6501  16.6501  16.6505  16.6506
    17.7285  17.7287  17.7289  17.7290  17.9942  17.9944  17.9946  17.9948
    18.1210  18.1212  18.1214  18.1216  18.1273  18.1273  18.1275  18.1276
    18.5700  18.5700  18.5701  18.5702  18.6060  18.6064  18.6064  18.6066
    18.6078  18.6078  18.6078  18.6079  18.7841  18.7841  18.7842  18.7843
    18.8633  18.8636  18.8636  18.8638  19.0485  19.0485  19.0485  19.0487
    22.0041  22.0045  22.0046  22.0048  22.0829  22.0833  22.0835  22.0837
    22.1908  22.1913  22.1915  22.1917  22.2845  22.2846  22.2846  22.2848
    22.2912  22.2917  22.2919  22.2922  22.3348  22.3351

          k =-0.5087-0.5087-0.5087 ( 11752 PWs)   bands (ev):

   -50.8867 -50.8855 -50.8855 -50.8854 -50.8851 -50.8849 -50.8849 -50.8846
   -50.7304 -50.7292 -50.7292 -50.7291 -50.7288 -50.7287 -50.7287 -50.7283
   -22.5028 -22.5028 -22.5028 -22.5022 -22.5022 -22.5022 -22.5022 -22.5021
   -22.5018 -22.5018 -22.5017 -22.5017 -22.5016 -22.5016 -22.5016 -22.5016
   -22.4343 -22.4343 -22.4343 -22.4341 -22.4339 -22.4339 -22.4339 -22.4336
   -21.9182 -21.9182 -21.9182 -21.9180 -21.9178 -21.9178 -21.9178 -21.9175
   -21.8458 -21.8458 -21.8458 -21.8452 -21.8452 -21.8452 -21.8452 -21.8451
   -21.8448 -21.8448 -21.8447 -21.8447 -21.8446 -21.8446 -21.8446 -21.8446
    16.2726  16.2727  16.2727  16.2727  16.2731  16.2731  16.2731  16.2731
    18.0572  18.0572  18.0576  18.0576  18.0576  18.0576  18.0577  18.0577
    18.0578  18.0578  18.0579  18.0579  18.0579  18.0579  18.0580  18.0580
    18.6670  18.6670  18.6670  18.6671  18.6673  18.6673  18.6673  18.6673
    18.6755  18.6755  18.6755  18.6759  18.6759  18.6759  18.6759  18.6760
    18.6760  18.6761  18.6762  18.6762  18.6762  18.6763  18.6763  18.6763
    22.1428  22.1428  22.1436  22.1436  22.1436  22.1436  22.1437  22.1438
    22.1438  22.1438  22.1440  22.1440  22.1440  22.1440  22.1442  22.1442
    22.5591  22.5591  22.5591  22.5595  22.5595  22.5595

     the Fermi energy is    20.8605 ev

!    total energy              =   -3971.50115482 Ry
     Harris-Foulkes estimate   =   -3971.50115190 Ry
     estimated scf accuracy    <       0.00000052 Ry

     total all-electron energy =    -33628.024034 Ry

     The total energy is the sum of the following terms:

     one-electron contribution =    -825.51388059 Ry
     hartree contribution      =     560.95822637 Ry
     xc contribution           =    -357.45595013 Ry
     ewald contribution        =   -2161.48141814 Ry
     one-center paw contrib.   =   -1188.01689290 Ry
     smearing contrib. (-TS)   =       0.00876058 Ry

     total magnetization       =    -0.00 Bohr mag/cell
     absolute magnetization    =     0.02 Bohr mag/cell

     convergence has been achieved in  21 iterations

     Forces acting on atoms (cartesian axes, Ry/au):

     atom    1 type  1   force =     0.00000000    0.00000000    0.00000000
     atom    2 type  2   force =    -0.00000878   -0.00000878   -0.00000878
     atom    3 type  1   force =     0.00000000    0.00000000    0.00000000
     atom    4 type  2   force =    -0.00000878   -0.00000878    0.00000878
     atom    5 type  1   force =     0.00000000    0.00000000   -0.00000000
     atom    6 type  2   force =    -0.00000878    0.00000878   -0.00000878
     atom    7 type  1   force =     0.00000000    0.00000000    0.00000000
     atom    8 type  2   force =    -0.00000878    0.00000878    0.00000878
     atom    9 type  1   force =     0.00000000    0.00000000    0.00000000
     atom   10 type  2   force =     0.00000878   -0.00000878   -0.00000878
     atom   11 type  1   force =     0.00000000    0.00000000    0.00000000
     atom   12 type  2   force =     0.00000878   -0.00000878    0.00000878
     atom   13 type  1   force =     0.00000000    0.00000000    0.00000000
     atom   14 type  2   force =     0.00000878    0.00000878   -0.00000878
     atom   15 type  1   force =     0.00000000    0.00000000    0.00000000
     atom   16 type  2   force =     0.00000878    0.00000878    0.00000878

     Total force =     0.000043     Total SCF correction =     0.000299
     SCF correction compared to forces is large: reduce conv_thr to get better values


     Computing stress (Cartesian axis) and pressure

          total   stress  (Ry/bohr**3)                   (kbar)     P=  159.02
   0.00108100   0.00000000   0.00000000        159.02      0.00      0.00
   0.00000000   0.00108100   0.00000000          0.00    159.02      0.00
   0.00000000   0.00000000   0.00108100          0.00      0.00    159.02


     Writing output data file vvrQEQjQcmmUAVQv.save/
 
     init_run     :      9.23s CPU      9.57s WALL (       1 calls)
     electrons    :    755.70s CPU    773.18s WALL (       1 calls)
     forces       :      3.29s CPU      3.49s WALL (       1 calls)
     stress       :     10.92s CPU     10.96s WALL (       1 calls)

     Called by init_run:
     wfcinit      :      8.54s CPU      8.82s WALL (       1 calls)
     potinit      :      0.34s CPU      0.36s WALL (       1 calls)
     hinit0       :      0.15s CPU      0.16s WALL (       1 calls)

     Called by electrons:
     c_bands      :    687.58s CPU    701.67s WALL (      22 calls)
     sum_band     :     59.84s CPU     62.63s WALL (      22 calls)
     v_of_rho     :      0.65s CPU      0.68s WALL (      22 calls)
     newd         :      1.41s CPU      1.69s WALL (      22 calls)
     PAW_pot      :      6.30s CPU      6.54s WALL (      22 calls)
     mix_rho      :      0.18s CPU      0.20s WALL (      22 calls)

     Called by c_bands:
     init_us_2    :      3.91s CPU      3.97s WALL (    3290 calls)
     cegterg      :    664.92s CPU    678.78s WALL (    1540 calls)

     Called by sum_band:
     sum_band:bec :      0.69s CPU      0.71s WALL (    1540 calls)
     addusdens    :      2.59s CPU      2.97s WALL (      22 calls)

     Called by *egterg:
     h_psi        :    262.52s CPU    271.90s WALL (    7355 calls)
     s_psi        :     24.62s CPU     24.72s WALL (    7355 calls)
     g_psi        :      1.39s CPU      1.41s WALL (    5745 calls)
     cdiaghg      :    295.42s CPU    296.45s WALL (    7215 calls)

     Called by h_psi:
     h_psi:pot    :    261.15s CPU    270.51s WALL (    7355 calls)
     h_psi:calbec :     27.44s CPU     29.74s WALL (    7355 calls)
     vloc_psi     :    209.49s CPU    216.42s WALL (    7355 calls)
     add_vuspsi   :     24.16s CPU     24.31s WALL (    7355 calls)

     General routines
     calbec       :     40.10s CPU     43.50s WALL (    9245 calls)
     fft          :      0.51s CPU      0.55s WALL (     592 calls)
     ffts         :      0.04s CPU      0.05s WALL (      88 calls)
     fftw         :    234.59s CPU    242.34s WALL ( 1252994 calls)
     interpolate  :      0.06s CPU      0.07s WALL (      44 calls)
 
     Parallel routines
     fft_scatt_xy :     19.28s CPU     19.89s WALL ( 1253674 calls)
     fft_scatt_yz :    113.64s CPU    117.79s WALL ( 1253674 calls)
 
     PWSCF        : 13m 3.75s CPU    13m30.71s WALL

 
   This run was terminated on:   4:49:56  15Jun2020            

=------------------------------------------------------------------------------=
   JOB DONE.
=------------------------------------------------------------------------------=
