
     Program PWSCF v.6.3 starts on 15Jun2020 at  4:24: 4 

     This program is part of the open-source Quantum ESPRESSO suite
     for quantum simulation of materials; please cite
         "P. Giannozzi et al., J. Phys.:Condens. Matter 21 395502 (2009);
         "P. Giannozzi et al., J. Phys.:Condens. Matter 29 465901 (2017);
          URL http://www.quantum-espresso.org", 
     in publications or presentations arising from this work. More details at
     http://www.quantum-espresso.org/quote

     Parallel version (MPI & OpenMP), running on      20 processor cores
     Number of MPI processes:                20
     Threads/MPI process:                     1

     MPI processes distributed on     1 nodes
     R & G space division:  proc/nbgrp/npool/nimage =      20
     Reading input from wd/eos/eos_001.in
Warning: card &IONS ignored
Warning: card ION_DYNAMICS = 'BFGS', ignored
Warning: card / ignored
Warning: card &CELL ignored
Warning: card CELL_DYNAMICS = 'BFGS', ignored
Warning: card CELL_FACTOR = 2.0, ignored
Warning: card PRESS = 0.0, ignored
Warning: card / ignored

     Current dimensions of program PWSCF are:
     Max number of different atomic species (ntypx) = 10
     Max number of k-points (npk) =  40000
     Max angular momentum in pseudopotentials (lmaxx) =  3
     Message from routine read_upf::
     Pseudo file /rds/homes/b/bxp912/pp/Cr.pbe-spn-kjpaw_psl.1.0.0.UPF has been successfully fixed on the fly.
To avoid this message in the future you can permanently fix 
 your pseudo files following instructions given in: 
https://gitlab.com/QEF/q-e/blob/master/upftools/how_to_fix_upf.md
               file Cr.pbe-spn-kjpaw_psl.1.0.0.UPF: wavefunction(s)  3S 3P 3D renormalized
     Message from routine read_upf::
     Pseudo file /rds/homes/b/bxp912/pp/Cr.pbe-spn-kjpaw_psl.1.0.0.UPF has been successfully fixed on the fly.
To avoid this message in the future you can permanently fix 
 your pseudo files following instructions given in: 
https://gitlab.com/QEF/q-e/blob/master/upftools/how_to_fix_upf.md
               file Cr.pbe-spn-kjpaw_psl.1.0.0.UPF: wavefunction(s)  3S 3P 3D renormalized

     Subspace diagonalization in iterative solution of the eigenvalue problem:
     a serial algorithm will be used

     Found symmetry operation: I + (  0.0000  0.0000  0.5000)
     This is a supercell, fractional translations are disabled
 
     Parallelization info
     --------------------
     sticks:   dense  smooth     PW     G-vecs:    dense   smooth      PW
     Min         189     125     34                 8783     4717     698
     Max         190     127     35                 8786     4718     701
     Sum        3793    2509    697               175685    94341   13997
 


     bravais-lattice index     =            0
     lattice parameter (alat)  =      10.7442  a.u.
     unit-cell volume          =    1167.3482 (a.u.)^3
     number of atoms/cell      =           16
     number of atomic types    =            2
     number of electrons       =       224.00
     number of Kohn-Sham states=          134
     kinetic-energy cutoff     =      71.0000  Ry
     charge density cutoff     =     430.0000  Ry
     convergence threshold     =      1.0E-06
     mixing beta               =       0.1000
     number of iterations used =           10  plain     mixing
     Exchange-correlation      = SLA PW PBX PBC ( 1  4  3  4 0 0)

     celldm(1)=  10.744199  celldm(2)=   0.000000  celldm(3)=   0.000000
     celldm(4)=   0.000000  celldm(5)=   0.000000  celldm(6)=   0.000000

     crystal axes: (cart. coord. in units of alat)
               a(1) = (   0.980000   0.000000   0.000000 )  
               a(2) = (   0.000000   0.980000   0.000000 )  
               a(3) = (   0.000000   0.000000   0.980000 )  

     reciprocal axes: (cart. coord. in units 2 pi/alat)
               b(1) = (  1.020408  0.000000  0.000000 )  
               b(2) = (  0.000000  1.020408  0.000000 )  
               b(3) = (  0.000000  0.000000  1.020408 )  


     PseudoPot. # 1 for Cr read from file:
     /rds/homes/b/bxp912/pp/Cr.pbe-spn-kjpaw_psl.1.0.0.UPF
     MD5 check sum: cb1c17117da000fe5e03c4f1a6841d9c
     Pseudo is Projector augmented-wave + core cor, Zval = 14.0
     Generated using "atomic" code by A. Dal Corso v.5.1
     Shape of augmentation charge: PSQ
     Using radial grid of 1183 points,  6 beta functions with: 
                l(1) =   0
                l(2) =   0
                l(3) =   1
                l(4) =   1
                l(5) =   2
                l(6) =   2
     Q(r) pseudized with 0 coefficients 


     PseudoPot. # 2 for Cr read from file:
     /rds/homes/b/bxp912/pp/Cr.pbe-spn-kjpaw_psl.1.0.0.UPF
     MD5 check sum: cb1c17117da000fe5e03c4f1a6841d9c
     Pseudo is Projector augmented-wave + core cor, Zval = 14.0
     Generated using "atomic" code by A. Dal Corso v.5.1
     Shape of augmentation charge: PSQ
     Using radial grid of 1183 points,  6 beta functions with: 
                l(1) =   0
                l(2) =   0
                l(3) =   1
                l(4) =   1
                l(5) =   2
                l(6) =   2
     Q(r) pseudized with 0 coefficients 


     atomic species   valence    mass     pseudopotential
        Cr1           14.00    55.84500     Cr( 1.00)
        Cr2           14.00    55.84500     Cr( 1.00)

     Starting magnetic structure 
     atomic species   magnetization
        Cr1          0.100
        Cr2          0.100

     48 Sym. Ops., with inversion, found



   Cartesian axes

     site n.     atom                  positions (alat units)
         1           Cr1 tau(   1) = (   0.0000000   0.0000000   0.0000000  )
         2           Cr2 tau(   2) = (   0.2450004   0.2450004   0.2450000  )
         3           Cr1 tau(   3) = (   0.0000000   0.0000000   0.4899990  )
         4           Cr2 tau(   4) = (   0.2450004   0.2450004   0.7349990  )
         5           Cr1 tau(   5) = (   0.0000000   0.4899999   0.0000000  )
         6           Cr2 tau(   6) = (   0.2450004   0.7349993   0.2450000  )
         7           Cr1 tau(   7) = (   0.0000000   0.4899999   0.4899990  )
         8           Cr2 tau(   8) = (   0.2450004   0.7349993   0.7349990  )
         9           Cr1 tau(   9) = (   0.4899999   0.0000000   0.0000000  )
        10           Cr2 tau(  10) = (   0.7349993   0.2450004   0.2450000  )
        11           Cr1 tau(  11) = (   0.4899999   0.0000000   0.4899990  )
        12           Cr2 tau(  12) = (   0.7349993   0.2450004   0.7349990  )
        13           Cr1 tau(  13) = (   0.4899999   0.4899999   0.0000000  )
        14           Cr2 tau(  14) = (   0.7349993   0.7349993   0.2450000  )
        15           Cr1 tau(  15) = (   0.4899999   0.4899999   0.4899990  )
        16           Cr2 tau(  16) = (   0.7349993   0.7349993   0.7349990  )

     number of k points=    35  Marzari-Vanderbilt smearing, width (Ry)=  0.0400
                       cart. coord. in units 2pi/alat
        k(    1) = (   0.0566893   0.0566893   0.0566893), wk =   0.0109739
        k(    2) = (   0.0566893   0.0566893   0.1700680), wk =   0.0329218
        k(    3) = (   0.0566893   0.0566893   0.2834467), wk =   0.0329218
        k(    4) = (   0.0566893   0.0566893   0.3968254), wk =   0.0329218
        k(    5) = (   0.0566893   0.0566893  -0.5102041), wk =   0.0164609
        k(    6) = (   0.0566893   0.1700680   0.1700680), wk =   0.0329218
        k(    7) = (   0.0566893   0.1700680   0.2834467), wk =   0.0658436
        k(    8) = (   0.0566893   0.1700680   0.3968254), wk =   0.0658436
        k(    9) = (   0.0566893   0.1700680  -0.5102041), wk =   0.0329218
        k(   10) = (   0.0566893   0.2834467   0.2834467), wk =   0.0329218
        k(   11) = (   0.0566893   0.2834467   0.3968254), wk =   0.0658436
        k(   12) = (   0.0566893   0.2834467  -0.5102041), wk =   0.0329218
        k(   13) = (   0.0566893   0.3968254   0.3968254), wk =   0.0329218
        k(   14) = (   0.0566893   0.3968254  -0.5102041), wk =   0.0329218
        k(   15) = (   0.0566893  -0.5102041  -0.5102041), wk =   0.0082305
        k(   16) = (   0.1700680   0.1700680   0.1700680), wk =   0.0109739
        k(   17) = (   0.1700680   0.1700680   0.2834467), wk =   0.0329218
        k(   18) = (   0.1700680   0.1700680   0.3968254), wk =   0.0329218
        k(   19) = (   0.1700680   0.1700680  -0.5102041), wk =   0.0164609
        k(   20) = (   0.1700680   0.2834467   0.2834467), wk =   0.0329218
        k(   21) = (   0.1700680   0.2834467   0.3968254), wk =   0.0658436
        k(   22) = (   0.1700680   0.2834467  -0.5102041), wk =   0.0329218
        k(   23) = (   0.1700680   0.3968254   0.3968254), wk =   0.0329218
        k(   24) = (   0.1700680   0.3968254  -0.5102041), wk =   0.0329218
        k(   25) = (   0.1700680  -0.5102041  -0.5102041), wk =   0.0082305
        k(   26) = (   0.2834467   0.2834467   0.2834467), wk =   0.0109739
        k(   27) = (   0.2834467   0.2834467   0.3968254), wk =   0.0329218
        k(   28) = (   0.2834467   0.2834467  -0.5102041), wk =   0.0164609
        k(   29) = (   0.2834467   0.3968254   0.3968254), wk =   0.0329218
        k(   30) = (   0.2834467   0.3968254  -0.5102041), wk =   0.0329218
        k(   31) = (   0.2834467  -0.5102041  -0.5102041), wk =   0.0082305
        k(   32) = (   0.3968254   0.3968254   0.3968254), wk =   0.0109739
        k(   33) = (   0.3968254   0.3968254  -0.5102041), wk =   0.0164609
        k(   34) = (   0.3968254  -0.5102041  -0.5102041), wk =   0.0082305
        k(   35) = (  -0.5102041  -0.5102041  -0.5102041), wk =   0.0013717

     Dense  grid:   175685 G-vectors     FFT dimensions: (  72,  72,  72)

     Smooth grid:    94341 G-vectors     FFT dimensions: (  60,  60,  60)

     Estimated max dynamical RAM per process >     135.00 MB

     Estimated total dynamical RAM >       2.64 GB
     Generating pointlists ...
     new r_m :   0.1750 (alat units)  1.8807 (a.u.) for type    1
     new r_m :   0.1750 (alat units)  1.8807 (a.u.) for type    2

     Check: negative/imaginary core charge=   -0.000009    0.000000

     Initial potential from superposition of free atoms

     starting charge  223.98764, renormalised to  224.00000
     Starting wfcs are  160 randomized atomic wfcs
     Checking if some PAW data can be deallocated... 

     total cpu time spent up to now is       11.2 secs

     Self-consistent Calculation

     iteration #  1     ecut=    71.00 Ry     beta= 0.10
     Davidson diagonalization with overlap
     ethr =  1.00E-02,  avg # of iterations =  3.1

     Threshold (ethr) on eigenvalues was too large:
     Diagonalizing with lowered threshold

     Davidson diagonalization with overlap
     ethr =  7.93E-04,  avg # of iterations =  3.4

     total cpu time spent up to now is       68.8 secs

     total energy              =   -3971.34503960 Ry
     Harris-Foulkes estimate   =   -3971.51395362 Ry
     estimated scf accuracy    <       1.91402969 Ry

     total magnetization       =     4.36 Bohr mag/cell
     absolute magnetization    =     4.52 Bohr mag/cell

     iteration #  2     ecut=    71.00 Ry     beta= 0.10
     Davidson diagonalization with overlap
     ethr =  8.54E-04,  avg # of iterations =  1.0

     total cpu time spent up to now is       88.5 secs

     total energy              =   -3971.05362437 Ry
     Harris-Foulkes estimate   =   -3971.36699091 Ry
     estimated scf accuracy    <       1.25087912 Ry

     total magnetization       =     4.24 Bohr mag/cell
     absolute magnetization    =     4.37 Bohr mag/cell

     iteration #  3     ecut=    71.00 Ry     beta= 0.10
     Davidson diagonalization with overlap
     ethr =  5.58E-04,  avg # of iterations =  3.1

     total cpu time spent up to now is      120.3 secs

     total energy              =   -3971.33488358 Ry
     Harris-Foulkes estimate   =   -3971.38669110 Ry
     estimated scf accuracy    <       0.27800129 Ry

     total magnetization       =     3.45 Bohr mag/cell
     absolute magnetization    =     3.55 Bohr mag/cell

     iteration #  4     ecut=    71.00 Ry     beta= 0.10
     Davidson diagonalization with overlap
     ethr =  1.24E-04,  avg # of iterations =  2.0

     total cpu time spent up to now is      142.7 secs

     total energy              =   -3971.39534011 Ry
     Harris-Foulkes estimate   =   -3971.34635581 Ry
     estimated scf accuracy    <       0.18320608 Ry

     total magnetization       =     3.36 Bohr mag/cell
     absolute magnetization    =     3.48 Bohr mag/cell

     iteration #  5     ecut=    71.00 Ry     beta= 0.10
     Davidson diagonalization with overlap
     ethr =  8.18E-05,  avg # of iterations =  2.9

     total cpu time spent up to now is      171.9 secs

     total energy              =   -3971.45327917 Ry
     Harris-Foulkes estimate   =   -3971.43630769 Ry
     estimated scf accuracy    <       0.13678071 Ry

     total magnetization       =     2.12 Bohr mag/cell
     absolute magnetization    =     2.28 Bohr mag/cell

     iteration #  6     ecut=    71.00 Ry     beta= 0.10
     Davidson diagonalization with overlap
     ethr =  6.11E-05,  avg # of iterations =  2.7

     total cpu time spent up to now is      199.4 secs

     total energy              =   -3971.48600767 Ry
     Harris-Foulkes estimate   =   -3971.48601433 Ry
     estimated scf accuracy    <       0.00600229 Ry

     total magnetization       =     0.27 Bohr mag/cell
     absolute magnetization    =     0.39 Bohr mag/cell

     iteration #  7     ecut=    71.00 Ry     beta= 0.10
     Davidson diagonalization with overlap
     c_bands:  1 eigenvalues not converged
     ethr =  2.68E-06,  avg # of iterations =  6.5

     total cpu time spent up to now is      247.3 secs

     total energy              =   -3971.48550975 Ry
     Harris-Foulkes estimate   =   -3971.48729934 Ry
     estimated scf accuracy    <       0.00513251 Ry

     total magnetization       =     0.16 Bohr mag/cell
     absolute magnetization    =     0.41 Bohr mag/cell

     iteration #  8     ecut=    71.00 Ry     beta= 0.10
     Davidson diagonalization with overlap
     ethr =  2.29E-06,  avg # of iterations =  5.0

     total cpu time spent up to now is      300.7 secs

     total energy              =   -3971.48658619 Ry
     Harris-Foulkes estimate   =   -3971.48956060 Ry
     estimated scf accuracy    <       0.01234216 Ry

     total magnetization       =     0.06 Bohr mag/cell
     absolute magnetization    =     0.24 Bohr mag/cell

     iteration #  9     ecut=    71.00 Ry     beta= 0.10
     Davidson diagonalization with overlap
     ethr =  2.29E-06,  avg # of iterations =  3.2

     total cpu time spent up to now is      332.4 secs

     total energy              =   -3971.48774499 Ry
     Harris-Foulkes estimate   =   -3971.48777929 Ry
     estimated scf accuracy    <       0.00066661 Ry

     total magnetization       =     0.07 Bohr mag/cell
     absolute magnetization    =     0.15 Bohr mag/cell

     iteration # 10     ecut=    71.00 Ry     beta= 0.10
     Davidson diagonalization with overlap
     ethr =  2.98E-07,  avg # of iterations =  4.5

     total cpu time spent up to now is      373.1 secs

     total energy              =   -3971.48784002 Ry
     Harris-Foulkes estimate   =   -3971.48782619 Ry
     estimated scf accuracy    <       0.00012412 Ry

     total magnetization       =     0.03 Bohr mag/cell
     absolute magnetization    =     0.10 Bohr mag/cell

     iteration # 11     ecut=    71.00 Ry     beta= 0.10
     Davidson diagonalization with overlap
     ethr =  5.54E-08,  avg # of iterations =  4.3

     total cpu time spent up to now is      408.8 secs

     total energy              =   -3971.48788554 Ry
     Harris-Foulkes estimate   =   -3971.48785064 Ry
     estimated scf accuracy    <       0.00010803 Ry

     total magnetization       =     0.03 Bohr mag/cell
     absolute magnetization    =     0.10 Bohr mag/cell

     iteration # 12     ecut=    71.00 Ry     beta= 0.10
     Davidson diagonalization with overlap
     ethr =  4.82E-08,  avg # of iterations =  4.5

     total cpu time spent up to now is      449.0 secs

     total energy              =   -3971.48779710 Ry
     Harris-Foulkes estimate   =   -3971.48792052 Ry
     estimated scf accuracy    <       0.00053348 Ry

     total magnetization       =     0.02 Bohr mag/cell
     absolute magnetization    =     0.08 Bohr mag/cell

     iteration # 13     ecut=    71.00 Ry     beta= 0.10
     Davidson diagonalization with overlap
     ethr =  4.82E-08,  avg # of iterations =  5.9

     total cpu time spent up to now is      504.4 secs

     total energy              =   -3971.48789287 Ry
     Harris-Foulkes estimate   =   -3971.48795988 Ry
     estimated scf accuracy    <       0.00089284 Ry

     total magnetization       =    -0.04 Bohr mag/cell
     absolute magnetization    =     0.04 Bohr mag/cell

     iteration # 14     ecut=    71.00 Ry     beta= 0.10
     Davidson diagonalization with overlap
     ethr =  4.82E-08,  avg # of iterations =  4.5

     total cpu time spent up to now is      543.8 secs

     total energy              =   -3971.48795354 Ry
     Harris-Foulkes estimate   =   -3971.48795010 Ry
     estimated scf accuracy    <       0.00002111 Ry

     total magnetization       =    -0.00 Bohr mag/cell
     absolute magnetization    =     0.03 Bohr mag/cell

     iteration # 15     ecut=    71.00 Ry     beta= 0.10
     Davidson diagonalization with overlap
     ethr =  9.43E-09,  avg # of iterations =  2.6

     total cpu time spent up to now is      569.1 secs

     total energy              =   -3971.48795608 Ry
     Harris-Foulkes estimate   =   -3971.48795526 Ry
     estimated scf accuracy    <       0.00000963 Ry

     total magnetization       =     0.00 Bohr mag/cell
     absolute magnetization    =     0.03 Bohr mag/cell

     iteration # 16     ecut=    71.00 Ry     beta= 0.10
     Davidson diagonalization with overlap
     ethr =  4.30E-09,  avg # of iterations =  4.4

     total cpu time spent up to now is      609.7 secs

     total energy              =   -3971.48796153 Ry
     Harris-Foulkes estimate   =   -3971.48796338 Ry
     estimated scf accuracy    <       0.00010349 Ry

     total magnetization       =     0.00 Bohr mag/cell
     absolute magnetization    =     0.03 Bohr mag/cell

     iteration # 17     ecut=    71.00 Ry     beta= 0.10
     Davidson diagonalization with overlap
     ethr =  4.30E-09,  avg # of iterations =  3.9

     total cpu time spent up to now is      639.6 secs

     total energy              =   -3971.48796204 Ry
     Harris-Foulkes estimate   =   -3971.48796299 Ry
     estimated scf accuracy    <       0.00003260 Ry

     total magnetization       =    -0.00 Bohr mag/cell
     absolute magnetization    =     0.02 Bohr mag/cell

     iteration # 18     ecut=    71.00 Ry     beta= 0.10
     Davidson diagonalization with overlap
     ethr =  4.30E-09,  avg # of iterations =  4.0

     total cpu time spent up to now is      674.0 secs

     total energy              =   -3971.48796552 Ry
     Harris-Foulkes estimate   =   -3971.48796441 Ry
     estimated scf accuracy    <       0.00000140 Ry

     total magnetization       =    -0.00 Bohr mag/cell
     absolute magnetization    =     0.02 Bohr mag/cell

     iteration # 19     ecut=    71.00 Ry     beta= 0.10
     Davidson diagonalization with overlap
     ethr =  6.26E-10,  avg # of iterations =  2.0

     total cpu time spent up to now is      696.3 secs

     total energy              =   -3971.48796648 Ry
     Harris-Foulkes estimate   =   -3971.48796555 Ry
     estimated scf accuracy    <       0.00000124 Ry

     total magnetization       =     0.00 Bohr mag/cell
     absolute magnetization    =     0.02 Bohr mag/cell

     iteration # 20     ecut=    71.00 Ry     beta= 0.10
     Davidson diagonalization with overlap
     ethr =  5.52E-10,  avg # of iterations =  1.0
 
     Magnetic moment per site:
     atom:    1    charge:   12.1728    magn:    0.0018    constr:    0.0000
     atom:    2    charge:   12.1738    magn:   -0.0012    constr:    0.0000
     atom:    3    charge:   12.1734    magn:    0.0014    constr:    0.0000
     atom:    4    charge:   12.1738    magn:   -0.0012    constr:    0.0000
     atom:    5    charge:   12.1734    magn:    0.0014    constr:    0.0000
     atom:    6    charge:   12.1738    magn:   -0.0012    constr:    0.0000
     atom:    7    charge:   12.1736    magn:    0.0011    constr:    0.0000
     atom:    8    charge:   12.1738    magn:   -0.0012    constr:    0.0000
     atom:    9    charge:   12.1734    magn:    0.0014    constr:    0.0000
     atom:   10    charge:   12.1738    magn:   -0.0012    constr:    0.0000
     atom:   11    charge:   12.1736    magn:    0.0011    constr:    0.0000
     atom:   12    charge:   12.1738    magn:   -0.0012    constr:    0.0000
     atom:   13    charge:   12.1736    magn:    0.0011    constr:    0.0000
     atom:   14    charge:   12.1738    magn:   -0.0012    constr:    0.0000
     atom:   15    charge:   12.1738    magn:    0.0012    constr:    0.0000
     atom:   16    charge:   12.1738    magn:   -0.0012    constr:    0.0000

     total cpu time spent up to now is      715.8 secs

     End of self-consistent calculation

 ------ SPIN UP ------------


          k = 0.0567 0.0567 0.0567 ( 11786 PWs)   bands (ev):

   -50.8487 -50.6242 -50.6242 -50.6241 -50.5847 -50.5847 -50.5847 -50.5834
   -50.5834 -50.5833 -50.5797 -50.5797 -50.5796 -50.5604 -50.5591 -50.3991
   -22.6192 -22.6192 -22.6192 -22.6138 -22.6138 -22.6137 -22.2603 -22.2603
   -22.2477 -22.1480 -22.1422 -22.1422 -22.1422 -22.0999 -22.0999 -22.0762
   -22.0762 -22.0762 -22.0016 -22.0016 -21.9530 -21.8965 -21.8965 -21.8965
   -21.8762 -21.8762 -21.8762 -21.8446 -21.8446 -21.8446 -21.8384 -21.8384
   -21.8384 -21.8287 -21.8287 -21.8287 -21.8097 -21.8097 -21.8097 -21.5041
   -21.5041 -21.5041 -21.5010 -21.4985 -21.4984 -21.4984 -21.4873 -21.4873
    13.0135  16.3133  16.3133  16.3133  16.3331  16.3331  16.3332  16.3620
    16.3620  16.7766  16.7766  16.7766  17.1852  17.1852  17.1852  18.3902
    18.4004  18.4004  18.4004  18.4179  18.4179  18.4179  18.5076  18.5076
    18.7028  18.7028  18.7752  18.7910  18.7910  18.7910  19.2904  19.2904
    19.2904  20.0864  20.0864  20.1472  20.4667  20.4667  20.4668  20.5932
    20.5932  20.5932  20.7059  20.7059  20.7059  20.8256  20.8256  20.8256
    21.7887  21.7887  21.7887  21.9225  21.9225  21.9225  22.1087  22.1087
    22.1087  22.1935  22.1935  22.1935  22.3391  22.3391  22.3391  22.3416
    22.3416  22.4142  22.4142  22.4142  22.7393  22.7394

          k = 0.0567 0.0567 0.1701 ( 11795 PWs)   bands (ev):

   -50.8408 -50.6642 -50.6222 -50.6222 -50.5881 -50.5881 -50.5839 -50.5839
   -50.5820 -50.5784 -50.5777 -50.5777 -50.5619 -50.5603 -50.5470 -50.4047
   -22.6031 -22.6031 -22.6019 -22.5969 -22.5868 -22.5868 -22.2681 -22.2478
   -22.2287 -22.2199 -22.1992 -22.1992 -22.1971 -22.1942 -22.1358 -22.1358
   -22.0673 -22.0133 -21.9985 -21.9637 -21.9423 -21.9055 -21.8961 -21.8961
   -21.8785 -21.8583 -21.8519 -21.8519 -21.8510 -21.8341 -21.8341 -21.8296
   -21.8296 -21.8252 -21.8252 -21.7628 -21.7610 -21.7609 -21.7452 -21.5316
   -21.5216 -21.5216 -21.5196 -21.5146 -21.5040 -21.5040 -21.4986 -21.4927
    13.1576  16.2246  16.3534  16.3534  16.4140  16.4140  16.4330  16.4374
    16.4516  16.4520  16.8118  16.8119  17.2116  17.2116  17.4034  18.2460
    18.3061  18.3755  18.3806  18.3965  18.4200  18.4630  18.4631  18.5153
    18.5153  18.5600  18.7565  18.7565  18.9602  18.9647  19.1930  19.1930
    19.7637  20.0511  20.0778  20.1940  20.1940  20.2254  20.2817  20.4182
    20.4182  20.4570  20.8072  20.8072  20.9593  20.9593  21.0008  21.1292
    21.3105  21.3105  21.4788  21.6300  21.6300  21.6399  21.7882  22.0871
    22.0871  22.2361  22.2469  22.2469  22.3560  22.3560  22.3654  22.3837
    22.3976  22.3996  22.3996  22.4295  22.7436  22.7760

          k = 0.0567 0.0567 0.2834 ( 11763 PWs)   bands (ev):

   -50.8252 -50.7034 -50.6184 -50.6184 -50.5939 -50.5939 -50.5825 -50.5825
   -50.5794 -50.5771 -50.5770 -50.5760 -50.5645 -50.5626 -50.5122 -50.4159
   -22.5674 -22.5664 -22.5664 -22.5635 -22.5398 -22.5398 -22.3013 -22.2903
   -22.2790 -22.2790 -22.2730 -22.2322 -22.2235 -22.2202 -22.2201 -22.2012
   -22.0344 -22.0285 -22.0060 -22.0000 -21.9119 -21.8918 -21.8918 -21.8836
   -21.8742 -21.8601 -21.8601 -21.8310 -21.8310 -21.8293 -21.8293 -21.8141
   -21.7976 -21.7603 -21.7602 -21.7004 -21.6997 -21.6996 -21.6842 -21.5824
   -21.5500 -21.5500 -21.5498 -21.5471 -21.5212 -21.5212 -21.5203 -21.5111
    13.4401  15.5974  16.4460  16.4460  16.5505  16.5505  16.5869  16.6207
    16.6630  16.6787  16.8413  16.8413  17.2051  17.2051  17.4292  17.8543
    18.0616  18.1419  18.2998  18.3466  18.3600  18.3831  18.6033  18.6033
    18.6895  18.6895  18.7965  18.7965  19.1523  19.1523  19.2748  19.2946
    19.8266  19.8266  20.0258  20.0281  20.0281  20.0488  20.0649  20.1496
    20.3406  20.5580  20.6523  20.6523  20.9120  20.9120  21.1344  21.1344
    21.1707  21.1840  21.1840  21.1876  21.2242  21.3530  21.4950  22.0301
    22.1030  22.1030  22.2406  22.2406  22.4152  22.4360  22.4650  22.4830
    22.4830  22.7182  22.7200  22.7413  22.7515  22.7839

          k = 0.0567 0.0567 0.3968 ( 11779 PWs)   bands (ev):

   -50.8026 -50.7405 -50.6132 -50.6132 -50.6004 -50.6004 -50.5807 -50.5807
   -50.5776 -50.5776 -50.5760 -50.5729 -50.5681 -50.5657 -50.4811 -50.4325
   -22.5172 -22.5152 -22.5119 -22.5119 -22.4755 -22.4755 -22.3810 -22.3765
   -22.3632 -22.3632 -22.3103 -22.3103 -22.2743 -22.2568 -22.1879 -22.1645
   -22.0888 -22.0656 -21.9973 -21.9734 -21.9179 -21.9054 -21.8854 -21.8854
   -21.8690 -21.8690 -21.8293 -21.8293 -21.8287 -21.8287 -21.8213 -21.7300
   -21.7209 -21.6963 -21.6962 -21.6509 -21.6434 -21.6411 -21.6410 -21.6288
   -21.5948 -21.5945 -21.5893 -21.5893 -21.5523 -21.5503 -21.5502 -21.5409
    13.8487  14.9601  16.5747  16.5747  16.7301  16.7301  16.8080  16.8114
    16.8114  16.8450  16.9840  16.9945  17.1055  17.1055  17.3038  17.4480
    17.7486  17.7697  18.2714  18.2999  18.3083  18.3201  18.8151  18.8152
    18.9332  18.9332  19.0140  19.0140  19.2571  19.2571  19.4998  19.4998
    19.6403  19.6403  19.6707  19.6905  20.0143  20.0198  20.0198  20.0553
    20.0663  20.0714  20.2444  20.2444  20.4955  20.6494  20.6588  20.9227
    20.9446  21.4392  21.4392  21.4787  21.4787  21.7337  21.7577  21.9121
    21.9143  21.9144  22.0526  22.0526  22.4833  22.4970  22.5805  22.6439
    22.6481  22.6541  22.7620  22.7856  22.7930  22.8042

          k = 0.0567 0.0567-0.5102 ( 11792 PWs)   bands (ev):

   -50.7742 -50.7738 -50.6072 -50.6072 -50.6069 -50.6068 -50.5791 -50.5791
   -50.5788 -50.5787 -50.5721 -50.5720 -50.5695 -50.5690 -50.4545 -50.4542
   -22.4537 -22.4533 -22.4531 -22.4527 -22.4428 -22.4428 -22.4427 -22.4427
   -22.3975 -22.3975 -22.3974 -22.3974 -22.2699 -22.2696 -22.1426 -22.1422
   -22.1191 -22.1188 -21.9572 -21.9570 -21.9401 -21.9398 -21.8778 -21.8778
   -21.8774 -21.8774 -21.8289 -21.8288 -21.8285 -21.8285 -21.7325 -21.7323
   -21.6565 -21.6562 -21.6523 -21.6520 -21.6386 -21.6386 -21.6385 -21.6384
   -21.5938 -21.5935 -21.5906 -21.5906 -21.5905 -21.5905 -21.5807 -21.5805
    14.3643  14.3648  16.7105  16.7105  16.7107  16.7107  16.9288  16.9288
    16.9290  16.9290  17.0889  17.0892  17.0966  17.0970  17.3663  17.3666
    17.3669  17.3675  18.2785  18.2787  18.2925  18.2928  19.0850  19.0850
    19.0851  19.0851  19.2093  19.2093  19.2094  19.2094  19.4990  19.4990
    19.4993  19.4993  19.7050  19.7050  19.7053  19.7053  20.0244  20.0246
    20.0568  20.0571  20.1353  20.1354  20.1463  20.1464  20.6903  20.6906
    21.3628  21.3631  21.6892  21.6892  21.6893  21.6893  21.7937  21.7938
    21.7938  21.7938  22.1999  22.2001  22.3636  22.3639  22.5622  22.5626
    22.5704  22.5708  22.7246  22.7249  22.7737  22.7741

          k = 0.0567 0.1701 0.1701 ( 11754 PWs)   bands (ev):

   -50.8330 -50.6611 -50.6610 -50.6202 -50.5996 -50.5866 -50.5866 -50.5831
   -50.5766 -50.5765 -50.5690 -50.5639 -50.5609 -50.5474 -50.5474 -50.4101
   -22.5980 -22.5863 -22.5863 -22.5715 -22.5715 -22.5494 -22.2822 -22.2652
   -22.2481 -22.2481 -22.2408 -22.2356 -22.2257 -22.1992 -22.1758 -22.0877
   -22.0600 -22.0600 -21.9914 -21.9622 -21.9622 -21.9087 -21.8901 -21.8901
   -21.8708 -21.8674 -21.8674 -21.8661 -21.8462 -21.8462 -21.8390 -21.8225
   -21.8177 -21.7821 -21.7650 -21.7650 -21.7233 -21.6992 -21.6992 -21.5725
   -21.5499 -21.5335 -21.5335 -21.5190 -21.5190 -21.5077 -21.4975 -21.4879
    13.2994  16.2801  16.2801  16.3420  16.4739  16.4739  16.5157  16.5265
    16.5309  16.5309  16.5369  16.8601  17.2561  17.4351  17.4351  18.1137
    18.2587  18.3136  18.3136  18.4396  18.4396  18.4863  18.4864  18.4872
    18.4903  18.6464  18.6511  18.6944  18.9592  18.9835  19.0762  19.5711
    19.5711  19.9700  20.0246  20.0246  20.0552  20.0885  20.2628  20.3564
    20.6951  20.6951  20.7572  20.7572  20.8169  20.9042  21.0420  21.1332
    21.1332  21.1843  21.1843  21.3559  21.3559  21.4966  21.7777  21.7777
    22.0939  22.2189  22.2768  22.2768  22.3182  22.3528  22.3584  22.3584
    22.3757  22.5862  22.6999  22.7082  22.7082  22.7531

          k = 0.0567 0.1701 0.2834 ( 11768 PWs)   bands (ev):

   -50.8178 -50.6992 -50.6550 -50.6165 -50.6118 -50.5923 -50.5838 -50.5816
   -50.5760 -50.5744 -50.5672 -50.5626 -50.5619 -50.5483 -50.5137 -50.4208
   -22.5723 -22.5535 -22.5517 -22.5419 -22.5276 -22.4929 -22.3229 -22.3221
   -22.2970 -22.2967 -22.2960 -22.2821 -22.2417 -22.2175 -22.1627 -22.1469
   -22.0634 -22.0260 -21.9815 -21.9744 -21.9543 -21.9537 -21.9129 -21.8966
   -21.8902 -21.8783 -21.8692 -21.8442 -21.8439 -21.8232 -21.8034 -21.7924
   -21.7686 -21.7588 -21.7286 -21.7040 -21.6753 -21.6431 -21.6421 -21.6326
   -21.5886 -21.5577 -21.5566 -21.5489 -21.5329 -21.5288 -21.5029 -21.4955
    13.5767  15.6764  16.3629  16.3687  16.5664  16.6595  16.6658  16.6868
    16.7052  16.7067  16.7540  16.9134  17.2810  17.4187  17.4719  17.8933
    17.9730  18.0941  18.3925  18.3992  18.4211  18.4376  18.5204  18.5688
    18.5949  18.6433  18.6828  18.8528  18.9887  19.1590  19.2181  19.4406
    19.6927  19.8073  19.8343  19.8937  19.9171  19.9778  20.0282  20.2545
    20.2882  20.5228  20.5369  20.7306  20.8060  20.8742  20.9076  20.9151
    21.0250  21.1388  21.1693  21.2396  21.2770  21.4793  21.4830  21.9176
    22.0624  22.1368  22.1752  22.2437  22.2896  22.3360  22.3916  22.4140
    22.6280  22.6932  22.6966  22.7307  22.7831  22.7892

          k = 0.0567 0.1701 0.3968 ( 11792 PWs)   bands (ev):

   -50.7958 -50.7353 -50.6464 -50.6241 -50.6114 -50.5987 -50.5801 -50.5798
   -50.5766 -50.5716 -50.5712 -50.5652 -50.5565 -50.5500 -50.4837 -50.4368
   -22.5282 -22.5056 -22.5009 -22.4992 -22.4679 -22.4201 -22.3986 -22.3855
   -22.3736 -22.3668 -22.3186 -22.3068 -22.3019 -22.2415 -22.1827 -22.1193
   -22.0853 -22.0241 -22.0141 -21.9610 -21.9421 -21.9354 -21.9093 -21.9092
   -21.8992 -21.8899 -21.8836 -21.8452 -21.8436 -21.7915 -21.7741 -21.7557
   -21.7175 -21.7075 -21.6964 -21.6761 -21.6485 -21.6365 -21.6289 -21.5934
   -21.5931 -21.5919 -21.5914 -21.5885 -21.5598 -21.5559 -21.5208 -21.5163
    13.9771  15.0601  16.4127  16.4280  16.6932  16.8436  16.8668  16.8839
    16.9084  16.9364  17.0269  17.0609  17.2061  17.2936  17.3504  17.5161
    17.7438  17.7916  18.3200  18.3538  18.3859  18.3884  18.7048  18.7548
    18.7719  18.8273  18.8450  19.0079  19.1244  19.2927  19.5060  19.5629
    19.5646  19.6026  19.6805  19.6887  19.8301  19.8404  19.8726  19.9326
    19.9660  19.9981  20.1297  20.3010  20.3951  20.4104  20.7190  21.1514
    21.2009  21.4050  21.4080  21.4854  21.4900  21.5158  21.7354  21.8061
    21.8521  21.9521  22.0539  22.1153  22.2864  22.4185  22.4542  22.5319
    22.5826  22.6092  22.6187  22.7111  22.7785  22.7821

          k = 0.0567 0.1701-0.5102 ( 11796 PWs)   bands (ev):

   -50.7681 -50.7677 -50.6361 -50.6358 -50.6054 -50.6051 -50.5782 -50.5778
   -50.5759 -50.5756 -50.5685 -50.5681 -50.5528 -50.5524 -50.4580 -50.4577
   -22.4690 -22.4689 -22.4461 -22.4458 -22.4449 -22.4446 -22.4376 -22.4375
   -22.3964 -22.3963 -22.3346 -22.3345 -22.3094 -22.3093 -22.1382 -22.1379
   -22.0697 -22.0695 -21.9797 -21.9795 -21.9318 -21.9316 -21.9270 -21.9266
   -21.9008 -21.9005 -21.8446 -21.8443 -21.7929 -21.7928 -21.7818 -21.7814
   -21.6926 -21.6926 -21.6502 -21.6498 -21.6404 -21.6401 -21.6285 -21.6285
   -21.6002 -21.5999 -21.5883 -21.5883 -21.5506 -21.5506 -21.5490 -21.5488
    14.4807  14.4811  16.4426  16.4428  16.8227  16.8229  17.0391  17.0393
    17.0975  17.0977  17.1204  17.1208  17.2017  17.2021  17.4061  17.4065
    17.4124  17.4128  18.3198  18.3200  18.3563  18.3565  18.9513  18.9515
    18.9826  18.9829  19.0125  19.0126  19.1271  19.1274  19.4964  19.4965
    19.5869  19.5871  19.6838  19.6840  19.8174  19.8175  19.8228  19.8230
    19.9323  19.9324  19.9667  19.9668  19.9688  19.9690  20.9449  20.9451
    21.4891  21.4894  21.5608  21.5608  21.7309  21.7309  21.7964  21.7964
    21.8352  21.8353  21.8508  21.8508  22.2719  22.2722  22.5134  22.5138
    22.5338  22.5341  22.6810  22.6813  22.7761  22.7765

          k = 0.0567 0.2834 0.2834 ( 11792 PWs)   bands (ev):

   -50.8033 -50.6910 -50.6910 -50.6301 -50.6129 -50.5894 -50.5894 -50.5801
   -50.5740 -50.5740 -50.5710 -50.5638 -50.5487 -50.5169 -50.5169 -50.4307
   -22.5580 -22.5231 -22.5231 -22.5043 -22.5042 -22.4278 -22.3537 -22.3490
   -22.3490 -22.3296 -22.3283 -22.3236 -22.2820 -22.1960 -22.1162 -22.0649
   -22.0628 -22.0628 -22.0146 -22.0145 -21.9719 -21.9319 -21.9201 -21.9116
   -21.9116 -21.8868 -21.8868 -21.8680 -21.8679 -21.8587 -21.7785 -21.7438
   -21.7120 -21.7116 -21.7115 -21.7030 -21.6882 -21.6431 -21.6358 -21.5929
   -21.5928 -21.5707 -21.5707 -21.5561 -21.5561 -21.5480 -21.4962 -21.4891
    13.8433  15.8149  15.8149  16.3043  16.7869  16.7963  16.7963  16.8511
    16.8826  16.8842  16.8842  17.0160  17.3744  17.4638  17.4638  17.8913
    17.9915  18.0576  18.0576  18.4638  18.5101  18.5101  18.5663  18.5663
    18.5712  18.5733  18.6626  18.8304  19.0897  19.1023  19.1961  19.5543
    19.5544  19.6978  19.6978  19.7250  19.7576  19.7829  19.8331  19.9780
    20.3131  20.3131  20.4072  20.4072  20.5976  20.6038  20.6038  20.7484
    21.2389  21.2389  21.3287  21.3869  21.4428  21.4428  21.7290  21.8651
    21.8651  22.0573  22.2060  22.2060  22.2566  22.2757  22.2757  22.2989
    22.3774  22.6305  22.6322  22.6343  22.7792  22.7902

          k = 0.0567 0.2834 0.3968 ( 11815 PWs)   bands (ev):

   -50.7824 -50.7251 -50.6793 -50.6480 -50.6078 -50.5956 -50.5853 -50.5783
   -50.5756 -50.5748 -50.5714 -50.5658 -50.5376 -50.5218 -50.4889 -50.4455
   -22.5251 -22.4823 -22.4801 -22.4716 -22.4540 -22.4164 -22.3917 -22.3780
   -22.3763 -22.3606 -22.3478 -22.3452 -22.3359 -22.1632 -22.1596 -22.0708
   -22.0647 -22.0396 -21.9971 -21.9714 -21.9553 -21.9540 -21.9491 -21.9488
   -21.9399 -21.9260 -21.8983 -21.8689 -21.8671 -21.8178 -21.7862 -21.7564
   -21.7228 -21.6906 -21.6880 -21.6662 -21.6596 -21.6493 -21.6125 -21.5936
   -21.5906 -21.5902 -21.5769 -21.5686 -21.5507 -21.5504 -21.5017 -21.4969
    14.2261  15.2463  15.9772  16.2302  16.9165  16.9624  17.0317  17.0558
    17.0712  17.1119  17.1266  17.1784  17.3590  17.3651  17.3718  17.7218
    17.7529  17.7932  18.3752  18.4141  18.4457  18.4830  18.4860  18.6075
    18.6548  18.7053  18.7774  18.8022  19.2649  19.2744  19.2880  19.3824
    19.4039  19.5471  19.5734  19.6465  19.6483  19.6690  19.7932  19.8409
    19.9110  19.9200  20.0118  20.0154  20.1662  20.1703  20.9729  20.9986
    21.4285  21.4360  21.5630  21.5720  21.5803  21.5915  21.5986  21.7040
    21.8404  21.9136  22.0324  22.0908  22.1315  22.2687  22.3053  22.3457
    22.4378  22.4545  22.5346  22.5430  22.6678  22.7821

          k = 0.0567 0.2834-0.5102 ( 11794 PWs)   bands (ev):

   -50.7562 -50.7558 -50.6648 -50.6645 -50.6021 -50.6017 -50.5807 -50.5804
   -50.5765 -50.5761 -50.5687 -50.5684 -50.5288 -50.5285 -50.4652 -50.4648
   -22.4767 -22.4766 -22.4328 -22.4325 -22.4325 -22.4321 -22.4289 -22.4288
   -22.3957 -22.3956 -22.3584 -22.3583 -22.2566 -22.2565 -22.1210 -22.1207
   -22.0088 -22.0086 -21.9993 -21.9991 -21.9750 -21.9746 -21.9368 -21.9366
   -21.9295 -21.9293 -21.8772 -21.8771 -21.8696 -21.8694 -21.7518 -21.7518
   -21.7378 -21.7375 -21.6354 -21.6352 -21.6260 -21.6257 -21.6163 -21.6163
   -21.6146 -21.6142 -21.5874 -21.5874 -21.5198 -21.5198 -21.5178 -21.5177
    14.7035  14.7040  16.1231  16.1234  17.0274  17.0276  17.1676  17.1680
    17.2108  17.2110  17.2391  17.2393  17.4119  17.4122  17.4699  17.4702
    17.4964  17.4968  18.4018  18.4020  18.4417  18.4419  18.7345  18.7348
    18.7651  18.7654  18.7977  18.7981  19.0065  19.0066  19.5759  19.5759
    19.5807  19.5808  19.5881  19.5882  19.6233  19.6234  19.6829  19.6830
    19.7615  19.7616  19.8289  19.8290  19.8608  19.8610  21.2697  21.2698
    21.3900  21.3901  21.4688  21.4689  21.6844  21.6846  21.8245  21.8246
    21.8500  21.8502  21.8994  21.8995  22.0482  22.0484  22.4205  22.4208
    22.4407  22.4410  22.6015  22.6019  22.6522  22.6522

          k = 0.0567 0.3968 0.3968 ( 11789 PWs)   bands (ev):

   -50.7632 -50.7105 -50.7105 -50.6710 -50.6030 -50.5912 -50.5912 -50.5807
   -50.5762 -50.5724 -50.5724 -50.5675 -50.5213 -50.4969 -50.4969 -50.4585
   -22.5037 -22.4520 -22.4519 -22.4361 -22.4360 -22.4176 -22.4176 -22.4020
   -22.3945 -22.3941 -22.3790 -22.3629 -22.2619 -22.1331 -22.0683 -22.0683
   -22.0484 -22.0483 -22.0340 -22.0057 -21.9861 -21.9683 -21.9682 -21.9631
   -21.9454 -21.8987 -21.8987 -21.8852 -21.8811 -21.8811 -21.8763 -21.7503
   -21.7250 -21.6762 -21.6762 -21.6518 -21.6372 -21.6256 -21.6024 -21.5993
   -21.5979 -21.5979 -21.5891 -21.5890 -21.5189 -21.5189 -21.4945 -21.4907
    14.5796  15.4920  15.4920  16.0131  17.0875  17.1624  17.2127  17.2127
    17.2251  17.3291  17.3291  17.3302  17.3302  17.3918  17.5020  17.7246
    17.7320  18.0387  18.0387  18.4645  18.4880  18.4979  18.5490  18.5490
    18.5654  18.5654  18.6366  18.8558  18.9022  19.2068  19.2850  19.2850
    19.3195  19.4675  19.4834  19.5456  19.6318  19.6318  19.6517  19.6517
    19.7198  19.7291  19.7291  19.8410  19.9456  20.5261  20.5261  21.3004
    21.3780  21.4739  21.5563  21.5563  21.7247  21.7247  21.7569  21.7707
    21.9444  21.9444  21.9682  22.1070  22.1127  22.1506  22.1506  22.1784
    22.1785  22.4187  22.4230  22.4299  22.5530  22.6823

          k = 0.0567 0.3968-0.5102 ( 11804 PWs)   bands (ev):

   -50.7390 -50.7387 -50.6923 -50.6920 -50.5974 -50.5971 -50.5862 -50.5859
   -50.5743 -50.5740 -50.5700 -50.5697 -50.5078 -50.5075 -50.4759 -50.4755
   -22.4668 -22.4668 -22.4215 -22.4212 -22.4207 -22.4205 -22.4177 -22.4174
   -22.4042 -22.4042 -22.3980 -22.3978 -22.1672 -22.1671 -22.0944 -22.0941
   -22.0199 -22.0196 -22.0076 -22.0075 -21.9729 -21.9728 -21.9721 -21.9721
   -21.9442 -21.9441 -21.9261 -21.9260 -21.8957 -21.8956 -21.8142 -21.8141
   -21.6984 -21.6980 -21.6360 -21.6357 -21.6176 -21.6174 -21.6137 -21.6135
   -21.6085 -21.6083 -21.5914 -21.5913 -21.5001 -21.5001 -21.4984 -21.4983
    15.0125  15.0130  15.7597  15.7601  17.2213  17.2217  17.2636  17.2639
    17.2745  17.2747  17.4717  17.4719  17.5167  17.5170  17.5911  17.5914
    17.7045  17.7049  18.4282  18.4286  18.4791  18.4791  18.4851  18.4851
    18.5353  18.5356  18.6008  18.6011  19.0659  19.0660  19.3594  19.3594
    19.3620  19.3621  19.4330  19.4330  19.4469  19.4470  19.4915  19.4916
    19.7777  19.7778  19.7788  19.7788  20.1016  20.1017  20.9328  20.9328
    21.4690  21.4690  21.6152  21.6153  21.7939  21.7940  21.8830  21.8832
    21.9656  21.9657  21.9702  21.9704  21.9716  21.9718  22.2883  22.2885
    22.3001  22.3004  22.3249  22.3249  22.5106  22.5109

          k = 0.0567-0.5102-0.5102 ( 11812 PWs)   bands (ev):

   -50.7174 -50.7174 -50.7171 -50.7170 -50.5920 -50.5920 -50.5917 -50.5916
   -50.5721 -50.5720 -50.5717 -50.5716 -50.4901 -50.4901 -50.4898 -50.4897
   -22.4417 -22.4416 -22.4416 -22.4416 -22.4171 -22.4170 -22.4169 -22.4168
   -22.4052 -22.4052 -22.4050 -22.4050 -22.0708 -22.0708 -22.0708 -22.0708
   -22.0603 -22.0602 -22.0599 -22.0598 -21.9987 -21.9987 -21.9987 -21.9987
   -21.9154 -21.9154 -21.9154 -21.9154 -21.8790 -21.8790 -21.8789 -21.8789
   -21.6643 -21.6642 -21.6639 -21.6638 -21.6073 -21.6073 -21.6072 -21.6072
   -21.6017 -21.6016 -21.6015 -21.6015 -21.4927 -21.4927 -21.4927 -21.4927
    15.3771  15.3772  15.3775  15.3776  17.2611  17.2611  17.2614  17.2615
    17.4663  17.4663  17.4665  17.4665  17.6151  17.6151  17.6153  17.6153
    18.0535  18.0536  18.0539  18.0540  18.4633  18.4634  18.4635  18.4636
    18.5159  18.5159  18.5160  18.5161  19.1860  19.1860  19.1860  19.1860
    19.3098  19.3098  19.3098  19.3098  19.4016  19.4016  19.4016  19.4016
    19.7492  19.7492  19.7493  19.7493  20.4967  20.4968  20.4968  20.4968
    21.5836  21.5836  21.5837  21.5837  21.9586  21.9586  21.9587  21.9587
    22.0095  22.0096  22.0097  22.0097  22.1296  22.1297  22.1298  22.1299
    22.1338  22.1339  22.1341  22.1341  22.4783  22.4786

          k = 0.1701 0.1701 0.1701 ( 11728 PWs)   bands (ev):

   -50.8254 -50.6580 -50.6580 -50.6579 -50.5978 -50.5978 -50.5977 -50.5682
   -50.5681 -50.5681 -50.5677 -50.5597 -50.5478 -50.5478 -50.5477 -50.4153
   -22.5808 -22.5808 -22.5808 -22.5368 -22.5368 -22.5368 -22.3045 -22.2803
   -22.2803 -22.2803 -22.2693 -22.2693 -22.1832 -22.1832 -22.1616 -22.1027
   -22.1027 -22.1027 -21.9781 -21.9780 -21.9780 -21.8967 -21.8967 -21.8903
   -21.8903 -21.8902 -21.8426 -21.8426 -21.8426 -21.8276 -21.8276 -21.8276
   -21.7716 -21.7712 -21.7712 -21.7712 -21.6678 -21.6678 -21.6678 -21.6136
   -21.5568 -21.5568 -21.5567 -21.5135 -21.5134 -21.5134 -21.4995 -21.4995
    13.4390  16.3446  16.3446  16.3446  16.4661  16.4661  16.4661  16.6071
    16.6071  16.6405  16.6405  16.6405  17.4916  17.4916  17.4916  18.0012
    18.2914  18.2914  18.2914  18.3800  18.3800  18.4669  18.4669  18.4669
    18.6051  18.6051  18.6051  18.8620  18.8725  18.8725  19.3929  19.3929
    19.3929  19.9323  19.9323  19.9323  19.9505  19.9505  20.4581  20.4581
    20.4581  20.5030  20.6984  20.6984  20.6984  20.8979  20.8979  20.8979
    21.1709  21.1709  21.1709  21.2831  21.2831  21.2831  22.0359  22.0359
    22.0359  22.1435  22.1435  22.1435  22.2678  22.2678  22.3617  22.3617
    22.3617  22.7048  22.7049  22.7049  22.7544  22.7544

          k = 0.1701 0.1701 0.2834 ( 11780 PWs)   bands (ev):

   -50.8106 -50.6951 -50.6520 -50.6520 -50.6097 -50.6097 -50.5944 -50.5728
   -50.5666 -50.5614 -50.5613 -50.5597 -50.5486 -50.5486 -50.5152 -50.4256
   -22.5561 -22.5561 -22.5471 -22.5127 -22.4842 -22.4842 -22.3469 -22.3345
   -22.3344 -22.3092 -22.2946 -22.2747 -22.2445 -22.1725 -22.1725 -22.1355
   -22.1183 -22.0446 -22.0195 -21.9816 -21.9815 -21.9265 -21.9141 -21.9141
   -21.9103 -21.9031 -21.8463 -21.8122 -21.8121 -21.8072 -21.7850 -21.7850
   -21.7772 -21.7771 -21.7194 -21.7072 -21.6763 -21.6267 -21.6267 -21.6178
   -21.5884 -21.5883 -21.5715 -21.5454 -21.5219 -21.5177 -21.5176 -21.5008
    13.7120  15.7612  16.4447  16.4447  16.4952  16.4952  16.7049  16.7459
    16.7778  16.7992  16.7992  16.8567  17.5138  17.5138  17.5483  17.8981
    17.8998  18.2311  18.3248  18.3492  18.3492  18.4258  18.5364  18.5657
    18.5657  18.6716  18.7867  18.7867  18.9739  19.1479  19.2347  19.2347
    19.6079  19.7068  19.7068  19.8124  19.8456  19.9147  20.1320  20.1320
    20.1790  20.1790  20.4710  20.6619  20.6619  20.6918  20.6976  20.7043
    21.0394  21.1936  21.1936  21.3960  21.3960  21.6060  21.7409  21.9849
    21.9849  22.1031  22.2333  22.2801  22.2802  22.3231  22.3604  22.3888
    22.3907  22.3907  22.6858  22.6914  22.7137  22.7523

          k = 0.1701 0.1701 0.3968 ( 11790 PWs)   bands (ev):

   -50.7891 -50.7302 -50.6436 -50.6436 -50.6218 -50.6218 -50.5897 -50.5784
   -50.5646 -50.5607 -50.5562 -50.5562 -50.5501 -50.5501 -50.4862 -50.4410
   -22.5146 -22.5146 -22.4978 -22.4786 -22.4165 -22.4165 -22.3978 -22.3977
   -22.3921 -22.3593 -22.3231 -22.3134 -22.2543 -22.2543 -22.2082 -22.1067
   -22.0829 -22.0703 -21.9740 -21.9734 -21.9734 -21.9621 -21.9370 -21.9370
   -21.9298 -21.9073 -21.8691 -21.8000 -21.8000 -21.7831 -21.7831 -21.7531
   -21.7277 -21.7277 -21.7249 -21.6707 -21.6487 -21.6279 -21.6278 -21.5952
   -21.5921 -21.5873 -21.5872 -21.5743 -21.5549 -21.5316 -21.5316 -21.5142
    14.1053  15.1634  16.5303  16.5303  16.5383  16.5383  16.9504  16.9963
    16.9963  17.0033  17.0395  17.1492  17.4060  17.4061  17.4475  17.5349
    17.7407  17.8610  18.3136  18.3776  18.4658  18.4921  18.5933  18.5933
    18.7280  18.7280  18.9939  18.9939  19.1187  19.1187  19.2974  19.4679
    19.5574  19.5574  19.6762  19.6762  19.7323  19.7442  19.7682  19.7910
    19.7910  19.8670  20.1177  20.1177  20.1628  20.1874  20.9220  21.0266
    21.2929  21.4487  21.5206  21.5206  21.5305  21.5305  21.8202  21.8202
    21.8646  21.8699  21.9926  22.1044  22.1044  22.3480  22.4486  22.4881
    22.5879  22.6116  22.7150  22.7150  22.7248  22.7453

          k = 0.1701 0.1701-0.5102 ( 11794 PWs)   bands (ev):

   -50.7621 -50.7618 -50.6335 -50.6335 -50.6332 -50.6331 -50.5844 -50.5841
   -50.5627 -50.5623 -50.5527 -50.5527 -50.5523 -50.5523 -50.4614 -50.4611
   -22.4602 -22.4601 -22.4601 -22.4601 -22.4375 -22.4371 -22.4347 -22.4344
   -22.3382 -22.3381 -22.3380 -22.3380 -22.3238 -22.3237 -22.1618 -22.1615
   -22.0280 -22.0277 -22.0181 -22.0180 -21.9577 -21.9577 -21.9574 -21.9574
   -21.8917 -21.8914 -21.8393 -21.8392 -21.7906 -21.7905 -21.7902 -21.7902
   -21.6747 -21.6747 -21.6746 -21.6746 -21.6528 -21.6524 -21.6286 -21.6284
   -21.5976 -21.5973 -21.5549 -21.5549 -21.5549 -21.5549 -21.5392 -21.5391
    14.5984  14.5989  16.5609  16.5609  16.5612  16.5612  17.2110  17.2110
    17.2112  17.2112  17.2156  17.2160  17.2444  17.2447  17.4396  17.4400
    17.4703  17.4706  18.3354  18.3357  18.4317  18.4319  18.9330  18.9330
    18.9332  18.9332  18.9449  18.9450  18.9453  18.9453  19.5176  19.5176
    19.5177  19.5177  19.7073  19.7073  19.7075  19.7075  19.7131  19.7132
    19.7312  19.7312  19.8089  19.8092  19.8154  19.8156  21.1732  21.1733
    21.4215  21.4215  21.5883  21.5885  21.6626  21.6626  21.6627  21.6627
    21.8459  21.8460  21.8460  21.8460  22.4220  22.4222  22.4711  22.4714
    22.5266  22.5270  22.6427  22.6430  22.7357  22.7360

          k = 0.1701 0.2834 0.2834 ( 11802 PWs)   bands (ev):

   -50.7965 -50.6870 -50.6870 -50.6463 -50.6275 -50.6058 -50.6057 -50.5793
   -50.5604 -50.5603 -50.5581 -50.5492 -50.5486 -50.5182 -50.5182 -50.4351
   -22.5414 -22.5242 -22.5242 -22.4680 -22.4679 -22.4237 -22.3702 -22.3604
   -22.3560 -22.3560 -22.3104 -22.2922 -22.2395 -22.2193 -22.1570 -22.0920
   -22.0920 -22.0679 -22.0476 -22.0475 -22.0047 -21.9565 -21.9565 -21.9496
   -21.8806 -21.8430 -21.8430 -21.8281 -21.8281 -21.7874 -21.7842 -21.7724
   -21.7433 -21.7374 -21.7143 -21.7142 -21.6807 -21.6275 -21.6038 -21.5913
   -21.5913 -21.5841 -21.5841 -21.5467 -21.5467 -21.5359 -21.5116 -21.5012
    13.9757  15.9112  15.9113  16.4357  16.5795  16.7386  16.7386  16.8823
    16.9424  16.9631  17.0107  17.0108  17.5806  17.5806  17.6337  17.8549
    18.0201  18.0201  18.1622  18.2876  18.4017  18.5146  18.5146  18.6328
    18.6782  18.6782  18.7205  18.8361  18.9913  19.0456  19.1141  19.4003
    19.4003  19.5870  19.6244  19.6244  19.7248  19.7336  19.8352  19.9008
    20.0282  20.0282  20.2615  20.2615  20.3266  20.3266  20.3385  20.9354
    21.3187  21.3187  21.3729  21.5491  21.6405  21.6405  21.8316  21.8621
    22.1044  22.1044  22.1109  22.1109  22.1120  22.2579  22.3066  22.3066
    22.3223  22.6370  22.6424  22.6441  22.6553  22.7321

          k = 0.1701 0.2834 0.3968 ( 11819 PWs)   bands (ev):

   -50.7761 -50.7202 -50.6756 -50.6450 -50.6382 -50.6173 -50.6002 -50.5865
   -50.5592 -50.5577 -50.5557 -50.5504 -50.5379 -50.5229 -50.4912 -50.4493
   -22.5097 -22.4882 -22.4781 -22.4459 -22.4111 -22.4107 -22.3990 -22.3948
   -22.3619 -22.3538 -22.3491 -22.3350 -22.2795 -22.2079 -22.1770 -22.1211
   -22.1088 -22.0353 -22.0146 -22.0122 -22.0100 -22.0036 -21.9835 -21.9832
   -21.9014 -21.8745 -21.8471 -21.8239 -21.8149 -21.7964 -21.7827 -21.7603
   -21.7253 -21.7076 -21.6915 -21.6735 -21.6570 -21.6462 -21.6179 -21.6009
   -21.5892 -21.5821 -21.5663 -21.5531 -21.5530 -21.5489 -21.5156 -21.5069
    14.3537  15.3563  16.0885  16.3620  16.7113  16.7783  17.0613  17.0791
    17.1460  17.1781  17.2060  17.2910  17.4791  17.4868  17.6023  17.7202
    17.7766  17.8872  18.3279  18.3833  18.4202  18.4545  18.5672  18.5792
    18.6525  18.7655  18.8013  18.9221  19.0327  19.1538  19.1787  19.3005
    19.3510  19.4531  19.4796  19.5436  19.6069  19.6137  19.6264  19.6569
    19.7645  19.8100  19.8127  19.8184  19.9467  19.9506  20.6017  21.2032
    21.3973  21.5191  21.6260  21.6308  21.6317  21.6939  21.7118  21.8037
    21.9661  21.9670  21.9687  22.1356  22.1360  22.2524  22.3720  22.4178
    22.4938  22.5412  22.5576  22.6559  22.7272  22.7283

          k = 0.1701 0.2834-0.5102 ( 11798 PWs)   bands (ev):

   -50.7505 -50.7501 -50.6615 -50.6611 -50.6285 -50.6282 -50.5938 -50.5935
   -50.5583 -50.5580 -50.5526 -50.5523 -50.5295 -50.5292 -50.4683 -50.4679
   -22.4645 -22.4645 -22.4442 -22.4441 -22.4207 -22.4204 -22.4201 -22.4197
   -22.3539 -22.3538 -22.3460 -22.3459 -22.2650 -22.2650 -22.1632 -22.1628
   -22.0675 -22.0673 -22.0127 -22.0124 -22.0037 -22.0035 -21.9589 -21.9588
   -21.9124 -21.9124 -21.8639 -21.8637 -21.8050 -21.8048 -21.7408 -21.7405
   -21.7256 -21.7256 -21.6512 -21.6511 -21.6438 -21.6435 -21.6193 -21.6191
   -21.6074 -21.6071 -21.5648 -21.5647 -21.5294 -21.5294 -21.5228 -21.5227
    14.8239  14.8243  16.2479  16.2483  16.7813  16.7816  17.2751  17.2755
    17.3289  17.3291  17.4203  17.4205  17.4443  17.4447  17.4824  17.4828
    17.5788  17.5791  18.4027  18.4030  18.5105  18.5106  18.7010  18.7013
    18.7432  18.7435  18.8055  18.8057  18.9540  18.9541  19.3943  19.3944
    19.4849  19.4850  19.5019  19.5019  19.5268  19.5268  19.5576  19.5578
    19.6011  19.6012  19.6554  19.6554  19.6907  19.6909  20.9659  20.9660
    21.4927  21.4928  21.6452  21.6452  21.7541  21.7543  21.8304  21.8304
    21.9000  21.9002  21.9109  21.9111  22.3498  22.3500  22.4047  22.4051
    22.4610  22.4613  22.5728  22.5731  22.7019  22.7021

          k = 0.1701 0.3968 0.3968 ( 11809 PWs)   bands (ev):

   -50.7573 -50.7060 -50.7059 -50.6674 -50.6306 -50.6110 -50.6110 -50.5950
   -50.5560 -50.5553 -50.5552 -50.5512 -50.5222 -50.4988 -50.4988 -50.4618
   -22.4879 -22.4517 -22.4517 -22.4082 -22.4082 -22.4071 -22.4043 -22.4042
   -22.3962 -22.3718 -22.3648 -22.3157 -22.2692 -22.1828 -22.1216 -22.0926
   -22.0926 -22.0902 -22.0902 -22.0407 -22.0374 -22.0374 -22.0262 -21.9568
   -21.9081 -21.8589 -21.8399 -21.8399 -21.8319 -21.8318 -21.8092 -21.7255
   -21.7247 -21.6734 -21.6733 -21.6689 -21.6581 -21.6270 -21.6126 -21.6126
   -21.5921 -21.5846 -21.5846 -21.5793 -21.5268 -21.5268 -21.5091 -21.5035
    14.7060  15.6109  15.6109  16.1461  16.9163  17.1069  17.1069  17.1921
    17.2796  17.4358  17.4489  17.4489  17.4757  17.4757  17.7603  17.7703
    17.8075  18.0396  18.0396  18.3238  18.4611  18.5546  18.5668  18.5668
    18.6144  18.6144  18.7719  18.8486  18.8654  18.9341  19.2324  19.2324
    19.2422  19.3103  19.4425  19.4571  19.4571  19.4941  19.4941  19.5033
    19.5056  19.5606  19.5606  19.6794  19.7330  20.1910  20.1910  20.9387
    21.5153  21.6732  21.7695  21.7695  21.8103  21.8412  21.8412  21.8678
    22.0189  22.1289  22.1418  22.1418  22.1910  22.1910  22.2195  22.2196
    22.3910  22.4499  22.4553  22.4644  22.5543  22.6713

          k = 0.1701 0.3968-0.5102 ( 11810 PWs)   bands (ev):

   -50.7337 -50.7334 -50.6882 -50.6879 -50.6215 -50.6212 -50.6035 -50.6032
   -50.5554 -50.5551 -50.5529 -50.5525 -50.5093 -50.5089 -50.4785 -50.4782
   -22.4524 -22.4524 -22.4256 -22.4255 -22.4097 -22.4094 -22.3992 -22.3990
   -22.3915 -22.3915 -22.3591 -22.3590 -22.1811 -22.1811 -22.1429 -22.1426
   -22.0879 -22.0878 -22.0637 -22.0634 -22.0493 -22.0492 -21.9988 -21.9988
   -21.8984 -21.8983 -21.8469 -21.8468 -21.8206 -21.8204 -21.7805 -21.7804
   -21.6965 -21.6962 -21.6316 -21.6315 -21.6286 -21.6282 -21.6248 -21.6245
   -21.6155 -21.6153 -21.5807 -21.5806 -21.5131 -21.5131 -21.5101 -21.5101
    15.1363  15.1368  15.8876  15.8880  17.0638  17.0641  17.3330  17.3333
    17.3828  17.3831  17.4720  17.4724  17.6718  17.6719  17.7187  17.7190
    17.7345  17.7348  18.4289  18.4293  18.4798  18.4801  18.4985  18.4985
    18.5110  18.5110  18.6746  18.6748  19.0234  19.0235  19.1310  19.1310
    19.2671  19.2672  19.3157  19.3157  19.3463  19.3464  19.4019  19.4020
    19.5904  19.5904  19.6078  19.6079  19.8197  19.8197  20.5260  20.5260
    21.7227  21.7228  21.8354  21.8355  21.9408  21.9410  21.9951  21.9953
    22.0164  22.0165  22.0207  22.0209  22.1337  22.1339  22.3114  22.3117
    22.3340  22.3343  22.4928  22.4932  22.5439  22.5441

          k = 0.1701-0.5102-0.5102 ( 11824 PWs)   bands (ev):

   -50.7127 -50.7126 -50.7124 -50.7123 -50.6130 -50.6129 -50.6127 -50.6126
   -50.5537 -50.5537 -50.5534 -50.5533 -50.4923 -50.4922 -50.4919 -50.4918
   -22.4266 -22.4266 -22.4265 -22.4265 -22.4117 -22.4116 -22.4115 -22.4114
   -22.3775 -22.3774 -22.3773 -22.3772 -22.1082 -22.1081 -22.1079 -22.1078
   -22.0905 -22.0905 -22.0905 -22.0905 -22.0813 -22.0813 -22.0812 -22.0812
   -21.8385 -21.8384 -21.8384 -21.8384 -21.8341 -21.8341 -21.8341 -21.8341
   -21.6588 -21.6587 -21.6585 -21.6584 -21.6195 -21.6195 -21.6194 -21.6194
   -21.6018 -21.6017 -21.6016 -21.6016 -21.5064 -21.5064 -21.5064 -21.5064
    15.5041  15.5042  15.5045  15.5046  17.3285  17.3285  17.3288  17.3288
    17.3773  17.3774  17.3776  17.3777  17.8070  17.8070  17.8072  17.8072
    18.0759  18.0760  18.0762  18.0763  18.4142  18.4143  18.4144  18.4145
    18.5792  18.5792  18.5793  18.5794  19.0963  19.0963  19.0964  19.0964
    19.1444  19.1444  19.1445  19.1445  19.3192  19.3193  19.3193  19.3193
    19.5694  19.5694  19.5695  19.5695  20.1353  20.1353  20.1353  20.1353
    21.8985  21.8985  21.8986  21.8986  22.0243  22.0244  22.0245  22.0246
    22.1767  22.1767  22.1769  22.1770  22.1827  22.1828  22.1829  22.1829
    22.2235  22.2235  22.2235  22.2235  22.4696  22.4698

          k = 0.2834 0.2834 0.2834 ( 11806 PWs)   bands (ev):

   -50.7831 -50.6794 -50.6794 -50.6793 -50.6226 -50.6226 -50.6226 -50.5885
   -50.5539 -50.5485 -50.5485 -50.5485 -50.5209 -50.5209 -50.5208 -50.4439
   -22.5088 -22.5087 -22.5087 -22.4162 -22.4162 -22.4162 -22.3811 -22.3737
   -22.3737 -22.3736 -22.2842 -22.2842 -22.2453 -22.2453 -22.1439 -22.1439
   -22.1439 -22.0748 -22.0748 -22.0748 -22.0130 -22.0000 -22.0000 -22.0000
   -21.8080 -21.7941 -21.7941 -21.7940 -21.7939 -21.7939 -21.7899 -21.7898
   -21.7898 -21.7201 -21.7201 -21.7201 -21.6527 -21.6181 -21.6181 -21.6180
   -21.5711 -21.5711 -21.5710 -21.5423 -21.5422 -21.5422 -21.5249 -21.5249
    14.2332  16.0843  16.0844  16.0844  16.6899  16.6900  16.6900  17.0601
    17.0601  17.1736  17.1736  17.1736  17.7558  17.7558  17.7558  17.8624
    17.9930  17.9930  17.9930  18.3833  18.3833  18.4604  18.5797  18.5797
    18.5797  18.8323  18.8323  18.8323  18.9032  18.9032  19.2183  19.2183
    19.2183  19.4691  19.4691  19.4692  19.6347  19.6347  19.6347  19.6631
    19.6631  19.9411  19.9411  19.9411  19.9881  19.9881  19.9881  21.2025
    21.3809  21.5010  21.5011  21.5011  21.8051  21.8051  21.8051  22.0036
    22.0036  22.0036  22.2151  22.2151  22.2941  22.2941  22.2941  22.4541
    22.4541  22.4541  22.6449  22.6450  22.6455  22.6535

          k = 0.2834 0.2834 0.3968 ( 11794 PWs)   bands (ev):

   -50.7637 -50.7107 -50.6684 -50.6683 -50.6392 -50.6392 -50.6157 -50.5981
   -50.5511 -50.5487 -50.5387 -50.5387 -50.5250 -50.5250 -50.4957 -50.4570
   -22.4795 -22.4795 -22.4610 -22.4070 -22.4040 -22.4040 -22.3895 -22.3705
   -22.3525 -22.3525 -22.3271 -22.3229 -22.2462 -22.2098 -22.2098 -22.1890
   -22.1396 -22.0816 -22.0815 -22.0614 -22.0600 -22.0384 -22.0384 -21.9570
   -21.8865 -21.8446 -21.8069 -21.8038 -21.7662 -21.7662 -21.7384 -21.7384
   -21.7300 -21.7300 -21.7151 -21.6584 -21.6516 -21.6515 -21.6311 -21.6139
   -21.5871 -21.5597 -21.5580 -21.5580 -21.5457 -21.5429 -21.5429 -21.5221
    14.6007  15.5624  16.2939  16.2939  16.6164  16.6164  17.0499  17.2317
    17.2924  17.3611  17.3611  17.4497  17.7088  17.7117  17.7174  17.7174
    17.8559  17.9661  18.2316  18.2316  18.4029  18.5143  18.6690  18.6694
    18.7003  18.7003  18.7207  18.9358  18.9358  19.0431  19.0431  19.1049
    19.2832  19.2832  19.3472  19.3472  19.3582  19.4123  19.4893  19.5074
    19.5195  19.5786  19.6023  19.6023  19.6652  19.6652  20.1782  20.9120
    21.5043  21.6810  21.7382  21.7382  21.8751  21.8751  21.9319  21.9319
    22.0627  22.1386  22.1599  22.1810  22.1810  22.2030  22.3549  22.3643
    22.5573  22.5605  22.6510  22.6510  22.6531  22.6586

          k = 0.2834 0.2834-0.5102 ( 11804 PWs)   bands (ev):

   -50.7394 -50.7391 -50.6549 -50.6549 -50.6546 -50.6545 -50.6075 -50.6072
   -50.5496 -50.5493 -50.5311 -50.5311 -50.5308 -50.5307 -50.4745 -50.4742
   -22.4422 -22.4422 -22.4421 -22.4421 -22.4001 -22.3997 -22.3979 -22.3977
   -22.3528 -22.3527 -22.2819 -22.2819 -22.2817 -22.2817 -22.1977 -22.1973
   -22.1263 -22.1262 -22.0677 -22.0676 -22.0674 -22.0674 -21.9725 -21.9725
   -21.9008 -21.9006 -21.8094 -21.8092 -21.7451 -21.7451 -21.7449 -21.7449
   -21.6918 -21.6918 -21.6916 -21.6916 -21.6456 -21.6453 -21.6181 -21.6179
   -21.6047 -21.6043 -21.5483 -21.5483 -21.5483 -21.5482 -21.5291 -21.5291
    15.0544  15.0549  16.4848  16.4848  16.4851  16.4851  17.4508  17.4512
    17.4880  17.4884  17.5323  17.5326  17.5526  17.5526  17.5528  17.5528
    17.7182  17.7185  18.4506  18.4508  18.5791  18.5792  18.6236  18.6236
    18.6240  18.6240  18.8635  18.8635  18.8637  18.8637  19.0912  19.0913
    19.3070  19.3072  19.3820  19.3821  19.3821  19.3821  19.3885  19.3885
    19.3886  19.3886  19.4307  19.4308  19.4764  19.4766  20.4966  20.4966
    21.8278  21.8278  21.8778  21.8780  21.8972  21.8973  21.8973  21.8973
    21.9790  21.9790  21.9792  21.9792  22.3961  22.3964  22.4562  22.4565
    22.5196  22.5199  22.5276  22.5278  22.6582  22.6585

          k = 0.2834 0.3968 0.3968 ( 11789 PWs)   bands (ev):

   -50.7458 -50.6971 -50.6971 -50.6605 -50.6581 -50.6311 -50.6310 -50.6098
   -50.5461 -50.5402 -50.5401 -50.5285 -50.5241 -50.5027 -50.5027 -50.4685
   -22.4567 -22.4364 -22.4363 -22.4022 -22.3927 -22.3927 -22.3794 -22.3589
   -22.3588 -22.3374 -22.3343 -22.2831 -22.2546 -22.2415 -22.2057 -22.1454
   -22.1453 -22.1305 -22.1305 -22.1151 -22.1016 -22.1016 -22.0872 -21.9632
   -21.8993 -21.7891 -21.7890 -21.7768 -21.7714 -21.7714 -21.7373 -21.7248
   -21.6966 -21.6916 -21.6863 -21.6698 -21.6698 -21.6338 -21.6338 -21.6232
   -21.5827 -21.5827 -21.5780 -21.5659 -21.5414 -21.5413 -21.5380 -21.5290
    14.9498  15.8359  15.8359  16.4032  16.5539  16.9734  16.9734  17.3878
    17.5031  17.5215  17.6435  17.6435  17.6786  17.6786  17.7977  17.9491
    17.9729  18.0350  18.0350  18.1473  18.4896  18.6209  18.6209  18.6241
    18.6244  18.7013  18.7013  18.7987  18.8318  18.8998  19.0063  19.1426
    19.1426  19.1622  19.1842  19.1940  19.1940  19.2240  19.2240  19.3154
    19.3154  19.3665  19.4027  19.4059  19.4615  19.7808  19.7808  20.4491
    21.8437  21.8789  21.8790  21.9083  21.9583  22.0538  22.1166  22.1396
    22.1396  22.1699  22.1699  22.1849  22.2664  22.2664  22.3354  22.4870
    22.5271  22.5271  22.5274  22.5546  22.6355  22.6473

          k = 0.2834 0.3968-0.5102 ( 11812 PWs)   bands (ev):

   -50.7235 -50.7231 -50.6802 -50.6799 -50.6456 -50.6453 -50.6212 -50.6209
   -50.5427 -50.5424 -50.5337 -50.5333 -50.5123 -50.5120 -50.4839 -50.4836
   -22.4249 -22.4248 -22.4137 -22.4135 -22.3840 -22.3837 -22.3683 -22.3682
   -22.3682 -22.3681 -22.3063 -22.3062 -22.2072 -22.2072 -22.2009 -22.2006
   -22.1628 -22.1627 -22.1253 -22.1251 -22.1224 -22.1223 -22.0466 -22.0466
   -21.8432 -21.8431 -21.7737 -21.7736 -21.7501 -21.7500 -21.7377 -21.7376
   -21.6923 -21.6921 -21.6614 -21.6613 -21.6331 -21.6328 -21.6240 -21.6239
   -21.6182 -21.6179 -21.5753 -21.5752 -21.5382 -21.5382 -21.5321 -21.5321
    15.3735  15.3740  16.1325  16.1329  16.8032  16.8036  17.3952  17.3956
    17.5431  17.5434  17.6117  17.6119  17.7923  17.7927  17.8485  17.8486
    17.9016  17.9019  18.4240  18.4244  18.4465  18.4469  18.5458  18.5460
    18.5513  18.5513  18.7585  18.7587  18.8725  18.8726  18.9472  18.9473
    19.0878  19.0880  19.0951  19.0953  19.2066  19.2067  19.2370  19.2370
    19.3060  19.3061  19.3688  19.3689  19.4417  19.4417  20.0543  20.0543
    22.0213  22.0215  22.0445  22.0445  22.0693  22.0695  22.0973  22.0975
    22.1377  22.1378  22.2058  22.2058  22.3752  22.3755  22.3811  22.3814
    22.4586  22.4589  22.4648  22.4649  22.5572  22.5575

          k = 0.2834-0.5102-0.5102 ( 11800 PWs)   bands (ev):

   -50.7035 -50.7034 -50.7031 -50.7031 -50.6342 -50.6341 -50.6338 -50.6338
   -50.5375 -50.5374 -50.5371 -50.5371 -50.4966 -50.4965 -50.4962 -50.4961
   -22.3972 -22.3971 -22.3971 -22.3971 -22.3891 -22.3890 -22.3888 -22.3888
   -22.3364 -22.3364 -22.3363 -22.3362 -22.1724 -22.1724 -22.1722 -22.1721
   -22.1605 -22.1605 -22.1605 -22.1605 -22.1270 -22.1270 -22.1270 -22.1269
   -21.7884 -21.7884 -21.7883 -21.7883 -21.7571 -21.7571 -21.7571 -21.7571
   -21.6489 -21.6488 -21.6486 -21.6485 -21.6384 -21.6384 -21.6383 -21.6382
   -21.6061 -21.6061 -21.6060 -21.6059 -21.5335 -21.5335 -21.5335 -21.5335
    15.7476  15.7477  15.7480  15.7481  17.1417  17.1418  17.1421  17.1422
    17.5993  17.5994  17.5997  17.5997  18.0506  18.0507  18.0508  18.0508
    18.1178  18.1179  18.1182  18.1183  18.3617  18.3618  18.3620  18.3620
    18.6581  18.6581  18.6582  18.6582  18.8817  18.8817  18.8818  18.8818
    19.0681  19.0682  19.0682  19.0682  19.0849  19.0849  19.0850  19.0850
    19.3070  19.3070  19.3071  19.3071  19.6842  19.6842  19.6842  19.6842
    22.1095  22.1096  22.1098  22.1098  22.2397  22.2397  22.2400  22.2400
    22.2559  22.2559  22.2560  22.2560  22.3080  22.3080  22.3081  22.3081
    22.4498  22.4499  22.4502  22.4502  22.6005  22.6005

          k = 0.3968 0.3968 0.3968 ( 11779 PWs)   bands (ev):

   -50.7293 -50.6845 -50.6845 -50.6844 -50.6506 -50.6506 -50.6506 -50.6245
   -50.5381 -50.5273 -50.5273 -50.5273 -50.5087 -50.5087 -50.5086 -50.4785
   -22.4112 -22.4111 -22.4111 -22.3807 -22.3807 -22.3807 -22.3555 -22.3037
   -22.3037 -22.3036 -22.2971 -22.2971 -22.2835 -22.2835 -22.1841 -22.1841
   -22.1841 -22.1835 -22.1835 -22.1835 -22.1555 -22.1555 -22.1554 -22.0321
   -21.8430 -21.7404 -21.7404 -21.7404 -21.7213 -21.7213 -21.7213 -21.7017
   -21.7017 -21.6716 -21.6715 -21.6715 -21.6620 -21.6620 -21.6620 -21.6273
   -21.5808 -21.5807 -21.5807 -21.5660 -21.5660 -21.5593 -21.5593 -21.5593
    15.2919  16.1383  16.1384  16.1384  16.7642  16.7643  16.7643  17.6011
    17.6440  17.6440  17.8073  17.8073  17.8073  17.9675  17.9675  17.9675
    18.0423  18.0423  18.0423  18.1293  18.5469  18.5469  18.6947  18.6947
    18.7140  18.7140  18.7140  18.8018  18.8018  18.8018  18.8521  18.8521
    18.8521  19.0251  19.0251  19.0251  19.0555  19.0555  19.0555  19.0952
    19.0952  19.0952  19.2649  19.2649  19.3934  19.3934  19.3934  19.9862
    22.0273  22.0273  22.0273  22.2180  22.2444  22.2444  22.2444  22.2527
    22.2527  22.2763  22.2763  22.2764  22.3232  22.3232  22.3232  22.5161
    22.5161  22.5501  22.5501  22.5504  22.5738  22.5739

          k = 0.3968 0.3968-0.5102 ( 11776 PWs)   bands (ev):

   -50.7087 -50.7084 -50.6689 -50.6689 -50.6685 -50.6685 -50.6385 -50.6382
   -50.5321 -50.5317 -50.5170 -50.5170 -50.5167 -50.5166 -50.4921 -50.4918
   -22.3872 -22.3872 -22.3871 -22.3871 -22.3529 -22.3526 -22.3446 -22.3445
   -22.3289 -22.3287 -22.2456 -22.2452 -22.2434 -22.2434 -22.2432 -22.2432
   -22.2227 -22.2226 -22.1882 -22.1881 -22.1880 -22.1880 -22.1076 -22.1075
   -21.7895 -21.7894 -21.7138 -21.7137 -21.6979 -21.6978 -21.6977 -21.6976
   -21.6871 -21.6871 -21.6870 -21.6869 -21.6404 -21.6402 -21.6359 -21.6356
   -21.6141 -21.6138 -21.5739 -21.5739 -21.5738 -21.5738 -21.5593 -21.5593
    15.7019  15.7023  16.4694  16.4694  16.4698  16.4698  17.1915  17.1919
    17.7958  17.7961  17.8997  17.9000  17.9304  17.9304  17.9306  17.9306
    18.1196  18.1199  18.3970  18.3970  18.3974  18.3974  18.5916  18.5916
    18.6254  18.6256  18.7441  18.7443  18.7557  18.7560  18.8526  18.8526
    18.8528  18.8528  19.0152  19.0152  19.0154  19.0154  19.0740  19.0740
    19.0740  19.0741  19.1333  19.1335  19.1482  19.1484  19.6056  19.6056
    22.1469  22.1472  22.1806  22.1806  22.1809  22.1809  22.3315  22.3315
    22.3315  22.3315  22.3912  22.3915  22.4121  22.4124  22.4884  22.4886
    22.5376  22.5378  22.5398  22.5398  22.5401  22.5402

          k = 0.3968-0.5102-0.5102 ( 11776 PWs)   bands (ev):

   -50.6903 -50.6902 -50.6899 -50.6898 -50.6547 -50.6547 -50.6544 -50.6543
   -50.5236 -50.5235 -50.5232 -50.5231 -50.5031 -50.5031 -50.5028 -50.5027
   -22.3542 -22.3542 -22.3542 -22.3542 -22.3507 -22.3506 -22.3504 -22.3504
   -22.2856 -22.2856 -22.2854 -22.2854 -22.2386 -22.2385 -22.2383 -22.2382
   -22.2340 -22.2340 -22.2340 -22.2340 -22.1753 -22.1753 -22.1752 -22.1752
   -21.7407 -21.7407 -21.7406 -21.7406 -21.6867 -21.6867 -21.6866 -21.6866
   -21.6649 -21.6649 -21.6648 -21.6648 -21.6370 -21.6370 -21.6368 -21.6367
   -21.6144 -21.6143 -21.6142 -21.6141 -21.5734 -21.5734 -21.5734 -21.5734
    16.0844  16.0845  16.0848  16.0849  16.8506  16.8507  16.8510  16.8511
    17.9042  17.9043  17.9045  17.9046  18.1742  18.1743  18.1746  18.1747
    18.3025  18.3026  18.3028  18.3029  18.3101  18.3101  18.3103  18.3104
    18.7531  18.7531  18.7532  18.7532  18.7905  18.7905  18.7906  18.7907
    18.7938  18.7938  18.7938  18.7939  18.9688  18.9688  18.9688  18.9689
    19.0499  19.0499  19.0500  19.0500  19.2383  19.2383  19.2383  19.2383
    22.2273  22.2273  22.2275  22.2276  22.3073  22.3074  22.3076  22.3077
    22.4166  22.4166  22.4169  22.4170  22.5122  22.5122  22.5123  22.5123
    22.5187  22.5187  22.5190  22.5190  22.5634  22.5634

          k =-0.5102-0.5102-0.5102 ( 11752 PWs)   bands (ev):

   -50.6738 -50.6737 -50.6737 -50.6736 -50.6734 -50.6733 -50.6733 -50.6732
   -50.5122 -50.5121 -50.5121 -50.5120 -50.5118 -50.5118 -50.5118 -50.5116
   -22.2996 -22.2996 -22.2996 -22.2996 -22.2995 -22.2995 -22.2995 -22.2994
   -22.2993 -22.2993 -22.2993 -22.2992 -22.2992 -22.2992 -22.2991 -22.2991
   -22.2300 -22.2300 -22.2300 -22.2299 -22.2298 -22.2297 -22.2297 -22.2297
   -21.6993 -21.6993 -21.6993 -21.6992 -21.6991 -21.6991 -21.6991 -21.6991
   -21.6249 -21.6249 -21.6249 -21.6249 -21.6248 -21.6248 -21.6248 -21.6247
   -21.6247 -21.6247 -21.6246 -21.6245 -21.6245 -21.6245 -21.6245 -21.6245
    16.4736  16.4737  16.4737  16.4738  16.4740  16.4741  16.4741  16.4742
    18.2382  18.2382  18.2383  18.2383  18.2383  18.2383  18.2383  18.2383
    18.2385  18.2385  18.2386  18.2386  18.2386  18.2386  18.2387  18.2387
    18.8528  18.8528  18.8528  18.8528  18.8529  18.8529  18.8529  18.8529
    18.8596  18.8596  18.8596  18.8596  18.8596  18.8596  18.8596  18.8596
    18.8598  18.8598  18.8598  18.8598  18.8599  18.8599  18.8599  18.8599
    22.3684  22.3684  22.3684  22.3684  22.3685  22.3685  22.3685  22.3685
    22.3687  22.3687  22.3687  22.3687  22.3688  22.3688  22.3688  22.3688
    22.7908  22.7908  22.7909  22.7909  22.7910  22.7910

 ------ SPIN DOWN ----------


          k = 0.0567 0.0567 0.0567 ( 11786 PWs)   bands (ev):

   -50.8484 -50.6239 -50.6239 -50.6237 -50.5844 -50.5844 -50.5843 -50.5831
   -50.5831 -50.5830 -50.5793 -50.5793 -50.5791 -50.5603 -50.5586 -50.3987
   -22.6191 -22.6190 -22.6190 -22.6136 -22.6136 -22.6135 -22.2601 -22.2601
   -22.2475 -22.1478 -22.1420 -22.1420 -22.1420 -22.0997 -22.0997 -22.0760
   -22.0760 -22.0760 -22.0014 -22.0014 -21.9528 -21.8963 -21.8962 -21.8962
   -21.8760 -21.8760 -21.8760 -21.8444 -21.8444 -21.8444 -21.8382 -21.8382
   -21.8382 -21.8285 -21.8284 -21.8284 -21.8095 -21.8095 -21.8094 -21.5039
   -21.5039 -21.5038 -21.5008 -21.4983 -21.4982 -21.4982 -21.4871 -21.4871
    13.0129  16.3131  16.3131  16.3131  16.3330  16.3330  16.3330  16.3616
    16.3616  16.7761  16.7761  16.7761  17.1847  17.1847  17.1847  18.3902
    18.4006  18.4006  18.4006  18.4181  18.4181  18.4181  18.5077  18.5077
    18.7028  18.7028  18.7752  18.7906  18.7907  18.7907  19.2900  19.2901
    19.2901  20.0867  20.0867  20.1475  20.4670  20.4670  20.4670  20.5934
    20.5935  20.5935  20.7061  20.7061  20.7061  20.8258  20.8258  20.8258
    21.7890  21.7890  21.7890  21.9221  21.9221  21.9221  22.1090  22.1090
    22.1090  22.1931  22.1931  22.1931  22.3391  22.3391  22.3391  22.3414
    22.3414  22.4141  22.4142  22.4142  22.7392  22.7393

          k = 0.0567 0.0567 0.1701 ( 11795 PWs)   bands (ev):

   -50.8405 -50.6639 -50.6219 -50.6218 -50.5878 -50.5877 -50.5836 -50.5835
   -50.5817 -50.5780 -50.5774 -50.5773 -50.5617 -50.5598 -50.5467 -50.4044
   -22.6029 -22.6029 -22.6017 -22.5967 -22.5866 -22.5866 -22.2679 -22.2476
   -22.2285 -22.2197 -22.1990 -22.1989 -22.1969 -22.1940 -22.1356 -22.1356
   -22.0671 -22.0130 -21.9983 -21.9635 -21.9421 -21.9053 -21.8959 -21.8959
   -21.8783 -21.8581 -21.8517 -21.8517 -21.8508 -21.8338 -21.8338 -21.8294
   -21.8294 -21.8250 -21.8249 -21.7625 -21.7608 -21.7607 -21.7449 -21.5314
   -21.5214 -21.5213 -21.5194 -21.5144 -21.5038 -21.5038 -21.4984 -21.4925
    13.1571  16.2241  16.3532  16.3532  16.4138  16.4138  16.4328  16.4370
    16.4514  16.4516  16.8114  16.8114  17.2112  17.2112  17.4030  18.2461
    18.3058  18.3756  18.3808  18.3967  18.4200  18.4633  18.4633  18.5155
    18.5155  18.5600  18.7561  18.7562  18.9602  18.9647  19.1927  19.1928
    19.7635  20.0514  20.0781  20.1942  20.1942  20.2257  20.2820  20.4184
    20.4185  20.4572  20.8074  20.8074  20.9595  20.9595  21.0011  21.1294
    21.3101  21.3102  21.4791  21.6296  21.6296  21.6395  21.7878  22.0874
    22.0874  22.2359  22.2469  22.2469  22.3560  22.3560  22.3654  22.3835
    22.3976  22.3999  22.3999  22.4298  22.7435  22.7751

          k = 0.0567 0.0567 0.2834 ( 11763 PWs)   bands (ev):

   -50.8249 -50.7031 -50.6181 -50.6180 -50.5936 -50.5936 -50.5822 -50.5821
   -50.5792 -50.5768 -50.5767 -50.5756 -50.5643 -50.5621 -50.5118 -50.4155
   -22.5672 -22.5662 -22.5662 -22.5633 -22.5396 -22.5395 -22.3011 -22.2901
   -22.2788 -22.2788 -22.2728 -22.2320 -22.2232 -22.2200 -22.2199 -22.2010
   -22.0343 -22.0283 -22.0058 -21.9998 -21.9117 -21.8916 -21.8916 -21.8834
   -21.8740 -21.8599 -21.8599 -21.8308 -21.8308 -21.8291 -21.8291 -21.8139
   -21.7974 -21.7601 -21.7600 -21.7002 -21.6995 -21.6994 -21.6840 -21.5822
   -21.5498 -21.5498 -21.5496 -21.5469 -21.5211 -21.5210 -21.5201 -21.5109
    13.4396  15.5969  16.4458  16.4458  16.5503  16.5503  16.5865  16.6203
    16.6628  16.6785  16.8409  16.8409  17.2047  17.2047  17.4287  17.8539
    18.0616  18.1418  18.2999  18.3468  18.3602  18.3832  18.6035  18.6035
    18.6897  18.6897  18.7961  18.7962  19.1521  19.1521  19.2747  19.2946
    19.8268  19.8269  20.0261  20.0283  20.0283  20.0488  20.0652  20.1498
    20.3409  20.5579  20.6519  20.6519  20.9116  20.9117  21.1345  21.1345
    21.1704  21.1841  21.1841  21.1879  21.2239  21.3533  21.4952  22.0298
    22.1030  22.1031  22.2406  22.2406  22.4152  22.4360  22.4649  22.4833
    22.4833  22.7180  22.7199  22.7416  22.7514  22.7841

          k = 0.0567 0.0567 0.3968 ( 11779 PWs)   bands (ev):

   -50.8023 -50.7402 -50.6129 -50.6128 -50.6001 -50.6000 -50.5804 -50.5803
   -50.5773 -50.5772 -50.5757 -50.5725 -50.5678 -50.5653 -50.4807 -50.4321
   -22.5170 -22.5150 -22.5117 -22.5117 -22.4753 -22.4753 -22.3808 -22.3763
   -22.3630 -22.3629 -22.3101 -22.3101 -22.2741 -22.2566 -22.1877 -22.1643
   -22.0886 -22.0654 -21.9971 -21.9731 -21.9177 -21.9051 -21.8852 -21.8852
   -21.8688 -21.8688 -21.8291 -21.8291 -21.8285 -21.8285 -21.8211 -21.7298
   -21.7207 -21.6961 -21.6960 -21.6507 -21.6432 -21.6409 -21.6408 -21.6285
   -21.5946 -21.5943 -21.5891 -21.5890 -21.5521 -21.5501 -21.5500 -21.5407
    13.8482  14.9596  16.5745  16.5745  16.7299  16.7299  16.8076  16.8111
    16.8111  16.8445  16.9839  16.9944  17.1052  17.1052  17.3034  17.4476
    17.7485  17.7696  18.2715  18.3000  18.3084  18.3202  18.8154  18.8154
    18.9334  18.9334  19.0137  19.0137  19.2569  19.2569  19.4999  19.4999
    19.6405  19.6405  19.6706  19.6904  20.0146  20.0194  20.0194  20.0555
    20.0666  20.0716  20.2440  20.2441  20.4958  20.6492  20.6586  20.9230
    20.9444  21.4393  21.4393  21.4788  21.4788  21.7335  21.7579  21.9123
    21.9144  21.9144  22.0526  22.0526  22.4832  22.4970  22.5803  22.6438
    22.6481  22.6544  22.7619  22.7854  22.7930  22.8041

          k = 0.0567 0.0567-0.5102 ( 11792 PWs)   bands (ev):

   -50.7739 -50.7735 -50.6069 -50.6069 -50.6066 -50.6064 -50.5788 -50.5788
   -50.5785 -50.5783 -50.5721 -50.5715 -50.5690 -50.5686 -50.4542 -50.4538
   -22.4535 -22.4531 -22.4529 -22.4525 -22.4426 -22.4426 -22.4426 -22.4425
   -22.3973 -22.3973 -22.3972 -22.3972 -22.2697 -22.2694 -22.1424 -22.1420
   -22.1189 -22.1186 -21.9571 -21.9567 -21.9399 -21.9395 -21.8776 -21.8776
   -21.8772 -21.8772 -21.8287 -21.8287 -21.8282 -21.8282 -21.7323 -21.7320
   -21.6564 -21.6560 -21.6521 -21.6517 -21.6384 -21.6383 -21.6383 -21.6382
   -21.5937 -21.5932 -21.5904 -21.5904 -21.5903 -21.5903 -21.5806 -21.5802
    14.3638  14.3643  16.7102  16.7102  16.7105  16.7105  16.9285  16.9285
    16.9287  16.9287  17.0884  17.0888  17.0962  17.0967  17.3660  17.3666
    17.3670  17.3673  18.2786  18.2789  18.2926  18.2930  19.0852  19.0852
    19.0853  19.0853  19.2094  19.2094  19.2096  19.2096  19.4987  19.4988
    19.4990  19.4991  19.7047  19.7047  19.7050  19.7050  20.0246  20.0249
    20.0570  20.0574  20.1351  20.1352  20.1462  20.1463  20.6906  20.6909
    21.3626  21.3629  21.6893  21.6893  21.6893  21.6893  21.7938  21.7938
    21.7938  21.7938  22.2001  22.2004  22.3639  22.3642  22.5621  22.5626
    22.5704  22.5708  22.7244  22.7248  22.7735  22.7740

          k = 0.0567 0.1701 0.1701 ( 11754 PWs)   bands (ev):

   -50.8327 -50.6608 -50.6607 -50.6199 -50.5992 -50.5863 -50.5863 -50.5827
   -50.5763 -50.5761 -50.5686 -50.5636 -50.5605 -50.5471 -50.5470 -50.4097
   -22.5978 -22.5862 -22.5861 -22.5714 -22.5713 -22.5492 -22.2820 -22.2650
   -22.2479 -22.2478 -22.2406 -22.2354 -22.2255 -22.1990 -22.1756 -22.0875
   -22.0598 -22.0597 -21.9912 -21.9621 -21.9620 -21.9085 -21.8899 -21.8898
   -21.8706 -21.8672 -21.8672 -21.8659 -21.8460 -21.8459 -21.8388 -21.8223
   -21.8175 -21.7818 -21.7648 -21.7647 -21.7231 -21.6990 -21.6990 -21.5723
   -21.5497 -21.5333 -21.5333 -21.5188 -21.5188 -21.5075 -21.4973 -21.4877
    13.2989  16.2796  16.2796  16.3418  16.4737  16.4738  16.5153  16.5263
    16.5307  16.5307  16.5365  16.8597  17.2557  17.4347  17.4347  18.1138
    18.2587  18.3133  18.3133  18.4398  18.4398  18.4865  18.4866  18.4872
    18.4905  18.6466  18.6511  18.6941  18.9591  18.9834  19.0760  19.5709
    19.5709  19.9703  20.0248  20.0248  20.0555  20.0887  20.2630  20.3567
    20.6953  20.6954  20.7573  20.7573  20.8165  20.9043  21.0421  21.1328
    21.1329  21.1845  21.1845  21.3556  21.3556  21.4962  21.7780  21.7781
    22.0939  22.2187  22.2768  22.2768  22.3185  22.3526  22.3584  22.3584
    22.3757  22.5865  22.6998  22.7085  22.7085  22.7540

          k = 0.0567 0.1701 0.2834 ( 11768 PWs)   bands (ev):

   -50.8175 -50.6989 -50.6547 -50.6162 -50.6114 -50.5920 -50.5835 -50.5813
   -50.5756 -50.5740 -50.5669 -50.5623 -50.5615 -50.5480 -50.5134 -50.4205
   -22.5721 -22.5533 -22.5515 -22.5417 -22.5274 -22.4927 -22.3227 -22.3219
   -22.2968 -22.2965 -22.2958 -22.2819 -22.2415 -22.2173 -22.1624 -22.1467
   -22.0632 -22.0257 -21.9813 -21.9742 -21.9540 -21.9535 -21.9127 -21.8964
   -21.8900 -21.8781 -21.8690 -21.8440 -21.8436 -21.8230 -21.8032 -21.7922
   -21.7684 -21.7586 -21.7284 -21.7038 -21.6751 -21.6428 -21.6419 -21.6324
   -21.5884 -21.5575 -21.5564 -21.5487 -21.5326 -21.5285 -21.5027 -21.4953
    13.5762  15.6759  16.3625  16.3685  16.5662  16.6591  16.6656  16.6866
    16.7050  16.7063  16.7539  16.9130  17.2806  17.4183  17.4714  17.8930
    17.9730  18.0941  18.3925  18.3994  18.4208  18.4378  18.5204  18.5690
    18.5951  18.6435  18.6825  18.8530  18.9885  19.1590  19.2180  19.4405
    19.6929  19.8074  19.8345  19.8940  19.9173  19.9780  20.0285  20.2541
    20.2884  20.5231  20.5366  20.7303  20.8058  20.8741  20.9073  20.9147
    21.0253  21.1388  21.1694  21.2398  21.2771  21.4796  21.4833  21.9176
    22.0622  22.1368  22.1755  22.2437  22.2896  22.3360  22.3916  22.4138
    22.6283  22.6931  22.6965  22.7309  22.7830  22.7891

          k = 0.0567 0.1701 0.3968 ( 11792 PWs)   bands (ev):

   -50.7955 -50.7350 -50.6461 -50.6238 -50.6110 -50.5984 -50.5798 -50.5795
   -50.5762 -50.5713 -50.5708 -50.5648 -50.5562 -50.5496 -50.4833 -50.4365
   -22.5280 -22.5054 -22.5007 -22.4990 -22.4677 -22.4199 -22.3984 -22.3853
   -22.3734 -22.3666 -22.3184 -22.3066 -22.3017 -22.2413 -22.1825 -22.1191
   -22.0850 -22.0239 -22.0139 -21.9608 -21.9419 -21.9352 -21.9091 -21.9090
   -21.8990 -21.8897 -21.8834 -21.8450 -21.8434 -21.7912 -21.7739 -21.7554
   -21.7173 -21.7073 -21.6962 -21.6759 -21.6483 -21.6363 -21.6286 -21.5932
   -21.5929 -21.5917 -21.5912 -21.5883 -21.5596 -21.5557 -21.5206 -21.5160
    13.9766  15.0596  16.4124  16.4276  16.6930  16.8434  16.8664  16.8837
    16.9080  16.9360  17.0268  17.0608  17.2058  17.2933  17.3499  17.5157
    17.7438  17.7915  18.3201  18.3540  18.3861  18.3884  18.7044  18.7550
    18.7721  18.8271  18.8451  19.0078  19.1246  19.2929  19.5059  19.5628
    19.5644  19.6027  19.6806  19.6883  19.8304  19.8406  19.8728  19.9327
    19.9656  19.9984  20.1294  20.3006  20.3949  20.4102  20.7193  21.1513
    21.2012  21.4051  21.4082  21.4855  21.4901  21.5158  21.7354  21.8059
    21.8523  21.9522  22.0539  22.1153  22.2867  22.4185  22.4541  22.5317
    22.5829  22.6091  22.6187  22.7113  22.7784  22.7820

          k = 0.0567 0.1701-0.5102 ( 11796 PWs)   bands (ev):

   -50.7678 -50.7674 -50.6358 -50.6354 -50.6052 -50.6047 -50.5779 -50.5775
   -50.5756 -50.5752 -50.5681 -50.5677 -50.5525 -50.5520 -50.4577 -50.4573
   -22.4688 -22.4687 -22.4460 -22.4456 -22.4448 -22.4443 -22.4374 -22.4373
   -22.3962 -22.3961 -22.3344 -22.3343 -22.3092 -22.3091 -22.1381 -22.1376
   -22.0695 -22.0693 -21.9796 -21.9793 -21.9316 -21.9313 -21.9268 -21.9264
   -21.9006 -21.9003 -21.8444 -21.8441 -21.7927 -21.7926 -21.7816 -21.7812
   -21.6924 -21.6924 -21.6500 -21.6496 -21.6402 -21.6399 -21.6283 -21.6283
   -21.6001 -21.5996 -21.5881 -21.5881 -21.5504 -21.5503 -21.5488 -21.5486
    14.4801  14.4806  16.4423  16.4425  16.8224  16.8226  17.0389  17.0391
    17.0972  17.0974  17.1200  17.1204  17.2013  17.2017  17.4060  17.4064
    17.4123  17.4127  18.3199  18.3202  18.3564  18.3567  18.9515  18.9517
    18.9826  18.9829  19.0127  19.0128  19.1267  19.1271  19.4966  19.4967
    19.5868  19.5870  19.6836  19.6838  19.8177  19.8178  19.8225  19.8227
    19.9321  19.9322  19.9666  19.9667  19.9690  19.9693  20.9452  20.9454
    21.4889  21.4892  21.5609  21.5609  21.7310  21.7310  21.7964  21.7965
    21.8354  21.8356  21.8508  21.8508  22.2721  22.2724  22.5134  22.5138
    22.5337  22.5341  22.6808  22.6812  22.7760  22.7764

          k = 0.0567 0.2834 0.2834 ( 11792 PWs)   bands (ev):

   -50.8030 -50.6907 -50.6906 -50.6297 -50.6125 -50.5891 -50.5890 -50.5798
   -50.5737 -50.5736 -50.5707 -50.5634 -50.5483 -50.5166 -50.5165 -50.4304
   -22.5578 -22.5229 -22.5229 -22.5041 -22.5040 -22.4276 -22.3535 -22.3488
   -22.3487 -22.3294 -22.3281 -22.3234 -22.2818 -22.1958 -22.1160 -22.0647
   -22.0626 -22.0625 -22.0144 -22.0143 -21.9717 -21.9317 -21.9199 -21.9114
[...]
    22.0165  22.0166  22.0206  22.0209  22.1339  22.1341  22.3114  22.3117
    22.3340  22.3343  22.4926  22.4930  22.5439  22.5442

          k = 0.1701-0.5102-0.5102 ( 11824 PWs)   bands (ev):

   -50.7125 -50.7123 -50.7121 -50.7118 -50.6128 -50.6126 -50.6124 -50.6121
   -50.5535 -50.5533 -50.5532 -50.5528 -50.4920 -50.4918 -50.4917 -50.4913
   -22.4264 -22.4264 -22.4263 -22.4263 -22.4116 -22.4114 -22.4113 -22.4111
   -22.3773 -22.3772 -22.3771 -22.3769 -22.1081 -22.1079 -22.1077 -22.1075
   -22.0904 -22.0903 -22.0903 -22.0903 -22.0811 -22.0811 -22.0810 -22.0810
   -21.8383 -21.8382 -21.8382 -21.8381 -21.8339 -21.8339 -21.8338 -21.8338
   -21.6587 -21.6585 -21.6584 -21.6580 -21.6194 -21.6193 -21.6192 -21.6191
   -21.6016 -21.6015 -21.6014 -21.6013 -21.5063 -21.5063 -21.5062 -21.5061
    15.5036  15.5037  15.5040  15.5041  17.3282  17.3283  17.3285  17.3286
    17.3769  17.3770  17.3772  17.3774  17.8069  17.8070  17.8071  17.8072
    18.0754  18.0756  18.0758  18.0760  18.4140  18.4141  18.4142  18.4143
    18.5791  18.5792  18.5793  18.5794  19.0963  19.0964  19.0964  19.0965
    19.1446  19.1447  19.1447  19.1447  19.3191  19.3191  19.3192  19.3192
    19.5694  19.5695  19.5695  19.5696  20.1355  20.1355  20.1355  20.1355
    21.8986  21.8987  21.8987  21.8989  22.0242  22.0243  22.0244  22.0246
    22.1766  22.1767  22.1768  22.1771  22.1827  22.1829  22.1829  22.1831
    22.2238  22.2238  22.2238  22.2238  22.4694  22.4697

          k = 0.2834 0.2834 0.2834 ( 11806 PWs)   bands (ev):

   -50.7827 -50.6791 -50.6791 -50.6789 -50.6223 -50.6223 -50.6222 -50.5882
   -50.5536 -50.5482 -50.5482 -50.5481 -50.5206 -50.5206 -50.5204 -50.4436
   -22.5086 -22.5085 -22.5085 -22.4160 -22.4160 -22.4160 -22.3809 -22.3735
   -22.3735 -22.3734 -22.2840 -22.2840 -22.2451 -22.2451 -22.1437 -22.1437
   -22.1437 -22.0747 -22.0746 -22.0746 -22.0128 -21.9998 -21.9998 -21.9997
   -21.8078 -21.7940 -21.7940 -21.7937 -21.7937 -21.7937 -21.7896 -21.7896
   -21.7896 -21.7199 -21.7198 -21.7198 -21.6524 -21.6179 -21.6179 -21.6178
   -21.5709 -21.5709 -21.5707 -21.5421 -21.5420 -21.5420 -21.5247 -21.5247
    14.2327  16.0839  16.0839  16.0839  16.6897  16.6897  16.6897  17.0597
    17.0597  17.1734  17.1734  17.1734  17.7555  17.7555  17.7555  17.8625
    17.9927  17.9927  17.9927  18.3834  18.3834  18.4601  18.5798  18.5799
    18.5799  18.8325  18.8325  18.8325  18.9030  18.9030  19.2182  19.2183
    19.2183  19.4693  19.4693  19.4694  19.6343  19.6344  19.6344  19.6634
    19.6634  19.9409  19.9409  19.9409  19.9882  19.9882  19.9882  21.2028
    21.3812  21.5010  21.5010  21.5010  21.8053  21.8053  21.8053  22.0036
    22.0036  22.0036  22.2150  22.2150  22.2941  22.2941  22.2941  22.4543
    22.4544  22.4544  22.6448  22.6449  22.6449  22.6534

          k = 0.2834 0.2834 0.3968 ( 11794 PWs)   bands (ev):

   -50.7634 -50.7104 -50.6681 -50.6680 -50.6389 -50.6388 -50.6154 -50.5977
   -50.5508 -50.5484 -50.5384 -50.5383 -50.5247 -50.5246 -50.4954 -50.4567
   -22.4794 -22.4793 -22.4608 -22.4068 -22.4038 -22.4037 -22.3893 -22.3703
   -22.3523 -22.3523 -22.3269 -22.3227 -22.2460 -22.2096 -22.2096 -22.1888
   -22.1394 -22.0814 -22.0813 -22.0612 -22.0598 -22.0382 -22.0381 -21.9568
   -21.8863 -21.8444 -21.8067 -21.8036 -21.7660 -21.7660 -21.7382 -21.7382
   -21.7298 -21.7297 -21.7149 -21.6582 -21.6513 -21.6513 -21.6309 -21.6137
   -21.5869 -21.5595 -21.5578 -21.5577 -21.5455 -21.5427 -21.5426 -21.5219
    14.6002  15.5620  16.2935  16.2935  16.6161  16.6162  17.0497  17.2313
    17.2920  17.3609  17.3609  17.4495  17.7085  17.7113  17.7171  17.7171
    17.8560  17.9660  18.2312  18.2313  18.4030  18.5145  18.6691  18.6693
    18.7005  18.7005  18.7206  18.9358  18.9358  19.0431  19.0432  19.1047
    19.2829  19.2829  19.3472  19.3473  19.3583  19.4125  19.4890  19.5072
    19.5197  19.5788  19.6021  19.6022  19.6653  19.6653  20.1784  20.9122
    21.5046  21.6809  21.7382  21.7382  21.8752  21.8753  21.9320  21.9320
    22.0626  22.1388  22.1602  22.1810  22.1810  22.2031  22.3547  22.3642
    22.5572  22.5606  22.6508  22.6509  22.6530  22.6585

          k = 0.2834 0.2834-0.5102 ( 11804 PWs)   bands (ev):

   -50.7391 -50.7387 -50.6546 -50.6546 -50.6543 -50.6541 -50.6072 -50.6068
   -50.5493 -50.5489 -50.5308 -50.5308 -50.5305 -50.5303 -50.4742 -50.4738
   -22.4421 -22.4420 -22.4420 -22.4419 -22.3999 -22.3995 -22.3978 -22.3975
   -22.3526 -22.3525 -22.2817 -22.2816 -22.2815 -22.2815 -22.1975 -22.1971
   -22.1261 -22.1259 -22.0675 -22.0674 -22.0672 -22.0672 -21.9723 -21.9723
   -21.9006 -21.9004 -21.8092 -21.8089 -21.7449 -21.7449 -21.7446 -21.7446
   -21.6916 -21.6916 -21.6915 -21.6914 -21.6454 -21.6450 -21.6179 -21.6177
   -21.6045 -21.6041 -21.5481 -21.5481 -21.5480 -21.5480 -21.5289 -21.5289
    15.0539  15.0544  16.4845  16.4845  16.4848  16.4848  17.4504  17.4508
    17.4878  17.4883  17.5319  17.5322  17.5524  17.5524  17.5526  17.5526
    17.7182  17.7185  18.4507  18.4510  18.5791  18.5792  18.6233  18.6234
    18.6237  18.6238  18.8637  18.8637  18.8638  18.8639  19.0911  19.0912
    19.3067  19.3069  19.3820  19.3820  19.3821  19.3821  19.3886  19.3886
    19.3886  19.3886  19.4309  19.4310  19.4765  19.4768  20.4968  20.4968
    21.8281  21.8281  21.8776  21.8779  21.8974  21.8974  21.8974  21.8974
    21.9789  21.9789  21.9791  21.9792  22.3961  22.3965  22.4561  22.4565
    22.5194  22.5198  22.5278  22.5281  22.6581  22.6584

          k = 0.2834 0.3968 0.3968 ( 11789 PWs)   bands (ev):

   -50.7455 -50.6968 -50.6967 -50.6601 -50.6578 -50.6308 -50.6307 -50.6095
   -50.5458 -50.5399 -50.5398 -50.5282 -50.5238 -50.5024 -50.5023 -50.4682
   -22.4565 -22.4362 -22.4361 -22.4020 -22.3926 -22.3925 -22.3792 -22.3587
   -22.3587 -22.3372 -22.3341 -22.2829 -22.2544 -22.2413 -22.2055 -22.1452
   -22.1451 -22.1303 -22.1303 -22.1149 -22.1014 -22.1014 -22.0870 -21.9630
   -21.8991 -21.7888 -21.7888 -21.7766 -21.7712 -21.7711 -21.7371 -21.7246
   -21.6964 -21.6914 -21.6861 -21.6696 -21.6695 -21.6336 -21.6336 -21.6230
   -21.5825 -21.5825 -21.5778 -21.5657 -21.5412 -21.5411 -21.5378 -21.5287
    14.9493  15.8355  15.8355  16.4028  16.5535  16.9731  16.9731  17.3874
    17.5028  17.5212  17.6434  17.6434  17.6783  17.6783  17.7975  17.9491
    17.9726  18.0346  18.0346  18.1470  18.4897  18.6210  18.6211  18.6239
    18.6244  18.7013  18.7013  18.7989  18.8315  18.8999  19.0061  19.1428
    19.1428  19.1623  19.1843  19.1937  19.1937  19.2239  19.2239  19.3155
    19.3155  19.3667  19.4028  19.4058  19.4617  19.7809  19.7810  20.4493
    21.8440  21.8788  21.8789  21.9082  21.9585  22.0539  22.1165  22.1398
    22.1398  22.1700  22.1700  22.1849  22.2663  22.2664  22.3352  22.4869
    22.5272  22.5272  22.5274  22.5545  22.6355  22.6472

          k = 0.2834 0.3968-0.5102 ( 11812 PWs)   bands (ev):

   -50.7232 -50.7228 -50.6800 -50.6795 -50.6453 -50.6449 -50.6209 -50.6205
   -50.5424 -50.5420 -50.5333 -50.5329 -50.5120 -50.5116 -50.4836 -50.4832
   -22.4247 -22.4246 -22.4135 -22.4133 -22.3839 -22.3835 -22.3682 -22.3680
   -22.3680 -22.3679 -22.3061 -22.3060 -22.2070 -22.2069 -22.2008 -22.2004
   -22.1626 -22.1625 -22.1251 -22.1249 -22.1222 -22.1220 -22.0464 -22.0464
   -21.8430 -21.8428 -21.7735 -21.7733 -21.7499 -21.7498 -21.7375 -21.7373
   -21.6922 -21.6918 -21.6612 -21.6611 -21.6329 -21.6325 -21.6238 -21.6236
   -21.6181 -21.6177 -21.5750 -21.5749 -21.5380 -21.5380 -21.5319 -21.5319
    15.3730  15.3735  16.1321  16.1325  16.8029  16.8032  17.3949  17.3953
    17.5427  17.5431  17.6114  17.6117  17.7919  17.7923  17.8483  17.8484
    17.9016  17.9019  18.4237  18.4241  18.4463  18.4467  18.5459  18.5461
    18.5512  18.5512  18.7585  18.7588  18.8725  18.8726  18.9474  18.9475
    19.0876  19.0878  19.0951  19.0953  19.2065  19.2066  19.2372  19.2372
    19.3060  19.3061  19.3689  19.3690  19.4418  19.4419  20.0545  20.0545
    22.0211  22.0214  22.0446  22.0447  22.0692  22.0694  22.0972  22.0975
    22.1378  22.1379  22.2060  22.2061  22.3751  22.3754  22.3812  22.3815
    22.4584  22.4588  22.4650  22.4652  22.5570  22.5574

          k = 0.2834-0.5102-0.5102 ( 11800 PWs)   bands (ev):

   -50.7033 -50.7030 -50.7029 -50.7025 -50.6340 -50.6337 -50.6336 -50.6333
   -50.5373 -50.5370 -50.5369 -50.5365 -50.4963 -50.4961 -50.4960 -50.4956
   -22.3970 -22.3970 -22.3969 -22.3969 -22.3889 -22.3888 -22.3887 -22.3885
   -22.3363 -22.3362 -22.3361 -22.3359 -22.1723 -22.1721 -22.1720 -22.1718
   -22.1604 -22.1604 -22.1603 -22.1603 -22.1269 -22.1268 -22.1267 -22.1267
   -21.7883 -21.7882 -21.7881 -21.7881 -21.7570 -21.7570 -21.7569 -21.7569
   -21.6488 -21.6486 -21.6485 -21.6482 -21.6382 -21.6381 -21.6381 -21.6380
   -21.6060 -21.6059 -21.6058 -21.6056 -21.5333 -21.5333 -21.5332 -21.5332
    15.7471  15.7472  15.7475  15.7476  17.1414  17.1415  17.1418  17.1419
    17.5990  17.5991  17.5993  17.5995  18.0506  18.0507  18.0508  18.0508
    18.1174  18.1176  18.1178  18.1180  18.3614  18.3616  18.3617  18.3619
    18.6581  18.6582  18.6583  18.6583  18.8817  18.8818  18.8819  18.8820
    19.0683  19.0684  19.0684  19.0684  19.0847  19.0848  19.0849  19.0849
    19.3070  19.3071  19.3071  19.3072  19.6843  19.6844  19.6844  19.6844
    22.1094  22.1095  22.1096  22.1098  22.2395  22.2397  22.2398  22.2401
    22.2560  22.2561  22.2561  22.2562  22.3080  22.3081  22.3082  22.3083
    22.4496  22.4498  22.4499  22.4502  22.6008  22.6008

          k = 0.3968 0.3968 0.3968 ( 11779 PWs)   bands (ev):

   -50.7290 -50.6842 -50.6842 -50.6840 -50.6503 -50.6503 -50.6501 -50.6242
   -50.5378 -50.5270 -50.5270 -50.5269 -50.5084 -50.5084 -50.5082 -50.4782
   -22.4110 -22.4109 -22.4109 -22.3805 -22.3805 -22.3804 -22.3553 -22.3035
   -22.3035 -22.3035 -22.2969 -22.2969 -22.2833 -22.2833 -22.1839 -22.1839
   -22.1839 -22.1833 -22.1833 -22.1833 -22.1553 -22.1553 -22.1552 -22.0319
   -21.8427 -21.7402 -21.7402 -21.7402 -21.7211 -21.7211 -21.7210 -21.7015
   -21.7015 -21.6714 -21.6713 -21.6713 -21.6618 -21.6618 -21.6618 -21.6271
   -21.5806 -21.5805 -21.5805 -21.5658 -21.5658 -21.5591 -21.5591 -21.5590
    15.2915  16.1379  16.1379  16.1379  16.7639  16.7639  16.7639  17.6007
    17.6437  17.6437  17.8071  17.8071  17.8071  17.9672  17.9672  17.9672
    18.0419  18.0419  18.0419  18.1294  18.5470  18.5470  18.6944  18.6944
    18.7142  18.7142  18.7142  18.8015  18.8015  18.8015  18.8522  18.8522
    18.8522  19.0251  19.0252  19.0252  19.0555  19.0555  19.0556  19.0954
    19.0954  19.0955  19.2651  19.2651  19.3935  19.3935  19.3935  19.9864
    22.0272  22.0273  22.0273  22.2182  22.2445  22.2445  22.2446  22.2526
    22.2526  22.2763  22.2763  22.2763  22.3233  22.3234  22.3234  22.5160
    22.5160  22.5499  22.5500  22.5502  22.5737  22.5738

          k = 0.3968 0.3968-0.5102 ( 11776 PWs)   bands (ev):

   -50.7084 -50.7080 -50.6686 -50.6685 -50.6682 -50.6681 -50.6382 -50.6378
   -50.5318 -50.5313 -50.5167 -50.5167 -50.5164 -50.5162 -50.4918 -50.4914
   -22.3870 -22.3869 -22.3869 -22.3868 -22.3528 -22.3523 -22.3444 -22.3443
   -22.3287 -22.3285 -22.2454 -22.2450 -22.2432 -22.2432 -22.2430 -22.2430
   -22.2226 -22.2224 -22.1880 -22.1879 -22.1878 -22.1877 -22.1074 -22.1073
   -21.7893 -21.7892 -21.7136 -21.7134 -21.6976 -21.6976 -21.6975 -21.6974
   -21.6870 -21.6869 -21.6868 -21.6867 -21.6402 -21.6400 -21.6357 -21.6353
   -21.6139 -21.6135 -21.5737 -21.5737 -21.5737 -21.5736 -21.5591 -21.5591
    15.7014  15.7019  16.4690  16.4690  16.4694  16.4694  17.1911  17.1916
    17.7954  17.7958  17.8993  17.8996  17.9301  17.9301  17.9304  17.9304
    18.1196  18.1199  18.3967  18.3967  18.3971  18.3971  18.5915  18.5916
    18.6255  18.6258  18.7441  18.7443  18.7554  18.7557  18.8528  18.8528
    18.8529  18.8530  19.0152  19.0153  19.0154  19.0155  19.0741  19.0741
    19.0741  19.0741  19.1335  19.1337  19.1483  19.1485  19.6058  19.6058
    22.1468  22.1471  22.1805  22.1805  22.1808  22.1808  22.3316  22.3317
    22.3317  22.3317  22.3910  22.3914  22.4119  22.4123  22.4885  22.4887
    22.5374  22.5377  22.5397  22.5397  22.5400  22.5401

          k = 0.3968-0.5102-0.5102 ( 11776 PWs)   bands (ev):

   -50.6900 -50.6898 -50.6897 -50.6893 -50.6545 -50.6543 -50.6542 -50.6538
   -50.5233 -50.5231 -50.5230 -50.5226 -50.5029 -50.5027 -50.5026 -50.5022
   -22.3540 -22.3540 -22.3539 -22.3539 -22.3506 -22.3504 -22.3503 -22.3501
   -22.2855 -22.2853 -22.2853 -22.2852 -22.2384 -22.2383 -22.2381 -22.2379
   -22.2338 -22.2338 -22.2337 -22.2337 -22.1751 -22.1751 -22.1750 -22.1750
   -21.7405 -21.7404 -21.7404 -21.7403 -21.6865 -21.6865 -21.6864 -21.6864
   -21.6648 -21.6647 -21.6646 -21.6645 -21.6369 -21.6367 -21.6366 -21.6364
   -21.6142 -21.6141 -21.6140 -21.6138 -21.5733 -21.5733 -21.5732 -21.5732
    16.0839  16.0841  16.0844  16.0845  16.8501  16.8503  16.8506  16.8507
    17.9038  17.9040  17.9041  17.9043  18.1738  18.1740  18.1742  18.1744
    18.3022  18.3023  18.3025  18.3027  18.3099  18.3100  18.3102  18.3103
    18.7531  18.7532  18.7533  18.7533  18.7906  18.7907  18.7907  18.7909
    18.7937  18.7938  18.7938  18.7938  18.9689  18.9690  18.9690  18.9690
    19.0500  19.0501  19.0501  19.0502  19.2384  19.2385  19.2385  19.2385
    22.2271  22.2272  22.2273  22.2276  22.3071  22.3073  22.3074  22.3077
    22.4163  22.4166  22.4167  22.4170  22.5123  22.5124  22.5124  22.5125
    22.5185  22.5186  22.5188  22.5191  22.5636  22.5636

          k =-0.5102-0.5102-0.5102 ( 11752 PWs)   bands (ev):

   -50.6736 -50.6734 -50.6734 -50.6732 -50.6732 -50.6730 -50.6730 -50.6725
   -50.5120 -50.5118 -50.5118 -50.5116 -50.5116 -50.5115 -50.5115 -50.5109
   -22.2994 -22.2994 -22.2994 -22.2994 -22.2994 -22.2993 -22.2993 -22.2993
   -22.2991 -22.2991 -22.2991 -22.2990 -22.2990 -22.2988 -22.2988 -22.2988
   -22.2298 -22.2297 -22.2297 -22.2297 -22.2296 -22.2295 -22.2295 -22.2295
   -21.6991 -21.6991 -21.6991 -21.6990 -21.6989 -21.6989 -21.6989 -21.6988
   -21.6248 -21.6248 -21.6247 -21.6247 -21.6247 -21.6246 -21.6246 -21.6246
   -21.6244 -21.6244 -21.6244 -21.6244 -21.6244 -21.6241 -21.6241 -21.6241
    16.4731  16.4733  16.4733  16.4734  16.4736  16.4737  16.4737  16.4738
    18.2377  18.2378  18.2379  18.2379  18.2379  18.2379  18.2381  18.2381
    18.2381  18.2381  18.2382  18.2382  18.2383  18.2383  18.2385  18.2385
    18.8529  18.8529  18.8529  18.8530  18.8530  18.8530  18.8530  18.8530
    18.8597  18.8597  18.8597  18.8597  18.8597  18.8597  18.8597  18.8598
    18.8599  18.8599  18.8600  18.8600  18.8600  18.8601  18.8601  18.8601
    22.3681  22.3681  22.3682  22.3682  22.3683  22.3683  22.3684  22.3685
    22.3685  22.3685  22.3686  22.3686  22.3686  22.3686  22.3690  22.3690
    22.7909  22.7909  22.7910  22.7911  22.7912  22.7912

     the Fermi energy is    21.0748 ev

!    total energy              =   -3971.48796949 Ry
     Harris-Foulkes estimate   =   -3971.48796650 Ry
     estimated scf accuracy    <       0.00000087 Ry

     total all-electron energy =    -33628.010849 Ry

     The total energy is the sum of the following terms:

     one-electron contribution =    -816.08087880 Ry
     hartree contribution      =     557.99645730 Ry
     xc contribution           =    -357.60434047 Ry
     ewald contribution        =   -2167.78311324 Ry
     one-center paw contrib.   =   -1188.02326295 Ry
     smearing contrib. (-TS)   =       0.00716867 Ry

     total magnetization       =     0.00 Bohr mag/cell
     absolute magnetization    =     0.02 Bohr mag/cell

     convergence has been achieved in  20 iterations

     Forces acting on atoms (cartesian axes, Ry/au):

     atom    1 type  1   force =     0.00000000    0.00000000   -0.00000000
     atom    2 type  2   force =     0.00014869    0.00014869    0.00014869
     atom    3 type  1   force =     0.00000000    0.00000000    0.00000000
     atom    4 type  2   force =     0.00014869    0.00014869   -0.00014869
     atom    5 type  1   force =     0.00000000    0.00000000   -0.00000000
     atom    6 type  2   force =     0.00014869   -0.00014869    0.00014869
     atom    7 type  1   force =     0.00000000    0.00000000    0.00000000
     atom    8 type  2   force =     0.00014869   -0.00014869   -0.00014869
     atom    9 type  1   force =     0.00000000    0.00000000    0.00000000
     atom   10 type  2   force =    -0.00014869    0.00014869    0.00014869
     atom   11 type  1   force =     0.00000000    0.00000000    0.00000000
     atom   12 type  2   force =    -0.00014869    0.00014869   -0.00014869
     atom   13 type  1   force =     0.00000000    0.00000000    0.00000000
     atom   14 type  2   force =    -0.00014869   -0.00014869    0.00014869
     atom   15 type  1   force =     0.00000000    0.00000000    0.00000000
     atom   16 type  2   force =    -0.00014869   -0.00014869   -0.00014869

     Total force =     0.000728     Total SCF correction =     0.004475
     SCF correction compared to forces is large: reduce conv_thr to get better values


     Computing stress (Cartesian axis) and pressure

          total   stress  (Ry/bohr**3)                   (kbar)     P=  185.77
   0.00126287   0.00000000   0.00000000        185.77      0.00      0.00
   0.00000000   0.00126287   0.00000000          0.00    185.77      0.00
   0.00000000   0.00000000   0.00126287          0.00      0.00    185.77


     Writing output data file xRHjmVBiHjTafiRf.save/
 
     init_run     :      8.98s CPU      9.40s WALL (       1 calls)
     electrons    :    689.63s CPU    704.67s WALL (       1 calls)
     forces       :      3.13s CPU      3.28s WALL (       1 calls)
     stress       :     10.42s CPU     10.51s WALL (       1 calls)

     Called by init_run:
     wfcinit      :      8.30s CPU      8.68s WALL (       1 calls)
     potinit      :      0.34s CPU      0.36s WALL (       1 calls)
     hinit0       :      0.13s CPU      0.13s WALL (       1 calls)

     Called by electrons:
     c_bands      :    624.07s CPU    635.96s WALL (      21 calls)
     sum_band     :     57.46s CPU     59.97s WALL (      21 calls)
     v_of_rho     :      0.62s CPU      0.68s WALL (      21 calls)
     newd         :      1.37s CPU      1.62s WALL (      21 calls)
     PAW_pot      :      6.07s CPU      6.37s WALL (      21 calls)
     mix_rho      :      0.18s CPU      0.20s WALL (      21 calls)

     Called by c_bands:
     init_us_2    :      3.70s CPU      3.78s WALL (    3150 calls)
     cegterg      :    602.40s CPU    614.11s WALL (    1470 calls)

     Called by sum_band:
     sum_band:bec :      0.63s CPU      0.65s WALL (    1470 calls)
     addusdens    :      2.40s CPU      2.73s WALL (      21 calls)

     Called by *egterg:
     h_psi        :    241.84s CPU    250.13s WALL (    6758 calls)
     s_psi        :     23.15s CPU     23.23s WALL (    6758 calls)
     g_psi        :      1.29s CPU      1.30s WALL (    5218 calls)
     cdiaghg      :    263.03s CPU    263.56s WALL (    6618 calls)

     Called by h_psi:
     h_psi:pot    :    240.55s CPU    248.82s WALL (    6758 calls)
     h_psi:calbec :     25.67s CPU     27.73s WALL (    6758 calls)
     vloc_psi     :    192.00s CPU    198.10s WALL (    6758 calls)
     add_vuspsi   :     22.82s CPU     22.94s WALL (    6758 calls)

     General routines
     calbec       :     37.65s CPU     40.70s WALL (    8578 calls)
     fft          :      0.50s CPU      0.55s WALL (     567 calls)
     ffts         :      0.04s CPU      0.04s WALL (      84 calls)
     fftw         :    216.52s CPU    223.28s WALL ( 1175726 calls)
     interpolate  :      0.08s CPU      0.09s WALL (      42 calls)
 
     Parallel routines
     fft_scatt_xy :     17.89s CPU     18.49s WALL ( 1176377 calls)
     fft_scatt_yz :    105.79s CPU    109.52s WALL ( 1176377 calls)
 
     PWSCF        : 11m56.63s CPU    12m21.14s WALL

 
   This run was terminated on:   4:36:25  15Jun2020            

=------------------------------------------------------------------------------=
   JOB DONE.
=------------------------------------------------------------------------------=
