
     Program PWSCF v.6.3 starts on 15Jun2020 at  6:42: 2 

     This program is part of the open-source Quantum ESPRESSO suite
     for quantum simulation of materials; please cite
         "P. Giannozzi et al., J. Phys.:Condens. Matter 21 395502 (2009);
         "P. Giannozzi et al., J. Phys.:Condens. Matter 29 465901 (2017);
          URL http://www.quantum-espresso.org", 
     in publications or presentations arising from this work. More details at
     http://www.quantum-espresso.org/quote

     Parallel version (MPI & OpenMP), running on      20 processor cores
     Number of MPI processes:                20
     Threads/MPI process:                     1

     MPI processes distributed on     1 nodes
     R & G space division:  proc/nbgrp/npool/nimage =      20
     Reading input from wd/eos/eos_012.in
Warning: card &IONS ignored
Warning: card ION_DYNAMICS = 'BFGS', ignored
Warning: card / ignored
Warning: card &CELL ignored
Warning: card CELL_DYNAMICS = 'BFGS', ignored
Warning: card CELL_FACTOR = 2.0, ignored
Warning: card PRESS = 0.0, ignored
Warning: card / ignored

     Current dimensions of program PWSCF are:
     Max number of different atomic species (ntypx) = 10
     Max number of k-points (npk) =  40000
     Max angular momentum in pseudopotentials (lmaxx) =  3
     Message from routine read_upf::
     Pseudo file /rds/homes/b/bxp912/pp/Cr.pbe-spn-kjpaw_psl.1.0.0.UPF has been successfully fixed on the fly.
To avoid this message in the future you can permanently fix 
 your pseudo files following instructions given in: 
https://gitlab.com/QEF/q-e/blob/master/upftools/how_to_fix_upf.md
               file Cr.pbe-spn-kjpaw_psl.1.0.0.UPF: wavefunction(s)  3S 3P 3D renormalized
     Message from routine read_upf::
     Pseudo file /rds/homes/b/bxp912/pp/Cr.pbe-spn-kjpaw_psl.1.0.0.UPF has been successfully fixed on the fly.
To avoid this message in the future you can permanently fix 
 your pseudo files following instructions given in: 
https://gitlab.com/QEF/q-e/blob/master/upftools/how_to_fix_upf.md
               file Cr.pbe-spn-kjpaw_psl.1.0.0.UPF: wavefunction(s)  3S 3P 3D renormalized

     Subspace diagonalization in iterative solution of the eigenvalue problem:
     a serial algorithm will be used

     Found symmetry operation: I + (  0.0000  0.0000  0.5000)
     This is a supercell, fractional translations are disabled
 
     Parallelization info
     --------------------
     sticks:   dense  smooth     PW     G-vecs:    dense   smooth      PW
     Min         202     133     37                 9674     5185     773
     Max         203     135     38                 9677     5188     778
     Sum        4041    2669    749               193511   103719   15515
 


     bravais-lattice index     =            0
     lattice parameter (alat)  =      10.7442  a.u.
     unit-cell volume          =    1283.2989 (a.u.)^3
     number of atoms/cell      =           16
     number of atomic types    =            2
     number of electrons       =       224.00
     number of Kohn-Sham states=          134
     kinetic-energy cutoff     =      71.0000  Ry
     charge density cutoff     =     430.0000  Ry
     convergence threshold     =      1.0E-06
     mixing beta               =       0.1000
     number of iterations used =           10  plain     mixing
     Exchange-correlation      = SLA PW PBX PBC ( 1  4  3  4 0 0)

     celldm(1)=  10.744199  celldm(2)=   0.000000  celldm(3)=   0.000000
     celldm(4)=   0.000000  celldm(5)=   0.000000  celldm(6)=   0.000000

     crystal axes: (cart. coord. in units of alat)
               a(1) = (   1.011429   0.000000   0.000000 )  
               a(2) = (   0.000000   1.011429   0.000000 )  
               a(3) = (   0.000000   0.000000   1.011429 )  

     reciprocal axes: (cart. coord. in units 2 pi/alat)
               b(1) = (  0.988701  0.000000  0.000000 )  
               b(2) = (  0.000000  0.988701  0.000000 )  
               b(3) = (  0.000000  0.000000  0.988701 )  


     PseudoPot. # 1 for Cr read from file:
     /rds/homes/b/bxp912/pp/Cr.pbe-spn-kjpaw_psl.1.0.0.UPF
     MD5 check sum: cb1c17117da000fe5e03c4f1a6841d9c
     Pseudo is Projector augmented-wave + core cor, Zval = 14.0
     Generated using "atomic" code by A. Dal Corso v.5.1
     Shape of augmentation charge: PSQ
     Using radial grid of 1183 points,  6 beta functions with: 
                l(1) =   0
                l(2) =   0
                l(3) =   1
                l(4) =   1
                l(5) =   2
                l(6) =   2
     Q(r) pseudized with 0 coefficients 


     PseudoPot. # 2 for Cr read from file:
     /rds/homes/b/bxp912/pp/Cr.pbe-spn-kjpaw_psl.1.0.0.UPF
     MD5 check sum: cb1c17117da000fe5e03c4f1a6841d9c
     Pseudo is Projector augmented-wave + core cor, Zval = 14.0
     Generated using "atomic" code by A. Dal Corso v.5.1
     Shape of augmentation charge: PSQ
     Using radial grid of 1183 points,  6 beta functions with: 
                l(1) =   0
                l(2) =   0
                l(3) =   1
                l(4) =   1
                l(5) =   2
                l(6) =   2
     Q(r) pseudized with 0 coefficients 


     atomic species   valence    mass     pseudopotential
        Cr1           14.00    55.84500     Cr( 1.00)
        Cr2           14.00    55.84500     Cr( 1.00)

     Starting magnetic structure 
     atomic species   magnetization
        Cr1          0.100
        Cr2          0.100

     48 Sym. Ops., with inversion, found



   Cartesian axes

     site n.     atom                  positions (alat units)
         1           Cr1 tau(   1) = (   0.0000000   0.0000000   0.0000000  )
         2           Cr2 tau(   2) = (   0.2528575   0.2528575   0.2528571  )
         3           Cr1 tau(   3) = (   0.0000000   0.0000000   0.5057133  )
         4           Cr2 tau(   4) = (   0.2528575   0.2528575   0.7585704  )
         5           Cr1 tau(   5) = (   0.0000000   0.5057142   0.0000000  )
         6           Cr2 tau(   6) = (   0.2528575   0.7585707   0.2528571  )
         7           Cr1 tau(   7) = (   0.0000000   0.5057142   0.5057133  )
         8           Cr2 tau(   8) = (   0.2528575   0.7585707   0.7585704  )
         9           Cr1 tau(   9) = (   0.5057142   0.0000000   0.0000000  )
        10           Cr2 tau(  10) = (   0.7585707   0.2528575   0.2528571  )
        11           Cr1 tau(  11) = (   0.5057142   0.0000000   0.5057133  )
        12           Cr2 tau(  12) = (   0.7585707   0.2528575   0.7585704  )
        13           Cr1 tau(  13) = (   0.5057142   0.5057142   0.0000000  )
        14           Cr2 tau(  14) = (   0.7585707   0.7585707   0.2528571  )
        15           Cr1 tau(  15) = (   0.5057142   0.5057142   0.5057133  )
        16           Cr2 tau(  16) = (   0.7585707   0.7585707   0.7585704  )

     number of k points=    35  Marzari-Vanderbilt smearing, width (Ry)=  0.0400
                       cart. coord. in units 2pi/alat
        k(    1) = (   0.0549278   0.0549278   0.0549278), wk =   0.0109739
        k(    2) = (   0.0549278   0.0549278   0.1647834), wk =   0.0329218
        k(    3) = (   0.0549278   0.0549278   0.2746390), wk =   0.0329218
        k(    4) = (   0.0549278   0.0549278   0.3844947), wk =   0.0329218
        k(    5) = (   0.0549278   0.0549278  -0.4943503), wk =   0.0164609
        k(    6) = (   0.0549278   0.1647834   0.1647834), wk =   0.0329218
        k(    7) = (   0.0549278   0.1647834   0.2746390), wk =   0.0658436
        k(    8) = (   0.0549278   0.1647834   0.3844947), wk =   0.0658436
        k(    9) = (   0.0549278   0.1647834  -0.4943503), wk =   0.0329218
        k(   10) = (   0.0549278   0.2746390   0.2746390), wk =   0.0329218
        k(   11) = (   0.0549278   0.2746390   0.3844947), wk =   0.0658436
        k(   12) = (   0.0549278   0.2746390  -0.4943503), wk =   0.0329218
        k(   13) = (   0.0549278   0.3844947   0.3844947), wk =   0.0329218
        k(   14) = (   0.0549278   0.3844947  -0.4943503), wk =   0.0329218
        k(   15) = (   0.0549278  -0.4943503  -0.4943503), wk =   0.0082305
        k(   16) = (   0.1647834   0.1647834   0.1647834), wk =   0.0109739
        k(   17) = (   0.1647834   0.1647834   0.2746390), wk =   0.0329218
        k(   18) = (   0.1647834   0.1647834   0.3844947), wk =   0.0329218
        k(   19) = (   0.1647834   0.1647834  -0.4943503), wk =   0.0164609
        k(   20) = (   0.1647834   0.2746390   0.2746390), wk =   0.0329218
        k(   21) = (   0.1647834   0.2746390   0.3844947), wk =   0.0658436
        k(   22) = (   0.1647834   0.2746390  -0.4943503), wk =   0.0329218
        k(   23) = (   0.1647834   0.3844947   0.3844947), wk =   0.0329218
        k(   24) = (   0.1647834   0.3844947  -0.4943503), wk =   0.0329218
        k(   25) = (   0.1647834  -0.4943503  -0.4943503), wk =   0.0082305
        k(   26) = (   0.2746390   0.2746390   0.2746390), wk =   0.0109739
        k(   27) = (   0.2746390   0.2746390   0.3844947), wk =   0.0329218
        k(   28) = (   0.2746390   0.2746390  -0.4943503), wk =   0.0164609
        k(   29) = (   0.2746390   0.3844947   0.3844947), wk =   0.0329218
        k(   30) = (   0.2746390   0.3844947  -0.4943503), wk =   0.0329218
        k(   31) = (   0.2746390  -0.4943503  -0.4943503), wk =   0.0082305
        k(   32) = (   0.3844947   0.3844947   0.3844947), wk =   0.0109739
        k(   33) = (   0.3844947   0.3844947  -0.4943503), wk =   0.0164609
        k(   34) = (   0.3844947  -0.4943503  -0.4943503), wk =   0.0082305
        k(   35) = (  -0.4943503  -0.4943503  -0.4943503), wk =   0.0013717

     Dense  grid:   193511 G-vectors     FFT dimensions: (  72,  72,  72)

     Smooth grid:   103719 G-vectors     FFT dimensions: (  60,  60,  60)

     Estimated max dynamical RAM per process >     147.76 MB

     Estimated total dynamical RAM >       2.89 GB
     Generating pointlists ...
     new r_m :   0.1807 (alat units)  1.9410 (a.u.) for type    1
     new r_m :   0.1807 (alat units)  1.9410 (a.u.) for type    2

     Check: negative/imaginary core charge=   -0.000009    0.000000

     Initial potential from superposition of free atoms

     starting charge  223.98764, renormalised to  224.00000
     Starting wfcs are  160 randomized atomic wfcs
     Checking if some PAW data can be deallocated... 

     total cpu time spent up to now is       11.8 secs

     Self-consistent Calculation

     iteration #  1     ecut=    71.00 Ry     beta= 0.10
     Davidson diagonalization with overlap
     ethr =  1.00E-02,  avg # of iterations =  3.1

     Threshold (ethr) on eigenvalues was too large:
     Diagonalizing with lowered threshold

     Davidson diagonalization with overlap
     ethr =  7.82E-04,  avg # of iterations =  3.6

     total cpu time spent up to now is       72.8 secs

     total energy              =   -3971.38796739 Ry
     Harris-Foulkes estimate   =   -3971.57169698 Ry
     estimated scf accuracy    <       1.94727160 Ry

     total magnetization       =     4.87 Bohr mag/cell
     absolute magnetization    =     5.13 Bohr mag/cell

     iteration #  2     ecut=    71.00 Ry     beta= 0.10
     Davidson diagonalization with overlap
     ethr =  8.69E-04,  avg # of iterations =  1.0

     total cpu time spent up to now is       93.2 secs

     total energy              =   -3971.08078476 Ry
     Harris-Foulkes estimate   =   -3971.41158268 Ry
     estimated scf accuracy    <       1.24832155 Ry

     total magnetization       =     4.77 Bohr mag/cell
     absolute magnetization    =     4.97 Bohr mag/cell

     iteration #  3     ecut=    71.00 Ry     beta= 0.10
     Davidson diagonalization with overlap
     ethr =  5.57E-04,  avg # of iterations =  3.1

     total cpu time spent up to now is      126.6 secs

     total energy              =   -3971.37624575 Ry
     Harris-Foulkes estimate   =   -3971.43043875 Ry
     estimated scf accuracy    <       0.30900703 Ry

     total magnetization       =     3.98 Bohr mag/cell
     absolute magnetization    =     4.13 Bohr mag/cell

     iteration #  4     ecut=    71.00 Ry     beta= 0.10
     Davidson diagonalization with overlap
     ethr =  1.38E-04,  avg # of iterations =  1.6

     total cpu time spent up to now is      148.9 secs

     total energy              =   -3971.39215212 Ry
     Harris-Foulkes estimate   =   -3971.38719180 Ry
     estimated scf accuracy    <       0.19990441 Ry

     total magnetization       =     3.85 Bohr mag/cell
     absolute magnetization    =     4.03 Bohr mag/cell

     iteration #  5     ecut=    71.00 Ry     beta= 0.10
     Davidson diagonalization with overlap
     ethr =  8.92E-05,  avg # of iterations =  2.8

     total cpu time spent up to now is      184.6 secs

     total energy              =   -3971.48420271 Ry
     Harris-Foulkes estimate   =   -3971.42999204 Ry
     estimated scf accuracy    <       0.17539166 Ry

     total magnetization       =     2.99 Bohr mag/cell
     absolute magnetization    =     3.22 Bohr mag/cell

     iteration #  6     ecut=    71.00 Ry     beta= 0.10
     Davidson diagonalization with overlap
     ethr =  7.83E-05,  avg # of iterations =  2.1

     total cpu time spent up to now is      215.0 secs

     total energy              =   -3971.53225552 Ry
     Harris-Foulkes estimate   =   -3971.53221802 Ry
     estimated scf accuracy    <       0.01059676 Ry

     total magnetization       =     0.28 Bohr mag/cell
     absolute magnetization    =     0.52 Bohr mag/cell

     iteration #  7     ecut=    71.00 Ry     beta= 0.10
     Davidson diagonalization with overlap
     ethr =  4.73E-06,  avg # of iterations =  5.4

     total cpu time spent up to now is      258.4 secs

     total energy              =   -3971.52977790 Ry
     Harris-Foulkes estimate   =   -3971.53341017 Ry
     estimated scf accuracy    <       0.00894389 Ry

     total magnetization       =     0.18 Bohr mag/cell
     absolute magnetization    =     0.52 Bohr mag/cell

     iteration #  8     ecut=    71.00 Ry     beta= 0.10
     Davidson diagonalization with overlap
     ethr =  3.99E-06,  avg # of iterations =  3.7

     total cpu time spent up to now is      300.7 secs

     total energy              =   -3971.53479687 Ry
     Harris-Foulkes estimate   =   -3971.53364278 Ry
     estimated scf accuracy    <       0.00603341 Ry

     total magnetization       =     0.19 Bohr mag/cell
     absolute magnetization    =     0.43 Bohr mag/cell

     iteration #  9     ecut=    71.00 Ry     beta= 0.10
     Davidson diagonalization with overlap
     ethr =  2.69E-06,  avg # of iterations =  1.4

     total cpu time spent up to now is      322.4 secs

     total energy              =   -3971.53274968 Ry
     Harris-Foulkes estimate   =   -3971.53499582 Ry
     estimated scf accuracy    <       0.00633804 Ry

     total magnetization       =     0.14 Bohr mag/cell
     absolute magnetization    =     0.30 Bohr mag/cell

     iteration # 10     ecut=    71.00 Ry     beta= 0.10
     Davidson diagonalization with overlap
     ethr =  2.69E-06,  avg # of iterations =  2.8

     total cpu time spent up to now is      353.1 secs

     total energy              =   -3971.53360964 Ry
     Harris-Foulkes estimate   =   -3971.53376303 Ry
     estimated scf accuracy    <       0.00013700 Ry

     total magnetization       =     0.06 Bohr mag/cell
     absolute magnetization    =     0.16 Bohr mag/cell

     iteration # 11     ecut=    71.00 Ry     beta= 0.10
     Davidson diagonalization with overlap
     ethr =  6.12E-08,  avg # of iterations =  5.8

     total cpu time spent up to now is      407.2 secs

     total energy              =   -3971.53387614 Ry
     Harris-Foulkes estimate   =   -3971.53367364 Ry
     estimated scf accuracy    <       0.00034689 Ry

     total magnetization       =     0.11 Bohr mag/cell
     absolute magnetization    =     0.23 Bohr mag/cell

     iteration # 12     ecut=    71.00 Ry     beta= 0.10
     Davidson diagonalization with overlap
     ethr =  6.12E-08,  avg # of iterations =  5.1

     total cpu time spent up to now is      461.7 secs

     total energy              =   -3971.53384050 Ry
     Harris-Foulkes estimate   =   -3971.53407162 Ry
     estimated scf accuracy    <       0.00184909 Ry

     total magnetization       =     0.02 Bohr mag/cell
     absolute magnetization    =     0.08 Bohr mag/cell

     iteration # 13     ecut=    71.00 Ry     beta= 0.10
     Davidson diagonalization with overlap
     ethr =  6.12E-08,  avg # of iterations =  4.9

     total cpu time spent up to now is      515.3 secs

     total energy              =   -3971.53397476 Ry
     Harris-Foulkes estimate   =   -3971.53396121 Ry
     estimated scf accuracy    <       0.00001890 Ry

     total magnetization       =     0.03 Bohr mag/cell
     absolute magnetization    =     0.06 Bohr mag/cell

     iteration # 14     ecut=    71.00 Ry     beta= 0.10
     Davidson diagonalization with overlap
     ethr =  8.44E-09,  avg # of iterations =  3.8

     total cpu time spent up to now is      551.5 secs

     total energy              =   -3971.53399086 Ry
     Harris-Foulkes estimate   =   -3971.53398562 Ry
     estimated scf accuracy    <       0.00000905 Ry

     total magnetization       =    -0.01 Bohr mag/cell
     absolute magnetization    =     0.03 Bohr mag/cell

     iteration # 15     ecut=    71.00 Ry     beta= 0.10
     Davidson diagonalization with overlap
     ethr =  4.04E-09,  avg # of iterations =  2.4

     total cpu time spent up to now is      576.4 secs

     total energy              =   -3971.53399509 Ry
     Harris-Foulkes estimate   =   -3971.53399254 Ry
     estimated scf accuracy    <       0.00000754 Ry

     total magnetization       =     0.00 Bohr mag/cell
     absolute magnetization    =     0.03 Bohr mag/cell

     iteration # 16     ecut=    71.00 Ry     beta= 0.10
     Davidson diagonalization with overlap
     ethr =  3.37E-09,  avg # of iterations =  3.5

     total cpu time spent up to now is      607.5 secs

     total energy              =   -3971.53399776 Ry
     Harris-Foulkes estimate   =   -3971.53399671 Ry
     estimated scf accuracy    <       0.00000517 Ry

     total magnetization       =     0.00 Bohr mag/cell
     absolute magnetization    =     0.03 Bohr mag/cell

     iteration # 17     ecut=    71.00 Ry     beta= 0.10
     Davidson diagonalization with overlap
     ethr =  2.31E-09,  avg # of iterations =  2.8
 
     Magnetic moment per site:
     atom:    1    charge:   12.2415    magn:    0.0006    constr:    0.0000
     atom:    2    charge:   12.2413    magn:   -0.0016    constr:    0.0000
     atom:    3    charge:   12.2414    magn:    0.0017    constr:    0.0000
     atom:    4    charge:   12.2413    magn:   -0.0016    constr:    0.0000
     atom:    5    charge:   12.2414    magn:    0.0017    constr:    0.0000
     atom:    6    charge:   12.2413    magn:   -0.0016    constr:    0.0000
     atom:    7    charge:   12.2414    magn:    0.0019    constr:    0.0000
     atom:    8    charge:   12.2413    magn:   -0.0016    constr:    0.0000
     atom:    9    charge:   12.2414    magn:    0.0017    constr:    0.0000
     atom:   10    charge:   12.2413    magn:   -0.0016    constr:    0.0000
     atom:   11    charge:   12.2414    magn:    0.0019    constr:    0.0000
     atom:   12    charge:   12.2413    magn:   -0.0016    constr:    0.0000
     atom:   13    charge:   12.2414    magn:    0.0019    constr:    0.0000
     atom:   14    charge:   12.2413    magn:   -0.0016    constr:    0.0000
     atom:   15    charge:   12.2413    magn:    0.0026    constr:    0.0000
     atom:   16    charge:   12.2413    magn:   -0.0016    constr:    0.0000

     total cpu time spent up to now is      633.6 secs

     End of self-consistent calculation

 ------ SPIN UP ------------


          k = 0.0549 0.0549 0.0549 ( 13037 PWs)   bands (ev):

   -53.0028 -52.8473 -52.8473 -52.8472 -52.8204 -52.8204 -52.8204 -52.8198
   -52.8198 -52.8196 -52.8173 -52.8173 -52.8172 -52.8056 -52.8037 -52.6905
   -24.6546 -24.6545 -24.6545 -24.6503 -24.6503 -24.6502 -24.3972 -24.3972
   -24.3877 -24.3025 -24.2984 -24.2984 -24.2984 -24.2670 -24.2670 -24.2488
   -24.2487 -24.2487 -24.1938 -24.1938 -24.1575 -24.1228 -24.1227 -24.1227
   -24.1072 -24.1072 -24.1071 -24.0852 -24.0852 -24.0852 -24.0803 -24.0802
   -24.0802 -24.0719 -24.0718 -24.0718 -24.0572 -24.0572 -24.0571 -23.8253
   -23.8253 -23.8252 -23.8243 -23.8209 -23.8208 -23.8208 -23.8144 -23.8144
    11.1462  14.5972  14.5972  14.5972  14.6196  14.6196  14.6196  14.7451
    14.7451  14.7451  14.7686  14.7686  15.1882  15.1882  15.1882  16.4662
    16.5424  16.5424  16.5425  16.5576  16.5576  16.5576  16.5654  16.5654
    16.7239  16.7239  16.7778  16.9367  16.9368  16.9368  17.3755  17.3755
    17.3755  18.0181  18.0181  18.0711  18.3493  18.3493  18.3493  18.4630
    18.4630  18.4630  18.5588  18.5589  18.5589  18.6643  18.6643  18.6643
    19.5187  19.5188  19.5188  19.5530  19.5530  19.5530  19.7705  19.7705
    19.7705  19.7993  19.7993  19.7993  19.9927  19.9927  19.9928  20.0162
    20.0162  20.0435  20.0435  20.0435  20.3478  20.3479

          k = 0.0549 0.0549 0.1648 ( 12996 PWs)   bands (ev):

   -52.9973 -52.8750 -52.8460 -52.8459 -52.8234 -52.8233 -52.8196 -52.8194
   -52.8192 -52.8165 -52.8160 -52.8160 -52.8065 -52.8045 -52.7937 -52.6944
   -24.6426 -24.6425 -24.6414 -24.6376 -24.6302 -24.6301 -24.4026 -24.3879
   -24.3734 -24.3561 -24.3418 -24.3418 -24.3391 -24.3377 -24.2941 -24.2941
   -24.2428 -24.2026 -24.1906 -24.1734 -24.1568 -24.1224 -24.1224 -24.1222
   -24.1022 -24.0947 -24.0905 -24.0904 -24.0891 -24.0769 -24.0769 -24.0723
   -24.0723 -24.0679 -24.0678 -24.0222 -24.0195 -24.0194 -24.0085 -23.8473
   -23.8383 -23.8382 -23.8366 -23.8329 -23.8251 -23.8251 -23.8228 -23.8185
    11.2786  14.1837  14.6214  14.6214  14.6899  14.6899  14.7037  14.7248
    14.7894  14.7894  14.8365  14.8424  15.2224  15.2224  15.4615  16.3448
    16.4628  16.4820  16.5077  16.5229  16.5366  16.5975  16.5976  16.6050
    16.6429  16.6429  16.8955  16.8956  16.9317  16.9423  17.2766  17.2766
    17.7830  17.9877  18.0108  18.1118  18.1118  18.1400  18.1877  18.3085
    18.3085  18.3522  18.6554  18.6554  18.7850  18.7850  18.8176  18.9296
    19.0179  19.0180  19.2463  19.2742  19.2742  19.2889  19.4005  19.7774
    19.7775  19.9141  19.9141  19.9268  20.0051  20.0051  20.0161  20.0430
    20.0513  20.0513  20.0520  20.0799  20.3514  20.3770

          k = 0.0549 0.0549 0.2746 ( 12970 PWs)   bands (ev):

   -52.9865 -52.9022 -52.8435 -52.8435 -52.8273 -52.8272 -52.8185 -52.8185
   -52.8177 -52.8155 -52.8154 -52.8149 -52.8081 -52.8060 -52.7694 -52.7022
   -24.6157 -24.6155 -24.6154 -24.6127 -24.5950 -24.5949 -24.4168 -24.4086
   -24.4052 -24.4017 -24.4016 -24.3693 -24.3673 -24.3574 -24.3573 -24.3526
   -24.2222 -24.2194 -24.2050 -24.1936 -24.1264 -24.1194 -24.1194 -24.1124
   -24.1054 -24.0965 -24.0965 -24.0744 -24.0744 -24.0722 -24.0722 -24.0542
   -24.0426 -24.0185 -24.0184 -23.9752 -23.9729 -23.9728 -23.9625 -23.8846
   -23.8600 -23.8599 -23.8591 -23.8570 -23.8393 -23.8382 -23.8381 -23.8324
    11.5387  13.5690  14.6836  14.6836  14.8030  14.8030  14.8477  14.8477
    14.9085  14.9269  14.9710  14.9794  15.2476  15.2476  15.5535  16.1059
    16.1732  16.2303  16.4094  16.4686  16.4886  16.5001  16.7207  16.7207
    16.7956  16.7957  16.9023  16.9024  17.2005  17.2145  17.2145  17.2224
    17.7905  17.7905  17.9660  17.9674  17.9674  17.9999  18.0013  18.0729
    18.2416  18.4373  18.4374  18.4710  18.6429  18.6429  18.8648  18.9020
    18.9447  18.9447  18.9858  18.9858  18.9899  19.1264  19.2501  19.7517
    19.7908  19.7908  19.9073  19.9073  20.0604  20.0783  20.1209  20.1217
    20.1218  20.3275  20.3294  20.3518  20.3581  20.3849

          k = 0.0549 0.0549 0.3845 ( 12981 PWs)   bands (ev):

   -52.9709 -52.9279 -52.8401 -52.8400 -52.8316 -52.8315 -52.8175 -52.8174
   -52.8157 -52.8156 -52.8155 -52.8129 -52.8104 -52.8081 -52.7478 -52.7139
   -24.5782 -24.5766 -24.5748 -24.5748 -24.5472 -24.5472 -24.4763 -24.4729
   -24.4644 -24.4643 -24.4246 -24.4245 -24.4045 -24.3876 -24.3425 -24.3246
   -24.2678 -24.2499 -24.1928 -24.1751 -24.1368 -24.1273 -24.1148 -24.1148
   -24.1028 -24.1028 -24.0730 -24.0730 -24.0720 -24.0720 -24.0597 -23.9922
   -23.9857 -23.9700 -23.9699 -23.9347 -23.9324 -23.9287 -23.9286 -23.9210
   -23.8922 -23.8922 -23.8894 -23.8894 -23.8635 -23.8602 -23.8602 -23.8546
    11.9169  12.9590  14.7664  14.7664  14.8736  14.8736  14.9460  14.9460
    15.1585  15.1697  15.1946  15.2075  15.2075  15.2082  15.4965  15.7433
    15.8839  15.8964  16.3966  16.4172  16.4484  16.4581  16.9066  16.9066
    17.0092  17.0092  17.0531  17.0531  17.2753  17.2753  17.4949  17.4949
    17.5417  17.5631  17.6264  17.6264  17.8852  17.8852  17.9562  17.9919
    18.0009  18.0084  18.0650  18.0651  18.3786  18.4017  18.4041  18.7562
    18.8185  19.2121  19.2121  19.2467  19.2467  19.4815  19.4988  19.6163
    19.6279  19.6279  19.7455  19.7455  20.1208  20.1327  20.2182  20.2626
    20.2664  20.2687  20.3669  20.3867  20.3929  20.4017

          k = 0.0549 0.0549-0.4944 ( 12962 PWs)   bands (ev):

   -52.9513 -52.9509 -52.8361 -52.8361 -52.8358 -52.8357 -52.8166 -52.8166
   -52.8162 -52.8162 -52.8132 -52.8128 -52.8107 -52.8102 -52.7293 -52.7289
   -24.5306 -24.5302 -24.5301 -24.5297 -24.5235 -24.5234 -24.5234 -24.5233
   -24.4893 -24.4892 -24.4892 -24.4892 -24.3992 -24.3989 -24.3085 -24.3081
   -24.2903 -24.2900 -24.1645 -24.1642 -24.1517 -24.1513 -24.1093 -24.1092
   -24.1089 -24.1089 -24.0724 -24.0724 -24.0721 -24.0720 -23.9946 -23.9943
   -23.9379 -23.9375 -23.9350 -23.9346 -23.9264 -23.9264 -23.9264 -23.9263
   -23.8951 -23.8947 -23.8906 -23.8906 -23.8906 -23.8905 -23.8848 -23.8845
    12.3975  12.3980  14.8411  14.8411  14.8414  14.8414  15.0938  15.0938
    15.0940  15.0940  15.3460  15.3463  15.4287  15.4291  15.5357  15.5361
    15.5407  15.5411  16.4135  16.4138  16.4242  16.4245  17.1425  17.1426
    17.1427  17.1427  17.2425  17.2426  17.2427  17.2427  17.4521  17.4522
    17.4524  17.4524  17.6169  17.6169  17.6172  17.6172  17.9456  17.9457
    17.9597  17.9598  17.9648  17.9650  17.9938  17.9941  18.5508  18.5511
    19.1806  19.1809  19.4318  19.4319  19.4319  19.4319  19.5213  19.5213
    19.5213  19.5213  19.8699  19.8701  20.0128  20.0131  20.1907  20.1910
    20.1978  20.1982  20.3387  20.3391  20.3768  20.3789

          k = 0.0549 0.1648 0.1648 ( 12987 PWs)   bands (ev):

   -52.9919 -52.8729 -52.8729 -52.8447 -52.8312 -52.8225 -52.8224 -52.8189
   -52.8153 -52.8152 -52.8100 -52.8077 -52.8050 -52.7940 -52.7940 -52.6982
   -24.6392 -24.6301 -24.6300 -24.6188 -24.6188 -24.6019 -24.4128 -24.3899
   -24.3824 -24.3789 -24.3789 -24.3693 -24.3607 -24.3511 -24.3243 -24.2582
   -24.2373 -24.2373 -24.1865 -24.1721 -24.1720 -24.1313 -24.1167 -24.1167
   -24.1046 -24.1015 -24.1015 -24.0932 -24.0857 -24.0856 -24.0790 -24.0645
   -24.0611 -24.0355 -24.0239 -24.0237 -23.9913 -23.9732 -23.9732 -23.8776
   -23.8599 -23.8473 -23.8473 -23.8364 -23.8363 -23.8297 -23.8204 -23.8149
    11.4091  14.2459  14.2459  14.5881  14.7290  14.7290  14.7940  14.7940
    14.7979  14.8423  14.9033  14.9154  15.2686  15.4976  15.4976  16.2335
    16.3581  16.5043  16.5043  16.5527  16.5748  16.5748  16.6153  16.6153
    16.6219  16.6847  16.7576  16.8360  16.9177  16.9553  17.1676  17.5985
    17.5985  17.9174  17.9638  17.9638  17.9914  18.0134  18.1695  18.2545
    18.5515  18.5515  18.5909  18.6219  18.6219  18.7473  18.8519  18.8519
    18.8614  18.9805  18.9805  19.0225  19.0225  19.1209  19.5055  19.5056
    19.7836  19.9119  19.9407  19.9407  19.9783  20.0098  20.0098  20.0199
    20.0259  20.2129  20.3155  20.3210  20.3210  20.3581

          k = 0.0549 0.1648 0.2746 ( 12979 PWs)   bands (ev):

   -52.9814 -52.8993 -52.8688 -52.8422 -52.8395 -52.8262 -52.8206 -52.8180
   -52.8148 -52.8139 -52.8097 -52.8062 -52.8049 -52.7948 -52.7706 -52.7057
   -24.6204 -24.6054 -24.6045 -24.5966 -24.5859 -24.5598 -24.4345 -24.4333
   -24.4231 -24.4145 -24.4137 -24.4056 -24.3736 -24.3648 -24.3232 -24.3027
   -24.2406 -24.2202 -24.1798 -24.1737 -24.1662 -24.1644 -24.1342 -24.1217
   -24.1190 -24.1094 -24.1014 -24.0836 -24.0825 -24.0657 -24.0537 -24.0388
   -24.0266 -24.0142 -23.9952 -23.9778 -23.9551 -23.9306 -23.9302 -23.9220
   -23.8888 -23.8652 -23.8649 -23.8586 -23.8469 -23.8458 -23.8246 -23.8206
    11.6652  13.6505  14.3495  14.5775  14.7917  14.9061  14.9170  14.9357
    14.9427  14.9930  15.0299  15.0564  15.3156  15.5120  15.5988  16.1065
    16.1294  16.2027  16.4794  16.5350  16.5676  16.5678  16.5802  16.6884
    16.7140  16.7528  16.8062  16.9384  17.0741  17.0903  17.1552  17.4631
    17.6726  17.7858  17.7891  17.8514  17.8713  17.9163  17.9683  18.0988
    18.1958  18.3293  18.4005  18.4763  18.5523  18.6131  18.6216  18.7401
    18.8407  18.9558  18.9814  19.0378  19.0658  19.2409  19.2430  19.6320
    19.7784  19.8209  19.8516  19.9121  19.9489  19.9932  20.0408  20.0777
    20.2476  20.3064  20.3096  20.3367  20.3842  20.3891

          k = 0.0549 0.1648 0.3845 ( 12969 PWs)   bands (ev):

   -52.9662 -52.9243 -52.8630 -52.8479 -52.8388 -52.8305 -52.8182 -52.8169
   -52.8150 -52.8124 -52.8119 -52.8079 -52.8010 -52.7961 -52.7496 -52.7169
   -24.5880 -24.5696 -24.5667 -24.5648 -24.5416 -24.5056 -24.4915 -24.4799
   -24.4710 -24.4671 -24.4309 -24.4290 -24.4219 -24.3731 -24.3385 -24.2901
   -24.2649 -24.2124 -24.2100 -24.1656 -24.1574 -24.1494 -24.1330 -24.1315
   -24.1225 -24.1176 -24.1066 -24.0834 -24.0829 -24.0444 -24.0309 -24.0146
   -23.9834 -23.9771 -23.9680 -23.9553 -23.9361 -23.9247 -23.9198 -23.8921
   -23.8919 -23.8918 -23.8912 -23.8891 -23.8693 -23.8646 -23.8380 -23.8360
    12.0370  13.0570  14.4575  14.5683  14.8732  14.9617  15.0477  15.1139
    15.2079  15.2240  15.2491  15.2675  15.2960  15.4399  15.5497  15.7875
    15.8888  15.9163  16.4360  16.4867  16.4885  16.5149  16.7775  16.8513
    16.8695  16.9002  16.9286  17.0683  17.1757  17.3255  17.3921  17.4544
    17.5310  17.5681  17.6061  17.6477  17.7967  17.8052  17.8315  17.8340
    17.8883  17.9425  17.9595  18.0962  18.1828  18.1838  18.5732  18.9876
    19.0011  19.1762  19.1817  19.2548  19.2611  19.2830  19.4738  19.5591
    19.5637  19.6619  19.7493  19.8000  19.9471  20.0660  20.0968  20.1771
    20.2068  20.2332  20.2417  20.3174  20.3804  20.3831

          k = 0.0549 0.1648-0.4944 ( 12962 PWs)   bands (ev):

   -52.9471 -52.9467 -52.8561 -52.8557 -52.8350 -52.8346 -52.8160 -52.8157
   -52.8155 -52.8151 -52.8101 -52.8097 -52.7983 -52.7979 -52.7318 -52.7314
   -24.5441 -24.5441 -24.5251 -24.5247 -24.5243 -24.5239 -24.5196 -24.5195
   -24.4886 -24.4885 -24.4423 -24.4422 -24.4293 -24.4292 -24.3050 -24.3046
   -24.2524 -24.2522 -24.1808 -24.1805 -24.1463 -24.1459 -24.1452 -24.1449
   -24.1254 -24.1251 -24.0833 -24.0829 -24.0399 -24.0397 -24.0370 -24.0367
   -23.9670 -23.9670 -23.9335 -23.9331 -23.9266 -23.9263 -23.9193 -23.9193
   -23.8998 -23.8994 -23.8893 -23.8892 -23.8606 -23.8606 -23.8603 -23.8601
    12.5083  12.5088  14.5339  14.5342  14.9423  14.9425  15.1923  15.1925
    15.2913  15.2915  15.4006  15.4009  15.4908  15.4912  15.5653  15.5657
    15.5841  15.5845  16.4492  16.4495  16.4772  16.4774  17.0209  17.0211
    17.0363  17.0366  17.0805  17.0806  17.1268  17.1272  17.4987  17.4988
    17.5313  17.5314  17.5972  17.5973  17.7142  17.7144  17.7636  17.7638
    17.7852  17.7853  17.8054  17.8055  17.9176  17.9179  18.7722  18.7724
    19.2859  19.2861  19.3205  19.3205  19.4697  19.4698  19.5270  19.5271
    19.5510  19.5512  19.5725  19.5725  19.9319  19.9322  20.1494  20.1498
    20.1671  20.1675  20.3019  20.3022  20.3783  20.3786

          k = 0.0549 0.2746 0.2746 ( 12969 PWs)   bands (ev):

   -52.9714 -52.8938 -52.8937 -52.8521 -52.8398 -52.8243 -52.8242 -52.8171
   -52.8136 -52.8135 -52.8122 -52.8069 -52.7956 -52.7729 -52.7729 -52.7127
   -24.6101 -24.5832 -24.5832 -24.5687 -24.5686 -24.5114 -24.4564 -24.4559
   -24.4559 -24.4423 -24.4396 -24.4374 -24.4039 -24.3484 -24.2877 -24.2419
   -24.2399 -24.2399 -24.2117 -24.2116 -24.1726 -24.1476 -24.1413 -24.1327
   -24.1326 -24.1135 -24.1135 -24.1001 -24.1001 -24.0928 -24.0346 -24.0032
   -23.9836 -23.9834 -23.9799 -23.9741 -23.9649 -23.9312 -23.9240 -23.8929
   -23.8929 -23.8756 -23.8756 -23.8643 -23.8642 -23.8604 -23.8196 -23.8159
    11.9130  13.7989  13.7989  14.4695  14.9985  14.9985  15.0253  15.1011
    15.1018  15.1018  15.1387  15.2065  15.4091  15.6212  15.6212  16.0369
    16.1131  16.2384  16.2384  16.5420  16.6261  16.6324  16.6324  16.6803
    16.6803  16.7075  16.7740  16.9313  17.0337  17.1333  17.1458  17.5577
    17.5577  17.6768  17.6769  17.6783  17.6906  17.7331  17.7801  17.9246
    18.1235  18.1235  18.1853  18.1853  18.3284  18.4724  18.4725  18.5981
    19.0533  19.0534  19.1247  19.1699  19.2081  19.2081  19.4686  19.5789
    19.5791  19.7723  19.8823  19.8823  19.9233  19.9426  19.9426  19.9586
    20.0470  20.2527  20.2565  20.2598  20.3805  20.3912

          k = 0.0549 0.2746 0.3845 ( 12960 PWs)   bands (ev):

   -52.9570 -52.9173 -52.8857 -52.8644 -52.8365 -52.8284 -52.8216 -52.8159
   -52.8153 -52.8138 -52.8118 -52.8083 -52.7878 -52.7765 -52.7534 -52.7230
   -24.5862 -24.5526 -24.5512 -24.5443 -24.5312 -24.5061 -24.4848 -24.4746
   -24.4742 -24.4658 -24.4573 -24.4517 -24.4439 -24.3236 -24.3121 -24.2539
   -24.2483 -24.2238 -24.1986 -24.1720 -24.1627 -24.1627 -24.1609 -24.1604
   -24.1531 -24.1430 -24.1213 -24.1004 -24.0987 -24.0613 -24.0356 -24.0180
   -23.9923 -23.9653 -23.9620 -23.9462 -23.9445 -23.9357 -23.9081 -23.8927
   -23.8908 -23.8899 -23.8822 -23.8741 -23.8611 -23.8611 -23.8239 -23.8215
    12.2712  13.2428  13.9862  14.3400  15.0754  15.1135  15.2386  15.2691
    15.2839  15.2884  15.3670  15.4122  15.4440  15.5587  15.5862  15.9023
    15.9173  15.9323  16.4850  16.5120  16.5635  16.5685  16.6013  16.7164
    16.7586  16.8000  16.8700  16.8968  17.1990  17.2526  17.2961  17.3027
    17.4180  17.5302  17.5498  17.6039  17.6260  17.6381  17.7185  17.7602
    17.7627  17.8382  17.8520  17.8735  17.9786  18.0928  18.7958  18.8176
    19.1989  19.2312  19.3139  19.3306  19.3442  19.3562  19.3564  19.4341
    19.5564  19.6481  19.7333  19.7846  19.8180  19.9311  19.9698  20.0052
    20.0766  20.1118  20.1698  20.1777  20.2883  20.3850

          k = 0.0549 0.2746-0.4944 ( 12958 PWs)   bands (ev):

   -52.9389 -52.9385 -52.8760 -52.8756 -52.8328 -52.8324 -52.8187 -52.8183
   -52.8150 -52.8146 -52.8102 -52.8098 -52.7816 -52.7812 -52.7369 -52.7365
   -24.5506 -24.5506 -24.5156 -24.5153 -24.5153 -24.5149 -24.5134 -24.5133
   -24.4883 -24.4882 -24.4658 -24.4658 -24.3841 -24.3841 -24.2919 -24.2915
   -24.2058 -24.2057 -24.1950 -24.1948 -24.1822 -24.1818 -24.1509 -24.1506
   -24.1431 -24.1429 -24.1025 -24.1025 -24.1007 -24.1005 -24.0113 -24.0113
   -24.0040 -24.0036 -23.9232 -23.9229 -23.9167 -23.9164 -23.9108 -23.9108
   -23.9106 -23.9102 -23.8888 -23.8887 -23.8377 -23.8377 -23.8369 -23.8369
    12.7224  12.7228  14.1762  14.1765  15.1283  15.1285  15.3717  15.3719
    15.4298  15.4300  15.4538  15.4542  15.6116  15.6119  15.6564  15.6568
    15.6582  15.6585  16.5185  16.5187  16.5483  16.5485  16.8169  16.8172
    16.8396  16.8399  16.8525  16.8528  17.0762  17.0763  17.4936  17.4937
    17.5103  17.5104  17.5191  17.5192  17.5602  17.5603  17.5749  17.5750
    17.7259  17.7260  17.7344  17.7345  17.8204  17.8206  19.0558  19.0559
    19.1613  19.1614  19.2378  19.2378  19.4496  19.4499  19.5533  19.5534
    19.5775  19.5777  19.6201  19.6202  19.7347  19.7349  20.0705  20.0708
    20.0886  20.0890  20.2349  20.2353  20.2672  20.2672

          k = 0.0549 0.3845 0.3845 ( 12953 PWs)   bands (ev):

   -52.9437 -52.9073 -52.9073 -52.8802 -52.8333 -52.8255 -52.8255 -52.8186
   -52.8147 -52.8124 -52.8123 -52.8093 -52.7763 -52.7591 -52.7590 -52.7322
   -24.5711 -24.5304 -24.5303 -24.5181 -24.5180 -24.5081 -24.5081 -24.4929
   -24.4876 -24.4873 -24.4817 -24.4642 -24.3880 -24.3008 -24.2442 -24.2442
   -24.2372 -24.2371 -24.2198 -24.2033 -24.1905 -24.1731 -24.1731 -24.1696
   -24.1539 -24.1212 -24.1212 -24.1116 -24.1089 -24.1089 -24.1021 -24.0101
   -23.9943 -23.9572 -23.9570 -23.9358 -23.9254 -23.9181 -23.9014 -23.8981
   -23.8967 -23.8966 -23.8895 -23.8894 -23.8374 -23.8373 -23.8186 -23.8169
    12.6068  13.4954  13.4955  14.0754  15.2722  15.3461  15.3461  15.3931
    15.4031  15.4881  15.4881  15.5684  15.5684  15.5744  15.6373  15.8411
    15.8770  16.1905  16.1906  16.5562  16.5777  16.6098  16.6572  16.6572
    16.6676  16.6676  16.7418  16.8891  16.9851  17.1351  17.2467  17.3206
    17.3207  17.4245  17.4943  17.5012  17.5156  17.5156  17.5476  17.5476
    17.6868  17.6868  17.6979  17.8009  17.8119  18.4045  18.4046  19.0818
    19.1510  19.2418  19.3063  19.3063  19.4770  19.4770  19.4993  19.5079
    19.6464  19.6466  19.6913  19.7856  19.8043  19.8373  19.8373  19.8627
    19.8627  20.0741  20.0810  20.0821  20.1944  20.3014

          k = 0.0549 0.3845-0.4944 ( 12942 PWs)   bands (ev):

   -52.9271 -52.9267 -52.8949 -52.8945 -52.8297 -52.8293 -52.8223 -52.8220
   -52.8136 -52.8132 -52.8110 -52.8105 -52.7669 -52.7665 -52.7444 -52.7440
   -24.5443 -24.5442 -24.5076 -24.5074 -24.5073 -24.5071 -24.5046 -24.5044
   -24.4995 -24.4995 -24.4901 -24.4899 -24.3176 -24.3176 -24.2718 -24.2715
   -24.2159 -24.2156 -24.2011 -24.2010 -24.1765 -24.1764 -24.1730 -24.1729
   -24.1566 -24.1566 -24.1404 -24.1403 -24.1188 -24.1187 -24.0583 -24.0583
   -23.9741 -23.9737 -23.9268 -23.9264 -23.9106 -23.9103 -23.9083 -23.9081
   -23.9048 -23.9047 -23.8917 -23.8916 -23.8231 -23.8230 -23.8222 -23.8222
    13.0238  13.0243  13.7844  13.7848  15.3585  15.3587  15.4985  15.4989
    15.5053  15.5056  15.5846  15.5848  15.6317  15.6320  15.7330  15.7332
    15.9033  15.9037  16.5217  16.5220  16.5819  16.5820  16.5825  16.5827
    16.6388  16.6391  16.7017  16.7019  17.1288  17.1289  17.2776  17.2777
    17.3641  17.3642  17.3706  17.3707  17.3859  17.3860  17.4325  17.4325
    17.7012  17.7013  17.7386  17.7388  18.0326  18.0327  18.7608  18.7608
    19.2333  19.2334  19.3580  19.3580  19.5116  19.5118  19.6160  19.6162
    19.6776  19.6778  19.6851  19.6851  19.6853  19.6853  19.9574  19.9577
    19.9689  19.9692  19.9789  19.9790  20.1586  20.1590

          k = 0.0549-0.4944-0.4944 ( 12940 PWs)   bands (ev):

   -52.9123 -52.9121 -52.9119 -52.9117 -52.8262 -52.8260 -52.8259 -52.8256
   -52.8123 -52.8121 -52.8119 -52.8117 -52.7546 -52.7544 -52.7542 -52.7539
   -24.5266 -24.5266 -24.5266 -24.5266 -24.5047 -24.5046 -24.5045 -24.5043
   -24.4956 -24.4955 -24.4953 -24.4952 -24.2464 -24.2462 -24.2460 -24.2459
   -24.2458 -24.2458 -24.2458 -24.2456 -24.1948 -24.1948 -24.1948 -24.1948
   -24.1327 -24.1327 -24.1327 -24.1326 -24.1072 -24.1071 -24.1071 -24.1071
   -23.9483 -23.9482 -23.9480 -23.9477 -23.9041 -23.9040 -23.9040 -23.9039
   -23.8992 -23.8991 -23.8990 -23.8989 -23.8176 -23.8176 -23.8176 -23.8176
    13.3884  13.3885  13.3889  13.3890  15.5227  15.5228  15.5230  15.5231
    15.5537  15.5538  15.5540  15.5540  15.7312  15.7313  15.7315  15.7315
    16.2008  16.2010  16.2012  16.2013  16.5665  16.5666  16.5668  16.5668
    16.6176  16.6177  16.6178  16.6179  17.2342  17.2342  17.2342  17.2342
    17.2524  17.2525  17.2525  17.2526  17.3417  17.3418  17.3418  17.3418
    17.6971  17.6972  17.6973  17.6974  18.3787  18.3787  18.3788  18.3788
    19.3293  19.3294  19.3295  19.3296  19.6620  19.6620  19.6621  19.6621
    19.7173  19.7174  19.7175  19.7176  19.8204  19.8205  19.8206  19.8208
    19.8258  19.8260  19.8261  19.8263  20.1321  20.1324

          k = 0.1648 0.1648 0.1648 ( 12995 PWs)   bands (ev):

   -52.9867 -52.8709 -52.8709 -52.8708 -52.8301 -52.8301 -52.8300 -52.8102
   -52.8094 -52.8094 -52.8093 -52.8043 -52.7944 -52.7943 -52.7943 -52.7019
   -24.6263 -24.6262 -24.6262 -24.5928 -24.5928 -24.5927 -24.4197 -24.4033
   -24.4033 -24.4033 -24.4032 -24.4032 -24.3292 -24.3292 -24.3230 -24.2697
   -24.2697 -24.2697 -24.1835 -24.1834 -24.1834 -24.1184 -24.1184 -24.1184
   -24.1161 -24.1161 -24.0812 -24.0812 -24.0811 -24.0717 -24.0717 -24.0717
   -24.0281 -24.0280 -24.0280 -24.0240 -23.9496 -23.9496 -23.9495 -23.9083
   -23.8649 -23.8649 -23.8648 -23.8324 -23.8323 -23.8323 -23.8238 -23.8238
    11.5379  14.3141  14.3141  14.3141  14.6993  14.6993  14.6993  14.8993
    14.8993  14.8993  14.9785  14.9785  15.5494  15.5494  15.5494  16.1399
    16.4711  16.4711  16.4816  16.4816  16.4816  16.5993  16.5993  16.5994
    16.7190  16.7191  16.7191  16.8050  16.8686  16.8686  17.4372  17.4373
    17.4373  17.8763  17.8763  17.8763  17.9008  17.9008  18.3436  18.3437
    18.3437  18.3823  18.4801  18.4801  18.4801  18.7515  18.7515  18.7515
    18.8359  18.8359  18.8359  19.0688  19.0688  19.0688  19.7293  19.7295
    19.7295  19.8270  19.8270  19.8270  19.9535  19.9535  20.0131  20.0131
    20.0131  20.3195  20.3196  20.3196  20.3605  20.3616

          k = 0.1648 0.1648 0.2746 ( 12982 PWs)   bands (ev):

   -52.9764 -52.8965 -52.8669 -52.8668 -52.8382 -52.8381 -52.8278 -52.8134
   -52.8084 -52.8046 -52.8046 -52.8042 -52.7950 -52.7950 -52.7716 -52.7091
   -24.6082 -24.6081 -24.6009 -24.5747 -24.5535 -24.5534 -24.4514 -24.4438
   -24.4438 -24.4260 -24.4212 -24.3975 -24.3846 -24.3219 -24.3219 -24.2944
   -24.2900 -24.2335 -24.2077 -24.1857 -24.1856 -24.1438 -24.1359 -24.1359
   -24.1268 -24.1266 -24.0841 -24.0599 -24.0598 -24.0496 -24.0376 -24.0375
   -24.0323 -24.0323 -23.9856 -23.9800 -23.9545 -23.9186 -23.9185 -23.9120
   -23.8890 -23.8889 -23.8760 -23.8558 -23.8405 -23.8356 -23.8355 -23.8244
    11.7906  13.7357  14.4292  14.4292  14.6913  14.6913  14.9138  15.0426
    15.0427  15.0921  15.1034  15.1181  15.5911  15.5911  15.6637  16.0509
    16.1332  16.3119  16.4349  16.5095  16.5095  16.5593  16.6538  16.6866
    16.6866  16.7049  16.8781  16.8781  16.9107  17.1023  17.2867  17.2867
    17.6156  17.6732  17.6732  17.7738  17.8097  17.8703  18.0280  18.0280
    18.0565  18.0566  18.2705  18.3915  18.3915  18.4178  18.5525  18.5596
    18.8851  19.0097  19.0097  19.1710  19.1710  19.3498  19.4692  19.6907
    19.6907  19.8127  19.9054  19.9444  19.9444  19.9788  20.0319  20.0389
    20.0389  20.0391  20.2998  20.3054  20.3269  20.3587

          k = 0.1648 0.1648 0.3845 ( 12942 PWs)   bands (ev):

   -52.9616 -52.9208 -52.8612 -52.8611 -52.8464 -52.8463 -52.8247 -52.8172
   -52.8072 -52.8048 -52.8009 -52.8008 -52.7962 -52.7962 -52.7514 -52.7199
   -24.5777 -24.5776 -24.5640 -24.5493 -24.5032 -24.5031 -24.4910 -24.4909
   -24.4849 -24.4606 -24.4378 -24.4338 -24.3829 -24.3828 -24.3569 -24.2803
   -24.2561 -24.2534 -24.1795 -24.1795 -24.1777 -24.1712 -24.1527 -24.1527
   -24.1412 -24.1255 -24.0999 -24.0501 -24.0501 -24.0369 -24.0369 -24.0111
   -23.9943 -23.9942 -23.9885 -23.9495 -23.9362 -23.9187 -23.9187 -23.8938
   -23.8904 -23.8887 -23.8886 -23.8792 -23.8653 -23.8461 -23.8460 -23.8344
    12.1568  13.1571  14.5519  14.5519  14.6816  14.6816  15.2138  15.2138
    15.2150  15.2870  15.2991  15.3540  15.5367  15.5367  15.6262  15.8099
    15.8984  15.9621  16.4366  16.5109  16.5696  16.5835  16.6849  16.6849
    16.8293  16.8293  17.0561  17.0562  17.1730  17.1730  17.2001  17.3783
    17.5225  17.5225  17.5949  17.5949  17.7173  17.7175  17.7418  17.7543
    17.7543  17.8298  17.9353  17.9353  17.9774  17.9916  18.7492  18.8409
    19.1115  19.2120  19.2833  19.2833  19.3011  19.3011  19.5478  19.5478
    19.5759  19.6127  19.6879  19.7946  19.7946  20.0056  20.0925  20.1398
    20.2149  20.2360  20.3223  20.3223  20.3359  20.3527

          k = 0.1648 0.1648-0.4944 ( 12998 PWs)   bands (ev):

   -52.9430 -52.9426 -52.8544 -52.8544 -52.8540 -52.8539 -52.8212 -52.8209
   -52.8061 -52.8057 -52.7983 -52.7983 -52.7980 -52.7978 -52.7342 -52.7339
   -24.5375 -24.5374 -24.5374 -24.5374 -24.5189 -24.5185 -24.5170 -24.5166
   -24.4451 -24.4450 -24.4450 -24.4450 -24.4401 -24.4400 -24.3221 -24.3217
   -24.2165 -24.2162 -24.2138 -24.2136 -24.1680 -24.1680 -24.1677 -24.1677
   -24.1154 -24.1151 -24.0745 -24.0745 -24.0429 -24.0428 -24.0425 -24.0425
   -23.9542 -23.9542 -23.9541 -23.9541 -23.9353 -23.9349 -23.9187 -23.9184
   -23.8978 -23.8975 -23.8642 -23.8642 -23.8641 -23.8641 -23.8531 -23.8531
    12.6198  12.6203  14.6409  14.6409  14.6411  14.6411  15.3916  15.3916
    15.3918  15.3918  15.4850  15.4853  15.5245  15.5249  15.5768  15.5773
    15.6451  15.6455  16.4657  16.4660  16.5393  16.5396  16.9800  16.9800
    16.9804  16.9804  17.0091  17.0091  17.0093  17.0093  17.5006  17.5006
    17.5007  17.5007  17.5635  17.5636  17.6127  17.6127  17.6128  17.6128
    17.6826  17.6828  17.7083  17.7083  17.7809  17.7812  18.9698  18.9700
    19.1866  19.1867  19.3695  19.3698  19.4096  19.4096  19.4097  19.4097
    19.5728  19.5729  19.5729  19.5730  20.0641  20.0644  20.1130  20.1134
    20.1614  20.1618  20.2694  20.2698  20.3447  20.3451

          k = 0.1648 0.2746 0.2746 ( 12976 PWs)   bands (ev):

   -52.9667 -52.8911 -52.8910 -52.8630 -52.8504 -52.8355 -52.8355 -52.8178
   -52.8041 -52.8040 -52.8030 -52.7957 -52.7955 -52.7739 -52.7738 -52.7158
   -24.5977 -24.5844 -24.5843 -24.5414 -24.5413 -24.5084 -24.4688 -24.4633
   -24.4611 -24.4611 -24.4323 -24.4109 -24.3801 -24.3569 -24.3105 -24.2620
   -24.2620 -24.2518 -24.2353 -24.2352 -24.2023 -24.1660 -24.1660 -24.1623
   -24.1048 -24.0812 -24.0812 -24.0704 -24.0704 -24.0396 -24.0385 -24.0242
   -24.0043 -24.0021 -23.9851 -23.9850 -23.9571 -23.9185 -23.9015 -23.8916
   -23.8915 -23.8864 -23.8864 -23.8570 -23.8569 -23.8511 -23.8312 -23.8250
    12.0359  13.8915  13.8915  14.5677  14.5876  14.9108  14.9109  15.2003
    15.2184  15.2313  15.2313  15.2602  15.6967  15.7165  15.7166  16.0153
    16.2108  16.2108  16.2496  16.4570  16.4984  16.6378  16.6379  16.7463
    16.7487  16.7778  16.7779  16.7819  17.0575  17.0755  17.1176  17.4277
    17.4277  17.5588  17.6046  17.6046  17.6443  17.7049  17.8013  17.8491
    17.8886  17.8886  18.0426  18.0426  18.1081  18.2284  18.2285  18.7600
    19.1257  19.1257  19.1687  19.3069  19.3820  19.3820  19.5578  19.5735
    19.7911  19.7911  19.7947  19.7948  19.8191  19.9270  19.9702  19.9702
    19.9995  20.2624  20.2636  20.2653  20.2702  20.3400

          k = 0.1648 0.2746 0.3845 ( 12966 PWs)   bands (ev):

   -52.9526 -52.9140 -52.8832 -52.8623 -52.8575 -52.8433 -52.8318 -52.8226
   -52.8034 -52.8026 -52.8006 -52.7966 -52.7881 -52.7772 -52.7550 -52.7257
   -24.5748 -24.5579 -24.5498 -24.5250 -24.5020 -24.4991 -24.4919 -24.4871
   -24.4669 -24.4569 -24.4530 -24.4496 -24.4019 -24.3561 -24.3252 -24.2845
   -24.2814 -24.2260 -24.2112 -24.2073 -24.2044 -24.1964 -24.1872 -24.1859
   -24.1254 -24.1009 -24.0831 -24.0637 -24.0601 -24.0458 -24.0356 -24.0202
   -23.9936 -23.9761 -23.9676 -23.9533 -23.9421 -23.9320 -23.9117 -23.8988
   -23.8886 -23.8848 -23.8740 -23.8630 -23.8621 -23.8601 -23.8342 -23.8290
    12.3900  13.3468  14.0888  14.4583  14.7225  14.8986  15.2192  15.3698
    15.3731  15.4007  15.4569  15.4830  15.6642  15.6886  15.7041  15.9315
    15.9382  15.9673  16.4441  16.4950  16.5436  16.5791  16.6410  16.6714
    16.7591  16.8633  16.8808  16.9699  16.9998  17.1680  17.2278  17.2381
    17.3468  17.4264  17.4915  17.5161  17.5366  17.6019  17.6141  17.6271
    17.6571  17.6676  17.6926  17.7397  17.7928  17.8981  18.4678  18.9942
    19.1646  19.3040  19.3770  19.3895  19.3920  19.4357  19.4522  19.5205
    19.6653  19.6759  19.6952  19.8243  19.8255  19.9237  20.0285  20.0801
    20.1265  20.1748  20.1907  20.2783  20.3370  20.3376

          k = 0.1648 0.2746-0.4944 ( 12968 PWs)   bands (ev):

   -52.9350 -52.9346 -52.8737 -52.8733 -52.8510 -52.8506 -52.8276 -52.8272
   -52.8030 -52.8026 -52.7984 -52.7980 -52.7822 -52.7818 -52.7391 -52.7387
   -24.5416 -24.5415 -24.5255 -24.5254 -24.5065 -24.5065 -24.5062 -24.5061
   -24.4624 -24.4623 -24.4512 -24.4510 -24.3906 -24.3906 -24.3225 -24.3221
   -24.2458 -24.2456 -24.2091 -24.2088 -24.2009 -24.2006 -24.1690 -24.1689
   -24.1290 -24.1290 -24.0943 -24.0941 -24.0524 -24.0522 -24.0053 -24.0050
   -23.9925 -23.9924 -23.9372 -23.9371 -23.9291 -23.9287 -23.9125 -23.9123
   -23.9050 -23.9046 -23.8714 -23.8714 -23.8450 -23.8450 -23.8407 -23.8407
    12.8351  12.8356  14.2887  14.2890  14.8415  14.8418  15.5334  15.5336
    15.5486  15.5490  15.5765  15.5766  15.5876  15.5880  15.6821  15.6825
    15.7469  15.7472  16.5249  16.5251  16.6052  16.6054  16.7739  16.7742
    16.7926  16.7930  16.8933  16.8935  17.0292  17.0293  17.2880  17.2881
    17.4346  17.4347  17.4577  17.4577  17.4645  17.4646  17.5313  17.5313
    17.5783  17.5784  17.5899  17.5900  17.6743  17.6745  18.7859  18.7860
    19.2479  19.2480  19.3917  19.3918  19.5091  19.5094  19.5564  19.5564
    19.6235  19.6237  19.6333  19.6334  20.0007  20.0009  20.0562  20.0565
    20.1065  20.1069  20.2102  20.2105  20.3147  20.3150

          k = 0.1648 0.3845 0.3845 ( 12953 PWs)   bands (ev):

   -52.9397 -52.9042 -52.9042 -52.8778 -52.8524 -52.8391 -52.8391 -52.8284
   -52.8013 -52.8005 -52.8004 -52.7973 -52.7770 -52.7605 -52.7604 -52.7345
   -24.5592 -24.5306 -24.5305 -24.5011 -24.5011 -24.4981 -24.4946 -24.4945
   -24.4885 -24.4711 -24.4706 -24.4289 -24.3935 -24.3371 -24.2852 -24.2691
   -24.2689 -24.2609 -24.2608 -24.2275 -24.2245 -24.2245 -24.2191 -24.1674
   -24.1261 -24.0895 -24.0788 -24.0788 -24.0714 -24.0714 -24.0548 -23.9938
   -23.9917 -23.9544 -23.9543 -23.9481 -23.9427 -23.9183 -23.9080 -23.9080
   -23.8935 -23.8858 -23.8857 -23.8827 -23.8433 -23.8433 -23.8296 -23.8264
    12.7240  13.6050  13.6051  14.1944  14.9279  15.1978  15.1978  15.4822
    15.5058  15.6431  15.6432  15.6731  15.6731  15.6767  15.8307  15.8451
    15.9636  16.1901  16.1901  16.4645  16.5619  16.6213  16.6772  16.6772
    16.7079  16.7079  16.8627  16.8816  16.9019  16.9517  17.1947  17.2744
    17.2745  17.2932  17.3626  17.3626  17.4267  17.4267  17.4586  17.4821
    17.5061  17.5427  17.5427  17.6342  17.6624  18.1076  18.1077  18.7612
    19.2668  19.4157  19.5171  19.5171  19.5483  19.5571  19.5571  19.5886
    19.7353  19.8201  19.8282  19.8283  19.8580  19.8581  19.8994  19.8995
    20.0576  20.0961  20.1008  20.1035  20.1949  20.2913

          k = 0.1648 0.3845-0.4944 ( 12948 PWs)   bands (ev):

   -52.9235 -52.9231 -52.8921 -52.8917 -52.8463 -52.8459 -52.8342 -52.8338
   -52.8008 -52.8004 -52.7987 -52.7983 -52.7680 -52.7676 -52.7463 -52.7459
   -24.5336 -24.5336 -24.5115 -24.5114 -24.4992 -24.4988 -24.4910 -24.4907
   -24.4899 -24.4899 -24.4611 -24.4610 -24.3281 -24.3281 -24.3069 -24.3066
   -24.2610 -24.2609 -24.2474 -24.2471 -24.2337 -24.2336 -24.1931 -24.1931
   -24.1231 -24.1230 -24.0816 -24.0814 -24.0628 -24.0627 -24.0339 -24.0339
   -23.9719 -23.9715 -23.9226 -23.9225 -23.9208 -23.9204 -23.9157 -23.9154
   -23.9102 -23.9100 -23.8833 -23.8832 -23.8327 -23.8327 -23.8309 -23.8309
    13.1381  13.1386  13.8998  13.9002  15.1036  15.1039  15.5366  15.5370
    15.5952  15.5956  15.6095  15.6098  15.7997  15.7999  15.8692  15.8695
    15.9292  15.9296  16.5215  16.5219  16.5834  16.5837  16.6011  16.6011
    16.6064  16.6065  16.7715  16.7717  17.0807  17.0807  17.0908  17.0909
    17.2318  17.2320  17.2920  17.2922  17.3474  17.3475  17.3724  17.3725
    17.5431  17.5432  17.5938  17.5940  17.7826  17.7827  18.3995  18.3995
    19.4557  19.4558  19.5498  19.5498  19.6634  19.6636  19.7082  19.7084
    19.7190  19.7191  19.7294  19.7297  19.8114  19.8116  19.9758  19.9761
    19.9990  19.9993  20.1429  20.1432  20.1767  20.1768

          k = 0.1648-0.4944-0.4944 ( 12892 PWs)   bands (ev):

   -52.9091 -52.9088 -52.9087 -52.9084 -52.8407 -52.8405 -52.8403 -52.8400
   -52.7995 -52.7993 -52.7992 -52.7989 -52.7561 -52.7559 -52.7557 -52.7555
   -24.5153 -24.5153 -24.5153 -24.5153 -24.5009 -24.5008 -24.5007 -24.5005
   -24.4749 -24.4748 -24.4747 -24.4746 -24.2808 -24.2807 -24.2805 -24.2803
   -24.2609 -24.2609 -24.2609 -24.2609 -24.2562 -24.2562 -24.2561 -24.2561
   -24.0777 -24.0777 -24.0777 -24.0776 -24.0721 -24.0721 -24.0721 -24.0721
   -23.9435 -23.9433 -23.9432 -23.9429 -23.9134 -23.9134 -23.9133 -23.9132
   -23.8990 -23.8989 -23.8988 -23.8987 -23.8277 -23.8277 -23.8277 -23.8276
    13.5040  13.5041  13.5045  13.5046  15.3646  15.3647  15.3649  15.3650
    15.6236  15.6237  15.6239  15.6240  15.9316  15.9317  15.9318  15.9318
    16.2203  16.2205  16.2207  16.2208  16.5198  16.5199  16.5201  16.5202
    16.6790  16.6790  16.6791  16.6792  17.0765  17.0766  17.0766  17.0767
    17.1973  17.1973  17.1974  17.1974  17.2863  17.2863  17.2864  17.2864
    17.5457  17.5458  17.5459  17.5460  18.0576  18.0576  18.0576  18.0577
    19.6066  19.6067  19.6068  19.6068  19.7343  19.7344  19.7345  19.7346
    19.8640  19.8642  19.8642  19.8642  19.8643  19.8644  19.8646  19.8646
    19.8857  19.8857  19.8858  19.8858  20.1238  20.1241

          k = 0.2746 0.2746 0.2746 ( 12965 PWs)   bands (ev):

   -52.9575 -52.8858 -52.8858 -52.8857 -52.8471 -52.8471 -52.8470 -52.8241
   -52.8001 -52.7957 -52.7957 -52.7956 -52.7758 -52.7758 -52.7757 -52.7220
   -24.5734 -24.5733 -24.5733 -24.5032 -24.5032 -24.5031 -24.4770 -24.4741
   -24.4741 -24.4741 -24.4126 -24.4126 -24.3765 -24.3765 -24.3008 -24.3008
   -24.3008 -24.2548 -24.2547 -24.2547 -24.2105 -24.1983 -24.1983 -24.1983
   -24.0522 -24.0448 -24.0448 -24.0448 -24.0414 -24.0414 -24.0414 -24.0405
   -24.0405 -23.9891 -23.9890 -23.9890 -23.9369 -23.9119 -23.9119 -23.9118
   -23.8767 -23.8767 -23.8766 -23.8540 -23.8539 -23.8539 -23.8428 -23.8428
    12.2760  14.0623  14.0623  14.0623  14.8166  14.8166  14.8166  15.3657
    15.3657  15.3871  15.3871  15.3871  15.8569  15.8569  15.8569  16.0286
    16.1971  16.1971  16.1971  16.3715  16.4931  16.4931  16.6963  16.6963
    16.6964  16.9030  16.9030  16.9135  16.9135  16.9135  17.2667  17.2667
    17.2667  17.4634  17.4634  17.4634  17.5524  17.5524  17.5524  17.6517
    17.6517  17.7681  17.7681  17.7682  17.9297  17.9298  17.9298  18.9922
    19.1493  19.2843  19.2843  19.2843  19.5274  19.5274  19.5274  19.7071
    19.7071  19.7072  19.9070  19.9070  19.9603  19.9603  19.9604  20.0908
    20.0909  20.0909  20.2697  20.2697  20.2728  20.2738

          k = 0.2746 0.2746 0.3845 ( 12962 PWs)   bands (ev):

   -52.9441 -52.9075 -52.8784 -52.8783 -52.8585 -52.8584 -52.8424 -52.8305
   -52.7980 -52.7960 -52.7888 -52.7887 -52.7789 -52.7788 -52.7583 -52.7312
   -24.5522 -24.5521 -24.5376 -24.4967 -24.4967 -24.4964 -24.4835 -24.4732
   -24.4559 -24.4559 -24.4403 -24.4375 -24.3838 -24.3500 -24.3500 -24.3351
   -24.3036 -24.2593 -24.2592 -24.2424 -24.2387 -24.2269 -24.2269 -24.1681
   -24.1103 -24.0829 -24.0508 -24.0505 -24.0237 -24.0237 -24.0029 -24.0029
   -23.9961 -23.9961 -23.9818 -23.9428 -23.9374 -23.9374 -23.9216 -23.9089
   -23.8871 -23.8687 -23.8668 -23.8667 -23.8578 -23.8546 -23.8546 -23.8404
    12.6213  13.5446  14.2809  14.2810  14.6868  14.6868  15.1416  15.5194
    15.5548  15.5597  15.5597  15.6338  15.8610  15.8610  15.8641  15.9449
    15.9726  16.0187  16.3640  16.3640  16.5203  16.6339  16.7163  16.7253
    16.7614  16.8031  16.8032  16.9896  16.9896  17.0773  17.1076  17.1076
    17.2668  17.2668  17.3450  17.3451  17.3877  17.3962  17.4194  17.4222
    17.5006  17.5007  17.5253  17.5786  17.6433  17.6434  18.0943  18.7359
    19.2553  19.4431  19.4883  19.4883  19.5904  19.5904  19.6437  19.6438
    19.7753  19.8172  19.8292  19.8656  19.8657  19.8804  20.0225  20.0257
    20.1903  20.1911  20.2737  20.2738  20.2757  20.2789

          k = 0.2746 0.2746-0.4944 ( 12986 PWs)   bands (ev):

   -52.9274 -52.9270 -52.8692 -52.8692 -52.8689 -52.8688 -52.8370 -52.8366
   -52.7969 -52.7965 -52.7834 -52.7834 -52.7830 -52.7829 -52.7435 -52.7431
   -24.5249 -24.5248 -24.5248 -24.5248 -24.4921 -24.4917 -24.4899 -24.4897
   -24.4613 -24.4612 -24.4036 -24.4035 -24.4034 -24.4034 -24.3473 -24.3469
   -24.2897 -24.2895 -24.2488 -24.2488 -24.2486 -24.2486 -24.1739 -24.1739
   -24.1254 -24.1252 -24.0539 -24.0536 -24.0077 -24.0077 -24.0075 -24.0074
   -23.9680 -23.9679 -23.9678 -23.9678 -23.9304 -23.9300 -23.9122 -23.9120
   -23.9026 -23.9022 -23.8591 -23.8590 -23.8590 -23.8590 -23.8454 -23.8454
    13.0527  13.0532  14.5031  14.5031  14.5034  14.5034  15.5383  15.5387
    15.7151  15.7155  15.7296  15.7296  15.7298  15.7298  15.7417  15.7420
    15.8804  15.8807  16.5709  16.5712  16.6646  16.6647  16.6914  16.6914
    16.6917  16.6918  16.9472  16.9472  16.9474  16.9474  17.0399  17.0401
    17.2554  17.2557  17.3467  17.3467  17.3467  17.3468  17.3941  17.3941
    17.3942  17.3942  17.4444  17.4445  17.4900  17.4903  18.3712  18.3712
    19.5379  19.5379  19.6117  19.6118  19.6118  19.6118  19.6148  19.6150
    19.6942  19.6942  19.6944  19.6944  20.0480  20.0483  20.1030  20.1034
    20.1568  20.1571  20.1646  20.1649  20.2793  20.2796

          k = 0.2746 0.3845 0.3845 ( 12970 PWs)   bands (ev):

   -52.9318 -52.8982 -52.8981 -52.8731 -52.8714 -52.8530 -52.8529 -52.8385
   -52.7944 -52.7899 -52.7899 -52.7814 -52.7785 -52.7633 -52.7632 -52.7393
   -24.5359 -24.5199 -24.5198 -24.4952 -24.4895 -24.4895 -24.4764 -24.4610
   -24.4610 -24.4503 -24.4433 -24.4045 -24.3835 -24.3797 -24.3480 -24.3073
   -24.3072 -24.2912 -24.2912 -24.2832 -24.2726 -24.2726 -24.2634 -24.1672
   -24.1245 -24.0411 -24.0410 -24.0286 -24.0264 -24.0263 -24.0011 -23.9927
   -23.9718 -23.9677 -23.9609 -23.9512 -23.9511 -23.9243 -23.9242 -23.9163
   -23.8844 -23.8843 -23.8824 -23.8725 -23.8542 -23.8542 -23.8512 -23.8453
    12.9513  13.8142  13.8143  14.4244  14.5328  15.0078  15.0079  15.6481
    15.7016  15.7531  15.7612  15.8102  15.8102  15.8744  15.8744  16.0662
    16.1033  16.1828  16.1828  16.3085  16.5956  16.6784  16.6810  16.7285
    16.7285  16.7824  16.7824  16.8648  16.8909  16.9773  17.0008  17.1781
    17.1781  17.1808  17.1809  17.1811  17.1947  17.1947  17.2221  17.3320
    17.3320  17.3602  17.3921  17.4056  17.4744  17.7441  17.7441  18.3274
    19.5508  19.6121  19.6121  19.6352  19.6643  19.7473  19.8189  19.8189
    19.8196  19.8507  19.8508  19.8700  19.9406  19.9406  20.0087  20.1314
    20.1553  20.1553  20.1613  20.1940  20.2591  20.2700

          k = 0.2746 0.3845-0.4944 ( 12962 PWs)   bands (ev):

   -52.9164 -52.9160 -52.8867 -52.8863 -52.8629 -52.8626 -52.8463 -52.8460
   -52.7919 -52.7915 -52.7853 -52.7849 -52.7702 -52.7698 -52.7502 -52.7498
   -24.5129 -24.5129 -24.5034 -24.5033 -24.4807 -24.4804 -24.4724 -24.4723
   -24.4683 -24.4680 -24.4220 -24.4218 -24.3491 -24.3487 -24.3482 -24.3481
   -24.3169 -24.3168 -24.2920 -24.2918 -24.2882 -24.2881 -24.2289 -24.2289
   -24.0819 -24.0818 -24.0270 -24.0269 -24.0102 -24.0101 -24.0024 -24.0023
   -23.9683 -23.9680 -23.9453 -23.9452 -23.9217 -23.9213 -23.9169 -23.9168
   -23.9125 -23.9122 -23.8790 -23.8789 -23.8516 -23.8515 -23.8474 -23.8474
    13.3587  13.3591  14.1215  14.1218  14.7947  14.7951  15.3885  15.3889
    15.7773  15.7776  15.8094  15.8096  15.9786  15.9789  15.9878  15.9879
    16.0465  16.0467  16.5160  16.5164  16.5430  16.5433  16.6364  16.6365
    16.6548  16.6550  16.8497  16.8499  16.8875  16.8876  17.0222  17.0223
    17.0784  17.0786  17.1043  17.1045  17.2204  17.2205  17.2776  17.2776
    17.3040  17.3041  17.3890  17.3892  17.4463  17.4463  17.9810  17.9810
    19.7360  19.7362  19.7372  19.7372  19.7734  19.7736  19.7971  19.7973
    19.8216  19.8216  19.8668  19.8668  20.0342  20.0345  20.0351  20.0355
    20.1018  20.1020  20.1126  20.1129  20.1952  20.1956

          k = 0.2746-0.4944-0.4944 ( 12952 PWs)   bands (ev):

   -52.9028 -52.9026 -52.9024 -52.9021 -52.8553 -52.8550 -52.8549 -52.8546
   -52.7882 -52.7880 -52.7878 -52.7876 -52.7592 -52.7590 -52.7588 -52.7586
   -24.4932 -24.4932 -24.4932 -24.4932 -24.4849 -24.4848 -24.4847 -24.4845
   -24.4445 -24.4445 -24.4444 -24.4442 -24.3276 -24.3275 -24.3273 -24.3271
   -24.3157 -24.3157 -24.3157 -24.3156 -24.2885 -24.2885 -24.2885 -24.2884
   -24.0406 -24.0406 -24.0405 -24.0405 -24.0148 -24.0148 -24.0148 -24.0148
   -23.9357 -23.9355 -23.9354 -23.9351 -23.9280 -23.9279 -23.9279 -23.9278
   -23.9022 -23.9021 -23.9020 -23.9019 -23.8480 -23.8480 -23.8480 -23.8480
    13.7267  13.7268  13.7272  13.7273  15.1162  15.1163  15.1166  15.1166
    15.8160  15.8161  15.8163  15.8164  16.1674  16.1675  16.1676  16.1676
    16.2570  16.2571  16.2573  16.2575  16.4716  16.4717  16.4719  16.4720
    16.7542  16.7542  16.7543  16.7544  16.9202  16.9203  16.9204  16.9205
    17.0974  17.0974  17.0975  17.0975  17.1293  17.1294  17.1294  17.1294
    17.3238  17.3240  17.3240  17.3241  17.6563  17.6564  17.6564  17.6564
    19.8093  19.8094  19.8095  19.8097  19.9195  19.9197  19.9198  19.9198
    19.9199  19.9199  19.9200  19.9200  19.9701  19.9703  19.9703  19.9704
    20.1055  20.1058  20.1059  20.1061  20.2105  20.2105

          k = 0.3845 0.3845 0.3845 ( 12977 PWs)   bands (ev):

   -52.9204 -52.8896 -52.8896 -52.8895 -52.8664 -52.8664 -52.8663 -52.8486
   -52.7887 -52.7809 -52.7809 -52.7808 -52.7676 -52.7676 -52.7675 -52.7463
   -24.5019 -24.5018 -24.5018 -24.4802 -24.4802 -24.4802 -24.4588 -24.4202
   -24.4202 -24.4201 -24.4200 -24.4200 -24.4064 -24.4063 -24.3352 -24.3351
   -24.3351 -24.3309 -24.3309 -24.3309 -24.3129 -24.3129 -24.3129 -24.2186
   -24.0818 -24.0049 -24.0049 -24.0049 -23.9890 -23.9890 -23.9890 -23.9728
   -23.9728 -23.9522 -23.9521 -23.9521 -23.9458 -23.9458 -23.9458 -23.9195
   -23.8829 -23.8828 -23.8828 -23.8731 -23.8731 -23.8676 -23.8676 -23.8675
    13.2740  14.1012  14.1012  14.1012  14.7477  14.7477  14.7477  15.5096
    15.8622  15.8622  15.9684  15.9684  15.9684  16.1494  16.1494  16.1494
    16.1613  16.1613  16.1613  16.2713  16.6540  16.6540  16.7389  16.7389
    16.8128  16.8128  16.8129  16.8359  16.8359  16.8359  16.9236  16.9236
    16.9236  17.0684  17.0684  17.0684  17.0895  17.0895  17.0895  17.1396
    17.1396  17.1396  17.3027  17.3027  17.4000  17.4001  17.4001  17.9175
    19.7394  19.7395  19.7395  19.8758  19.9134  19.9134  19.9135  19.9363
    19.9363  19.9500  19.9500  19.9501  19.9798  19.9798  19.9798  20.1573
    20.1573  20.1888  20.1889  20.1894  20.2081  20.2082

          k = 0.3845 0.3845-0.4944 ( 12950 PWs)   bands (ev):

   -52.9063 -52.9059 -52.8789 -52.8789 -52.8786 -52.8785 -52.8582 -52.8578
   -52.7844 -52.7840 -52.7736 -52.7736 -52.7732 -52.7731 -52.7560 -52.7556
   -24.4846 -24.4846 -24.4845 -24.4845 -24.4583 -24.4579 -24.4545 -24.4544
   -24.4391 -24.4389 -24.3814 -24.3810 -24.3755 -24.3754 -24.3753 -24.3753
   -24.3618 -24.3616 -24.3375 -24.3375 -24.3373 -24.3373 -24.2746 -24.2745
   -24.0418 -24.0417 -23.9823 -23.9822 -23.9729 -23.9729 -23.9728 -23.9728
   -23.9634 -23.9634 -23.9632 -23.9632 -23.9295 -23.9293 -23.9238 -23.9234
   -23.9092 -23.9088 -23.8782 -23.8782 -23.8782 -23.8781 -23.8677 -23.8677
    13.6681  13.6686  14.4291  14.4292  14.4295  14.4296  15.1309  15.1313
    15.9970  15.9974  16.0672  16.0675  16.0874  16.0874  16.0876  16.0876
    16.2472  16.2476  16.4911  16.4911  16.4915  16.4915  16.6794  16.6795
    16.7297  16.7300  16.7933  16.7935  16.8138  16.8140  16.9358  16.9358
    16.9360  16.9360  17.0598  17.0598  17.0600  17.0600  17.1162  17.1162
    17.1162  17.1163  17.1835  17.1837  17.1992  17.1995  17.5826  17.5827
    19.8439  19.8442  19.8700  19.8700  19.8702  19.8703  19.9877  19.9877
    19.9877  19.9878  20.0497  20.0501  20.0719  20.0722  20.1254  20.1257
    20.1768  20.1771  20.1795  20.1796  20.1799  20.1799

          k = 0.3845-0.4944-0.4944 ( 12936 PWs)   bands (ev):

   -52.8937 -52.8935 -52.8934 -52.8931 -52.8694 -52.8692 -52.8690 -52.8687
   -52.7784 -52.7782 -52.7780 -52.7778 -52.7639 -52.7637 -52.7635 -52.7633
   -24.4610 -24.4610 -24.4610 -24.4610 -24.4572 -24.4571 -24.4569 -24.4567
   -24.4070 -24.4069 -24.4068 -24.4067 -24.3756 -24.3755 -24.3753 -24.3751
   -24.3707 -24.3707 -24.3706 -24.3706 -24.3249 -24.3248 -24.3248 -24.3247
   -24.0052 -24.0051 -24.0051 -24.0050 -23.9623 -23.9623 -23.9623 -23.9623
   -23.9483 -23.9482 -23.9481 -23.9480 -23.9261 -23.9260 -23.9258 -23.9256
   -23.9082 -23.9081 -23.9080 -23.9078 -23.8778 -23.8778 -23.8778 -23.8777
    14.0383  14.0384  14.0387  14.0388  14.7860  14.7860  14.7864  14.7865
    16.0789  16.0790  16.0792  16.0793  16.3062  16.3064  16.3066  16.3067
    16.4087  16.4088  16.4090  16.4090  16.4188  16.4189  16.4191  16.4192
    16.8430  16.8431  16.8432  16.8432  16.8575  16.8576  16.8576  16.8576
    16.8697  16.8699  16.8699  16.8700  17.0401  17.0401  17.0402  17.0402
    17.1056  17.1057  17.1058  17.1058  17.2584  17.2584  17.2585  17.2585
    19.9113  19.9114  19.9116  19.9117  19.9788  19.9790  19.9792  19.9793
    20.0755  20.0757  20.0758  20.0760  20.1452  20.1453  20.1454  20.1454
    20.1607  20.1608  20.1610  20.1612  20.1883  20.1884

          k =-0.4944-0.4944-0.4944 ( 12856 PWs)   bands (ev):

   -52.8825 -52.8823 -52.8823 -52.8821 -52.8821 -52.8819 -52.8819 -52.8815
   -52.7704 -52.7702 -52.7702 -52.7700 -52.7700 -52.7699 -52.7699 -52.7695
   -24.4200 -24.4200 -24.4199 -24.4199 -24.4199 -24.4198 -24.4198 -24.4197
   -24.4197 -24.4196 -24.4196 -24.4195 -24.4195 -24.4194 -24.4194 -24.4194
   -24.3657 -24.3656 -24.3656 -24.3655 -24.3655 -24.3654 -24.3654 -24.3654
   -23.9741 -23.9741 -23.9741 -23.9740 -23.9740 -23.9739 -23.9739 -23.9738
   -23.9162 -23.9162 -23.9162 -23.9162 -23.9161 -23.9161 -23.9161 -23.9159
   -23.9159 -23.9159 -23.9158 -23.9158 -23.9157 -23.9157 -23.9157 -23.9157
    14.4073  14.4074  14.4074  14.4075  14.4077  14.4078  14.4078  14.4079
    16.3621  16.3621  16.3623  16.3623  16.3623  16.3623  16.3624  16.3624
    16.3625  16.3625  16.3626  16.3626  16.3626  16.3626  16.3627  16.3627
    16.9142  16.9143  16.9143  16.9143  16.9143  16.9144  16.9144  16.9144
    16.9409  16.9410  16.9410  16.9410  16.9410  16.9411  16.9411  16.9411
    16.9411  16.9412  16.9413  16.9413  16.9413  16.9414  16.9414  16.9414
    20.0326  20.0326  20.0327  20.0327  20.0328  20.0328  20.0328  20.0329
    20.0329  20.0330  20.0330  20.0330  20.0331  20.0331  20.0333  20.0333
    20.3860  20.3860  20.3861  20.3861  20.3862  20.3863

 ------ SPIN DOWN ----------


          k = 0.0549 0.0549 0.0549 ( 13037 PWs)   bands (ev):

   -53.0026 -52.8471 -52.8471 -52.8471 -52.8201 -52.8201 -52.8200 -52.8196
   -52.8195 -52.8195 -52.8172 -52.8171 -52.8171 -52.8052 -52.8037 -52.6903
   -24.6545 -24.6544 -24.6544 -24.6502 -24.6502 -24.6502 -24.3972 -24.3972
   -24.3876 -24.3024 -24.2984 -24.2984 -24.2984 -24.2669 -24.2669 -24.2487
   -24.2487 -24.2487 -24.1938 -24.1938 -24.1575 -24.1227 -24.1227 -24.1227
   -24.1072 -24.1072 -24.1071 -24.0851 -24.0851 -24.0851 -24.0802 -24.0802
   -24.0802 -24.0718 -24.0717 -24.0717 -24.0571 -24.0571 -24.0571 -23.8252
   -23.8252 -23.8251 -23.8242 -23.8208 -23.8207 -23.8207 -23.8143 -23.8143
    11.1459  14.5972  14.5972  14.5972  14.6195  14.6195  14.6195  14.7447
    14.7447  14.7447  14.7678  14.7678  15.1877  15.1877  15.1877  16.4666
    16.5430  16.5430  16.5430  16.5581  16.5582  16.5582  16.5658  16.5658
    16.7242  16.7242  16.7781  16.9359  16.9359  16.9359  17.3747  17.3747
    17.3747  18.0187  18.0187  18.0718  18.3498  18.3499  18.3499  18.4635
    18.4635  18.4635  18.5594  18.5594  18.5594  18.6648  18.6648  18.6648
    19.5193  19.5193  19.5193  19.5525  19.5525  19.5525  19.7701  19.7701
    19.7701  19.7999  19.7999  19.7999  19.9923  19.9923  19.9924  20.0153
    20.0153  20.0432  20.0432  20.0432  20.3471  20.3471

          k = 0.0549 0.0549 0.1648 ( 12996 PWs)   bands (ev):

   -52.9971 -52.8748 -52.8458 -52.8457 -52.8231 -52.8231 -52.8192 -52.8191
   -52.8191 -52.8163 -52.8158 -52.8158 -52.8061 -52.8045 -52.7934 -52.6942
   -24.6425 -24.6425 -24.6414 -24.6375 -24.6301 -24.6301 -24.4025 -24.3878
   -24.3734 -24.3561 -24.3417 -24.3417 -24.3390 -24.3377 -24.2941 -24.2940
   -24.2427 -24.2025 -24.1906 -24.1734 -24.1567 -24.1224 -24.1223 -24.1222
   -24.1021 -24.0946 -24.0904 -24.0904 -24.0891 -24.0769 -24.0769 -24.0723
   -24.0723 -24.0678 -24.0678 -24.0222 -24.0194 -24.0194 -24.0085 -23.8473
   -23.8382 -23.8382 -23.8366 -23.8329 -23.8251 -23.8250 -23.8227 -23.8184
    11.2783  14.1833  14.6213  14.6213  14.6898  14.6898  14.7037  14.7248
    14.7890  14.7891  14.8357  14.8415  15.2220  15.2220  15.4610  16.3451
    16.4631  16.4823  16.5068  16.5235  16.5372  16.5981  16.5981  16.6053
    16.6434  16.6435  16.8948  16.8948  16.9320  16.9426  17.2759  17.2760
    17.7824  17.9883  18.0114  18.1123  18.1124  18.1406  18.1883  18.3090
    18.3090  18.3525  18.6557  18.6557  18.7854  18.7854  18.8181  18.9301
    19.0174  19.0174  19.2470  19.2738  19.2738  19.2886  19.4004  19.7780
    19.7780  19.9137  19.9138  19.9258  20.0048  20.0048  20.0157  20.0426
    20.0511  20.0519  20.0519  20.0805  20.3506  20.3763

          k = 0.0549 0.0549 0.2746 ( 12970 PWs)   bands (ev):

   -52.9863 -52.9020 -52.8433 -52.8433 -52.8270 -52.8270 -52.8183 -52.8183
   -52.8175 -52.8153 -52.8153 -52.8148 -52.8078 -52.8060 -52.7692 -52.7020
   -24.6156 -24.6154 -24.6154 -24.6126 -24.5949 -24.5949 -24.4168 -24.4085
   -24.4052 -24.4016 -24.4016 -24.3693 -24.3672 -24.3573 -24.3573 -24.3525
   -24.2222 -24.2193 -24.2049 -24.1935 -24.1264 -24.1193 -24.1193 -24.1123
   -24.1054 -24.0964 -24.0964 -24.0744 -24.0744 -24.0722 -24.0722 -24.0541
   -24.0425 -24.0184 -24.0184 -23.9751 -23.9728 -23.9728 -23.9625 -23.8846
   -23.8599 -23.8599 -23.8590 -23.8570 -23.8393 -23.8381 -23.8381 -23.8323
    11.5384  13.5687  14.6835  14.6835  14.8029  14.8029  14.8474  14.8474
    14.9085  14.9269  14.9702  14.9786  15.2472  15.2472  15.5529  16.1051
    16.1735  16.2305  16.4098  16.4689  16.4892  16.5006  16.7212  16.7213
    16.7962  16.7962  16.9017  16.9017  17.2007  17.2139  17.2140  17.2226
    17.7910  17.7911  17.9667  17.9679  17.9679  18.0005  18.0015  18.0735
    18.2422  18.4367  18.4368  18.4705  18.6424  18.6424  18.8647  18.9019
    18.9448  18.9448  18.9860  18.9861  18.9905  19.1269  19.2507  19.7508
    19.7905  19.7905  19.9070  19.9070  20.0600  20.0778  20.1200  20.1223
    20.1223  20.3269  20.3286  20.3524  20.3573  20.3855

          k = 0.0549 0.0549 0.3845 ( 12981 PWs)   bands (ev):

   -52.9707 -52.9277 -52.8398 -52.8398 -52.8313 -52.8313 -52.8173 -52.8172
   -52.8154 -52.8154 -52.8152 -52.8127 -52.8101 -52.8080 -52.7476 -52.7137
   -24.5781 -24.5765 -24.5748 -24.5747 -24.5472 -24.5471 -24.4762 -24.4728
   -24.4643 -24.4643 -24.4245 -24.4245 -24.4044 -24.3875 -24.3425 -24.3245
   -24.2677 -24.2498 -24.1927 -24.1750 -24.1368 -24.1272 -24.1147 -24.1147
   -24.1027 -24.1027 -24.0730 -24.0729 -24.0720 -24.0720 -24.0596 -23.9922
   -23.9857 -23.9699 -23.9699 -23.9347 -23.9323 -23.9286 -23.9285 -23.9210
   -23.8922 -23.8921 -23.8894 -23.8893 -23.8635 -23.8602 -23.8601 -23.8546
    11.9166  12.9587  14.7663  14.7663  14.8734  14.8734  14.9458  14.9458
    15.1577  15.1689  15.1946  15.2072  15.2072  15.2082  15.4958  15.7425
    15.8840  15.8966  16.3970  16.4176  16.4489  16.4586  16.9071  16.9071
    17.0097  17.0098  17.0525  17.0525  17.2749  17.2749  17.4952  17.4952
    17.5419  17.5632  17.6269  17.6269  17.8846  17.8846  17.9568  17.9925
    18.0015  18.0089  18.0645  18.0645  18.3792  18.4018  18.4042  18.7568
    18.8177  19.2121  19.2122  19.2466  19.2467  19.4821  19.4979  19.6168
    19.6277  19.6277  19.7453  19.7453  20.1204  20.1322  20.2173  20.2620
    20.2657  20.2692  20.3661  20.3859  20.3921  20.4009

          k = 0.0549 0.0549-0.4944 ( 12962 PWs)   bands (ev):

   -52.9511 -52.9507 -52.8360 -52.8359 -52.8355 -52.8355 -52.8164 -52.8163
   -52.8160 -52.8160 -52.8129 -52.8124 -52.8105 -52.8102 -52.7291 -52.7287
   -24.5306 -24.5302 -24.5300 -24.5296 -24.5234 -24.5234 -24.5233 -24.5233
   -24.4892 -24.4892 -24.4891 -24.4891 -24.3991 -24.3989 -24.3084 -24.3080
   -24.2902 -24.2899 -24.1644 -24.1641 -24.1517 -24.1513 -24.1092 -24.1092
   -24.1088 -24.1088 -24.0724 -24.0724 -24.0720 -24.0720 -23.9945 -23.9943
   -23.9378 -23.9374 -23.9349 -23.9346 -23.9264 -23.9263 -23.9263 -23.9262
   -23.8951 -23.8947 -23.8905 -23.8905 -23.8905 -23.8905 -23.8847 -23.8844
    12.3972  12.3977  14.8409  14.8409  14.8412  14.8412  15.0936  15.0936
    15.0938  15.0938  15.3452  15.3455  15.4279  15.4283  15.5358  15.5362
    15.5408  15.5412  16.4139  16.4143  16.4247  16.4250  17.1430  17.1431
    17.1432  17.1432  17.2428  17.2429  17.2430  17.2430  17.4518  17.4518
    17.4520  17.4521  17.6165  17.6165  17.6167  17.6167  17.9457  17.9458
    17.9598  17.9599  17.9654  17.9656  17.9944  17.9947  18.5514  18.5518
    19.1798  19.1801  19.4318  19.4318  19.4318  19.4318  19.5212  19.5212
    19.5212  19.5212  19.8704  19.8706  20.0133  20.0136  20.1901  20.1905
    20.1972  20.1976  20.3378  20.3382  20.3759  20.3763

          k = 0.0549 0.1648 0.1648 ( 12987 PWs)   bands (ev):

   -52.9917 -52.8727 -52.8727 -52.8445 -52.8310 -52.8222 -52.8222 -52.8186
   -52.8151 -52.8151 -52.8098 -52.8073 -52.8049 -52.7938 -52.7938 -52.6980
   -24.6391 -24.6300 -24.6300 -24.6188 -24.6187 -24.6019 -24.4128 -24.3898
   -24.3823 -24.3789 -24.3788 -24.3692 -24.3606 -24.3511 -24.3243 -24.2581
   -24.2372 -24.2372 -24.1864 -24.1720 -24.1719 -24.1313 -24.1166 -24.1166
   -24.1045 -24.1014 -24.1014 -24.0932 -24.0856 -24.0856 -24.0789 -24.0645
   -24.0611 -24.0354 -24.0238 -24.0237 -23.9913 -23.9731 -23.9731 -23.8775
   -23.8599 -23.8473 -23.8472 -23.8363 -23.8363 -23.8297 -23.8203 -23.8149
    11.4088  14.2456  14.2456  14.5880  14.7289  14.7289  14.7939  14.7939
    14.7978  14.8420  14.9024  14.9146  15.2681  15.4971  15.4971  16.2339
    16.3584  16.5035  16.5036  16.5530  16.5754  16.5754  16.6158  16.6158
    16.6225  16.6849  16.7581  16.8353  16.9179  16.9556  17.1671  17.5981
    17.5982  17.9180  17.9644  17.9644  17.9920  18.0139  18.1700  18.2551
    18.5520  18.5520  18.5903  18.6220  18.6220  18.7475  18.8514  18.8514
    18.8617  18.9809  18.9810  19.0222  19.0222  19.1206  19.5062  19.5062
    19.7833  19.9110  19.9403  19.9404  19.9788  20.0094  20.0095  20.0196
    20.0250  20.2134  20.3147  20.3216  20.3216  20.3584

          k = 0.0549 0.1648 0.2746 ( 12979 PWs)   bands (ev):

   -52.9812 -52.8991 -52.8686 -52.8420 -52.8393 -52.8260 -52.8204 -52.8178
   -52.8146 -52.8137 -52.8095 -52.8061 -52.8047 -52.7946 -52.7704 -52.7055
   -24.6204 -24.6053 -24.6045 -24.5965 -24.5858 -24.5597 -24.4345 -24.4332
   -24.4231 -24.4145 -24.4136 -24.4055 -24.3735 -24.3648 -24.3231 -24.3027
   -24.2405 -24.2201 -24.1797 -24.1737 -24.1661 -24.1644 -24.1341 -24.1216
   -24.1189 -24.1093 -24.1014 -24.0836 -24.0824 -24.0657 -24.0537 -24.0388
   -24.0265 -24.0142 -23.9952 -23.9778 -23.9550 -23.9305 -23.9302 -23.9219
   -23.8887 -23.8651 -23.8649 -23.8585 -23.8468 -23.8458 -23.8245 -23.8205
    11.6650  13.6502  14.3492  14.5774  14.7916  14.9060  14.9167  14.9357
    14.9425  14.9930  15.0291  15.0556  15.3152  15.5115  15.5981  16.1068
    16.1286  16.2030  16.4798  16.5355  16.5669  16.5683  16.5804  16.6889
    16.7146  16.7533  16.8056  16.9389  17.0737  17.0905  17.1554  17.4629
    17.6731  17.7863  17.7893  17.8520  17.8718  17.9167  17.9689  18.0981
    18.1963  18.3288  18.4012  18.4759  18.5521  18.6128  18.6215  18.7397
    18.8412  18.9557  18.9814  19.0380  19.0661  19.2414  19.2436  19.6318
    19.7775  19.8206  19.8522  19.9118  19.9486  19.9928  20.0404  20.0768
    20.2480  20.3057  20.3089  20.3373  20.3834  20.3883

          k = 0.0549 0.1648 0.3845 ( 12969 PWs)   bands (ev):

   -52.9660 -52.9241 -52.8628 -52.8477 -52.8386 -52.8302 -52.8179 -52.8167
   -52.8148 -52.8122 -52.8117 -52.8077 -52.8008 -52.7959 -52.7494 -52.7167
   -24.5879 -24.5695 -24.5666 -24.5647 -24.5415 -24.5056 -24.4915 -24.4798
   -24.4710 -24.4671 -24.4308 -24.4289 -24.4218 -24.3731 -24.3384 -24.2900
   -24.2648 -24.2123 -24.2100 -24.1655 -24.1573 -24.1493 -24.1329 -24.1314
   -24.1224 -24.1175 -24.1065 -24.0834 -24.0829 -24.0444 -24.0308 -24.0146
   -23.9833 -23.9771 -23.9680 -23.9552 -23.9360 -23.9246 -23.9198 -23.8920
   -23.8918 -23.8918 -23.8911 -23.8890 -23.8692 -23.8646 -23.8380 -23.8360
    12.0367  13.0568  14.4573  14.5682  14.8731  14.9615  15.0476  15.1137
    15.2071  15.2240  15.2483  15.2675  15.2957  15.4395  15.5490  15.7867
    15.8890  15.9164  16.4364  16.4871  16.4890  16.5154  16.7768  16.8518
    16.8701  16.8998  16.9290  17.0681  17.1762  17.3259  17.3923  17.4545
    17.5309  17.5684  17.6055  17.6481  17.7972  17.8058  17.8321  17.8335
    17.8886  17.9431  17.9591  18.0959  18.1828  18.1837  18.5738  18.9873
    19.0014  19.1768  19.1818  19.2548  19.2611  19.2829  19.4736  19.5582
    19.5642  19.6617  19.7491  19.7998  19.9477  20.0656  20.0963  20.1762
    20.2074  20.2327  20.2411  20.3179  20.3796  20.3823

          k = 0.0549 0.1648-0.4944 ( 12962 PWs)   bands (ev):

   -52.9469 -52.9465 -52.8559 -52.8555 -52.8348 -52.8344 -52.8158 -52.8154
   -52.8152 -52.8148 -52.8099 -52.8096 -52.7981 -52.7977 -52.7316 -52.7312
   -24.5441 -24.5440 -24.5250 -24.5247 -24.5243 -24.5239 -24.5195 -24.5195
   -24.4885 -24.4884 -24.4422 -24.4421 -24.4292 -24.4291 -24.3049 -24.3045
   -24.2523 -24.2521 -24.1808 -24.1805 -24.1462 -24.1458 -24.1452 -24.1449
   -24.1253 -24.1250 -24.0832 -24.0829 -24.0398 -24.0397 -24.0370 -24.0366
   -23.9669 -23.9669 -23.9334 -23.9331 -23.9266 -23.9263 -23.9193 -23.9193
   -23.8998 -23.8994 -23.8892 -23.8892 -23.8605 -23.8605 -23.8602 -23.8601
    12.5081  12.5086  14.5337  14.5340  14.9421  14.9423  15.1921  15.1923
    15.2910  15.2912  15.3998  15.4001  15.4900  15.4904  15.5653  15.5658
    15.5842  15.5846  16.4496  16.4499  16.4776  16.4778  17.0212  17.0214
    17.0364  17.0367  17.0811  17.0812  17.1262  17.1266  17.4992  17.4993
    17.5312  17.5313  17.5970  17.5971  17.7138  17.7140  17.7637  17.7639
    17.7858  17.7859  17.8054  17.8056  17.9181  17.9184  18.7728  18.7730
    19.2851  19.2854  19.3204  19.3204  19.4696  19.4697  19.5269  19.5269
    19.5516  19.5517  19.5723  19.5723  19.9324  19.9327  20.1489  20.1493
    20.1666  20.1669  20.3010  20.3014  20.3775  20.3778

          k = 0.0549 0.2746 0.2746 ( 12969 PWs)   bands (ev):

   -52.9712 -52.8935 -52.8935 -52.8519 -52.8396 -52.8240 -52.8240 -52.8169
   -52.8134 -52.8133 -52.8119 -52.8068 -52.7954 -52.7727 -52.7727 -52.7125
   -24.6101 -24.5831 -24.5831 -24.5686 -24.5685 -24.5113 -24.4563 -24.4559
   -24.4558 -24.4422 -24.4396 -24.4373 -24.4039 -24.3483 -24.2876 -24.2418
   -24.2398 -24.2398 -24.2116 -24.2116 -24.1725 -24.1475 -24.1412 -24.1326
   -24.1326 -24.1135 -24.1134 -24.1001 -24.1001 -24.0927 -24.0346 -24.0031
   -23.9835 -23.9834 -23.9799 -23.9740 -23.9648 -23.9311 -23.9239 -23.8928
   -23.8928 -23.8756 -23.8755 -23.8642 -23.8642 -23.8604 -23.8195 -23.8159
    11.9127  13.7986  13.7986  14.4694  14.9985  14.9985  15.0251  15.1009
    15.1018  15.1018  15.1379  15.2057  15.4088  15.6206  15.6206  16.0372
    16.1134  16.2376  16.2376  16.5422  16.6262  16.6329  16.6329  16.6807
    16.6808  16.7070  16.7746  16.9310  17.0339  17.1334  17.1463  17.5581
    17.5582  17.6769  17.6769  17.6788  17.6899  17.7338  17.7805  17.9252
    18.1231  18.1231  18.1851  18.1851  18.3282  18.4730  18.4730  18.5987
    19.0530  19.0530  19.1247  19.1700  19.2084  19.2085  19.4684  19.5796
    19.5796  19.7714  19.8820  19.8820  19.9230  19.9422  19.9423  19.9591
    20.0461  20.2522  20.2558  20.2590  20.3796  20.3884

          k = 0.0549 0.2746 0.3845 ( 12960 PWs)   bands (ev):

   -52.9568 -52.9171 -52.8855 -52.8642 -52.8363 -52.8281 -52.8214 -52.8157
   -52.8150 -52.8137 -52.8116 -52.8081 -52.7876 -52.7763 -52.7532 -52.7228
   -24.5862 -24.5525 -24.5511 -24.5443 -24.5311 -24.5061 -24.4847 -24.4745
   -24.4742 -24.4658 -24.4572 -24.4517 -24.4439 -24.3235 -24.3120 -24.2538
   -24.2482 -24.2237 -24.1986 -24.1720 -24.1627 -24.1626 -24.1609 -24.1603
   -24.1531 -24.1429 -24.1213 -24.1003 -24.0987 -24.0612 -24.0355 -24.0179
   -23.9922 -23.9652 -23.9619 -23.9462 -23.9444 -23.9356 -23.9081 -23.8926
[...]
    19.7190  19.7191  19.7290  19.7293  19.8118  19.8120  19.9756  19.9759
    19.9984  19.9988  20.1420  20.1424  20.1766  20.1768

          k = 0.1648-0.4944-0.4944 ( 12892 PWs)   bands (ev):

   -52.9088 -52.9087 -52.9084 -52.9083 -52.8404 -52.8403 -52.8400 -52.8399
   -52.7993 -52.7991 -52.7989 -52.7988 -52.7558 -52.7557 -52.7555 -52.7553
   -24.5153 -24.5153 -24.5152 -24.5152 -24.5008 -24.5007 -24.5006 -24.5005
   -24.4748 -24.4748 -24.4746 -24.4745 -24.2807 -24.2806 -24.2804 -24.2803
   -24.2608 -24.2608 -24.2608 -24.2608 -24.2561 -24.2561 -24.2561 -24.2561
   -24.0777 -24.0777 -24.0776 -24.0775 -24.0721 -24.0721 -24.0720 -24.0720
   -23.9434 -23.9433 -23.9431 -23.9429 -23.9133 -23.9133 -23.9132 -23.9131
   -23.8989 -23.8989 -23.8988 -23.8987 -23.8276 -23.8276 -23.8276 -23.8276
    13.5038  13.5039  13.5043  13.5043  15.3646  15.3646  15.3649  15.3650
    15.6230  15.6230  15.6233  15.6233  15.9318  15.9318  15.9319  15.9320
    16.2196  16.2197  16.2200  16.2201  16.5196  16.5196  16.5198  16.5199
    16.6791  16.6791  16.6793  16.6793  17.0768  17.0770  17.0770  17.0771
    17.1979  17.1979  17.1980  17.1980  17.2863  17.2863  17.2864  17.2864
    17.5460  17.5461  17.5461  17.5462  18.0581  18.0581  18.0581  18.0581
    19.6069  19.6070  19.6071  19.6071  19.7338  19.7338  19.7340  19.7340
    19.8637  19.8637  19.8639  19.8641  19.8641  19.8642  19.8642  19.8643
    19.8863  19.8863  19.8863  19.8863  20.1230  20.1233

          k = 0.2746 0.2746 0.2746 ( 12965 PWs)   bands (ev):

   -52.9572 -52.8856 -52.8856 -52.8856 -52.8469 -52.8469 -52.8469 -52.8239
   -52.7999 -52.7955 -52.7955 -52.7955 -52.7756 -52.7756 -52.7756 -52.7217
   -24.5733 -24.5732 -24.5732 -24.5031 -24.5031 -24.5030 -24.4769 -24.4740
   -24.4740 -24.4740 -24.4125 -24.4125 -24.3765 -24.3765 -24.3008 -24.3008
   -24.3007 -24.2547 -24.2546 -24.2546 -24.2104 -24.1983 -24.1983 -24.1983
   -24.0521 -24.0447 -24.0447 -24.0447 -24.0414 -24.0414 -24.0413 -24.0405
   -24.0405 -23.9890 -23.9889 -23.9889 -23.9368 -23.9118 -23.9118 -23.9118
   -23.8766 -23.8766 -23.8766 -23.8539 -23.8539 -23.8539 -23.8427 -23.8427
    12.2757  14.0621  14.0621  14.0621  14.8166  14.8166  14.8166  15.3650
    15.3650  15.3870  15.3870  15.3870  15.8563  15.8563  15.8564  16.0291
    16.1964  16.1964  16.1964  16.3715  16.4935  16.4935  16.6968  16.6968
    16.6969  16.9029  16.9029  16.9139  16.9140  16.9140  17.2668  17.2668
    17.2668  17.4639  17.4639  17.4639  17.5519  17.5519  17.5519  17.6523
    17.6523  17.7681  17.7682  17.7682  17.9301  17.9301  17.9301  18.9928
    19.1498  19.2839  19.2839  19.2839  19.5278  19.5278  19.5278  19.7070
    19.7070  19.7070  19.9061  19.9061  19.9599  19.9599  19.9599  20.0913
    20.0913  20.0913  20.2688  20.2689  20.2689  20.2730

          k = 0.2746 0.2746 0.3845 ( 12962 PWs)   bands (ev):

   -52.9439 -52.9073 -52.8781 -52.8781 -52.8582 -52.8582 -52.8422 -52.8303
   -52.7978 -52.7958 -52.7885 -52.7885 -52.7787 -52.7787 -52.7581 -52.7309
   -24.5521 -24.5521 -24.5375 -24.4966 -24.4966 -24.4964 -24.4834 -24.4732
   -24.4559 -24.4558 -24.4403 -24.4375 -24.3837 -24.3499 -24.3499 -24.3351
   -24.3036 -24.2592 -24.2592 -24.2423 -24.2386 -24.2268 -24.2268 -24.1681
   -24.1103 -24.0828 -24.0508 -24.0505 -24.0236 -24.0236 -24.0029 -24.0028
   -23.9960 -23.9960 -23.9817 -23.9428 -23.9374 -23.9373 -23.9216 -23.9089
   -23.8871 -23.8686 -23.8667 -23.8667 -23.8578 -23.8545 -23.8545 -23.8403
    12.6210  13.5443  14.2807  14.2808  14.6867  14.6867  15.1415  15.5186
    15.5540  15.5595  15.5595  15.6338  15.8606  15.8606  15.8635  15.9442
    15.9727  16.0191  16.3634  16.3634  16.5207  16.6343  16.7162  16.7256
    16.7617  16.8036  16.8037  16.9896  16.9897  17.0772  17.1078  17.1079
    17.2665  17.2666  17.3454  17.3454  17.3879  17.3962  17.4189  17.4227
    17.5007  17.5007  17.5259  17.5791  17.6437  17.6437  18.0947  18.7364
    19.2559  19.4425  19.4878  19.4878  19.5906  19.5906  19.6437  19.6437
    19.7745  19.8176  19.8297  19.8652  19.8652  19.8802  20.0220  20.0248
    20.1900  20.1905  20.2729  20.2730  20.2750  20.2781

          k = 0.2746 0.2746-0.4944 ( 12986 PWs)   bands (ev):

   -52.9272 -52.9268 -52.8691 -52.8690 -52.8687 -52.8686 -52.8368 -52.8364
   -52.7966 -52.7963 -52.7832 -52.7831 -52.7828 -52.7827 -52.7433 -52.7429
   -24.5248 -24.5248 -24.5247 -24.5247 -24.4920 -24.4916 -24.4899 -24.4896
   -24.4613 -24.4612 -24.4035 -24.4034 -24.4033 -24.4033 -24.3472 -24.3468
   -24.2896 -24.2894 -24.2488 -24.2488 -24.2485 -24.2485 -24.1738 -24.1738
   -24.1253 -24.1252 -24.0538 -24.0536 -24.0077 -24.0077 -24.0074 -24.0074
   -23.9679 -23.9678 -23.9677 -23.9677 -23.9303 -23.9299 -23.9121 -23.9119
   -23.9025 -23.9021 -23.8590 -23.8590 -23.8590 -23.8589 -23.8453 -23.8453
    13.0524  13.0529  14.5029  14.5029  14.5033  14.5033  15.5383  15.5387
    15.7143  15.7147  15.7292  15.7293  15.7294  15.7294  15.7410  15.7413
    15.8806  15.8809  16.5713  16.5716  16.6647  16.6649  16.6909  16.6909
    16.6913  16.6913  16.9476  16.9477  16.9478  16.9478  17.0401  17.0402
    17.2552  17.2554  17.3468  17.3469  17.3469  17.3470  17.3943  17.3944
    17.3944  17.3944  17.4450  17.4451  17.4904  17.4907  18.3717  18.3717
    19.5385  19.5385  19.6118  19.6118  19.6119  19.6119  19.6141  19.6143
    19.6937  19.6937  19.6939  19.6940  20.0477  20.0480  20.1024  20.1028
    20.1573  20.1575  20.1637  20.1641  20.2785  20.2790

          k = 0.2746 0.3845 0.3845 ( 12970 PWs)   bands (ev):

   -52.9316 -52.8980 -52.8980 -52.8728 -52.8712 -52.8527 -52.8527 -52.8383
   -52.7942 -52.7897 -52.7897 -52.7812 -52.7783 -52.7630 -52.7630 -52.7390
   -24.5358 -24.5198 -24.5198 -24.4951 -24.4894 -24.4894 -24.4763 -24.4610
   -24.4609 -24.4502 -24.4432 -24.4044 -24.3834 -24.3796 -24.3480 -24.3072
   -24.3071 -24.2912 -24.2911 -24.2831 -24.2726 -24.2725 -24.2633 -24.1672
   -24.1244 -24.0410 -24.0410 -24.0285 -24.0263 -24.0263 -24.0010 -23.9926
   -23.9717 -23.9676 -23.9608 -23.9511 -23.9511 -23.9242 -23.9242 -23.9162
   -23.8843 -23.8843 -23.8823 -23.8725 -23.8542 -23.8542 -23.8511 -23.8452
    12.9511  13.8140  13.8140  14.4243  14.5326  15.0078  15.0078  15.6474
    15.7013  15.7524  15.7612  15.8101  15.8101  15.8738  15.8738  16.0660
    16.1037  16.1821  16.1822  16.3080  16.5959  16.6782  16.6814  16.7289
    16.7289  16.7825  16.7825  16.8641  16.8914  16.9775  17.0006  17.1778
    17.1778  17.1810  17.1811  17.1814  17.1952  17.1952  17.2225  17.3323
    17.3323  17.3603  17.3926  17.4059  17.4748  17.7445  17.7445  18.3280
    19.5513  19.6115  19.6115  19.6347  19.6644  19.7475  19.8188  19.8192
    19.8193  19.8507  19.8507  19.8694  19.9400  19.9401  20.0079  20.1308
    20.1555  20.1555  20.1611  20.1932  20.2582  20.2692

          k = 0.2746 0.3845-0.4944 ( 12962 PWs)   bands (ev):

   -52.9162 -52.9158 -52.8865 -52.8861 -52.8627 -52.8623 -52.8461 -52.8457
   -52.7917 -52.7913 -52.7851 -52.7847 -52.7700 -52.7696 -52.7500 -52.7496
   -24.5129 -24.5128 -24.5033 -24.5032 -24.4807 -24.4803 -24.4723 -24.4723
   -24.4682 -24.4680 -24.4219 -24.4218 -24.3490 -24.3487 -24.3481 -24.3481
   -24.3168 -24.3167 -24.2920 -24.2917 -24.2882 -24.2880 -24.2288 -24.2288
   -24.0819 -24.0818 -24.0270 -24.0268 -24.0102 -24.0100 -24.0024 -24.0023
   -23.9682 -23.9679 -23.9453 -23.9451 -23.9216 -23.9213 -23.9169 -23.9167
   -23.9125 -23.9121 -23.8790 -23.8789 -23.8515 -23.8515 -23.8473 -23.8473
    13.3584  13.3589  14.1213  14.1217  14.7946  14.7949  15.3884  15.3889
    15.7766  15.7770  15.8089  15.8091  15.9778  15.9782  15.9876  15.9877
    16.0466  16.0469  16.5154  16.5157  16.5426  16.5430  16.6363  16.6364
    16.6552  16.6554  16.8500  16.8502  16.8877  16.8878  17.0227  17.0228
    17.0782  17.0784  17.1047  17.1049  17.2205  17.2205  17.2781  17.2781
    17.3042  17.3043  17.3894  17.3895  17.4467  17.4467  17.9814  17.9815
    19.7353  19.7356  19.7374  19.7375  19.7728  19.7731  19.7965  19.7968
    19.8217  19.8217  19.8673  19.8674  20.0341  20.0344  20.0346  20.0348
    20.1022  20.1024  20.1117  20.1121  20.1944  20.1947

          k = 0.2746-0.4944-0.4944 ( 12952 PWs)   bands (ev):

   -52.9025 -52.9024 -52.9021 -52.9020 -52.8550 -52.8549 -52.8546 -52.8545
   -52.7879 -52.7878 -52.7876 -52.7874 -52.7589 -52.7588 -52.7586 -52.7584
   -24.4932 -24.4932 -24.4931 -24.4931 -24.4848 -24.4848 -24.4846 -24.4845
   -24.4445 -24.4444 -24.4443 -24.4442 -24.3275 -24.3274 -24.3272 -24.3271
   -24.3156 -24.3156 -24.3156 -24.3156 -24.2885 -24.2885 -24.2884 -24.2883
   -24.0406 -24.0406 -24.0405 -24.0404 -24.0148 -24.0148 -24.0148 -24.0148
   -23.9356 -23.9355 -23.9353 -23.9351 -23.9279 -23.9279 -23.9278 -23.9277
   -23.9021 -23.9021 -23.9019 -23.9018 -23.8480 -23.8480 -23.8480 -23.8479
    13.7265  13.7266  13.7270  13.7270  15.1161  15.1161  15.1165  15.1165
    15.8155  15.8155  15.8157  15.8158  16.1676  16.1676  16.1677  16.1677
    16.2563  16.2564  16.2567  16.2567  16.4713  16.4713  16.4715  16.4716
    16.7544  16.7544  16.7546  16.7546  16.9206  16.9207  16.9208  16.9209
    17.0973  17.0974  17.0974  17.0974  17.1299  17.1299  17.1299  17.1299
    17.3242  17.3242  17.3243  17.3243  17.6568  17.6568  17.6568  17.6569
    19.8087  19.8088  19.8089  19.8090  19.9190  19.9191  19.9193  19.9194
    19.9201  19.9202  19.9202  19.9203  19.9702  19.9702  19.9704  19.9704
    20.1048  20.1049  20.1051  20.1052  20.2111  20.2111

          k = 0.3845 0.3845 0.3845 ( 12977 PWs)   bands (ev):

   -52.9202 -52.8893 -52.8893 -52.8893 -52.8661 -52.8661 -52.8661 -52.8484
   -52.7885 -52.7806 -52.7806 -52.7806 -52.7673 -52.7673 -52.7673 -52.7461
   -24.5018 -24.5017 -24.5017 -24.4802 -24.4802 -24.4802 -24.4587 -24.4201
   -24.4201 -24.4200 -24.4199 -24.4199 -24.4063 -24.4063 -24.3351 -24.3350
   -24.3350 -24.3309 -24.3309 -24.3308 -24.3129 -24.3128 -24.3128 -24.2185
   -24.0818 -24.0049 -24.0049 -24.0048 -23.9889 -23.9889 -23.9889 -23.9727
   -23.9727 -23.9521 -23.9520 -23.9520 -23.9458 -23.9458 -23.9457 -23.9194
   -23.8828 -23.8828 -23.8828 -23.8730 -23.8730 -23.8675 -23.8675 -23.8675
    13.2737  14.1010  14.1010  14.1010  14.7475  14.7475  14.7475  15.5095
    15.8615  15.8615  15.9681  15.9681  15.9681  16.1488  16.1488  16.1488
    16.1608  16.1608  16.1608  16.2717  16.6544  16.6544  16.7386  16.7386
    16.8133  16.8133  16.8134  16.8353  16.8353  16.8353  16.9239  16.9239
    16.9239  17.0686  17.0686  17.0686  17.0898  17.0898  17.0898  17.1401
    17.1401  17.1401  17.3032  17.3032  17.4004  17.4004  17.4004  17.9180
    19.7389  19.7389  19.7389  19.8763  19.9135  19.9135  19.9135  19.9356
    19.9356  19.9495  19.9495  19.9495  19.9801  19.9801  19.9801  20.1566
    20.1566  20.1880  20.1881  20.1881  20.2074  20.2074

          k = 0.3845 0.3845-0.4944 ( 12950 PWs)   bands (ev):

   -52.9061 -52.9057 -52.8788 -52.8787 -52.8784 -52.8783 -52.8580 -52.8576
   -52.7842 -52.7838 -52.7734 -52.7733 -52.7730 -52.7730 -52.7558 -52.7554
   -24.4845 -24.4845 -24.4844 -24.4844 -24.4582 -24.4578 -24.4544 -24.4543
   -24.4390 -24.4388 -24.3813 -24.3809 -24.3755 -24.3754 -24.3753 -24.3752
   -24.3617 -24.3616 -24.3374 -24.3374 -24.3372 -24.3372 -24.2745 -24.2744
   -24.0417 -24.0416 -23.9823 -23.9821 -23.9729 -23.9728 -23.9727 -23.9727
   -23.9634 -23.9634 -23.9632 -23.9632 -23.9294 -23.9293 -23.9237 -23.9233
   -23.9091 -23.9088 -23.8782 -23.8782 -23.8781 -23.8781 -23.8677 -23.8676
    13.6679  13.6683  14.4290  14.4290  14.4294  14.4294  15.1307  15.1312
    15.9964  15.9967  16.0665  16.0668  16.0869  16.0870  16.0871  16.0872
    16.2473  16.2476  16.4906  16.4906  16.4910  16.4910  16.6795  16.6796
    16.7301  16.7304  16.7928  16.7931  16.8141  16.8143  16.9362  16.9362
    16.9364  16.9364  17.0601  17.0601  17.0603  17.0603  17.1165  17.1165
    17.1165  17.1166  17.1840  17.1842  17.1996  17.1999  17.5831  17.5832
    19.8432  19.8435  19.8694  19.8694  19.8696  19.8697  19.9879  19.9879
    19.9880  19.9880  20.0491  20.0494  20.0711  20.0714  20.1254  20.1257
    20.1760  20.1763  20.1788  20.1788  20.1791  20.1791

          k = 0.3845-0.4944-0.4944 ( 12936 PWs)   bands (ev):

   -52.8935 -52.8933 -52.8931 -52.8929 -52.8691 -52.8690 -52.8687 -52.8686
   -52.7781 -52.7780 -52.7778 -52.7776 -52.7637 -52.7635 -52.7633 -52.7631
   -24.4609 -24.4609 -24.4609 -24.4609 -24.4571 -24.4570 -24.4568 -24.4567
   -24.4069 -24.4069 -24.4067 -24.4067 -24.3755 -24.3754 -24.3752 -24.3751
   -24.3706 -24.3706 -24.3706 -24.3706 -24.3248 -24.3248 -24.3247 -24.3247
   -24.0051 -24.0051 -24.0050 -24.0049 -23.9623 -23.9623 -23.9623 -23.9622
   -23.9482 -23.9482 -23.9481 -23.9480 -23.9260 -23.9259 -23.9257 -23.9256
   -23.9081 -23.9080 -23.9079 -23.9078 -23.8777 -23.8777 -23.8777 -23.8777
    14.0381  14.0382  14.0385  14.0386  14.7858  14.7859  14.7862  14.7863
    16.0784  16.0784  16.0787  16.0787  16.3056  16.3057  16.3060  16.3060
    16.4086  16.4086  16.4089  16.4089  16.4183  16.4184  16.4186  16.4187
    16.8434  16.8434  16.8435  16.8435  16.8576  16.8576  16.8576  16.8577
    16.8702  16.8703  16.8703  16.8704  17.0406  17.0406  17.0406  17.0407
    17.1060  17.1061  17.1061  17.1062  17.2589  17.2589  17.2589  17.2589
    19.9107  19.9107  19.9109  19.9110  19.9782  19.9783  19.9786  19.9786
    20.0747  20.0749  20.0751  20.0752  20.1454  20.1454  20.1455  20.1455
    20.1600  20.1600  20.1603  20.1604  20.1886  20.1887

          k =-0.4944-0.4944-0.4944 ( 12856 PWs)   bands (ev):

   -52.8822 -52.8820 -52.8820 -52.8820 -52.8818 -52.8817 -52.8817 -52.8815
   -52.7702 -52.7699 -52.7699 -52.7699 -52.7697 -52.7696 -52.7696 -52.7694
   -24.4199 -24.4199 -24.4198 -24.4198 -24.4198 -24.4197 -24.4197 -24.4196
   -24.4196 -24.4196 -24.4195 -24.4194 -24.4194 -24.4194 -24.4194 -24.4194
   -24.3656 -24.3656 -24.3656 -24.3654 -24.3654 -24.3654 -24.3654 -24.3653
   -23.9741 -23.9741 -23.9741 -23.9739 -23.9739 -23.9739 -23.9738 -23.9738
   -23.9162 -23.9162 -23.9161 -23.9161 -23.9160 -23.9160 -23.9160 -23.9159
   -23.9159 -23.9158 -23.9158 -23.9157 -23.9157 -23.9157 -23.9157 -23.9157
    14.4072  14.4072  14.4072  14.4073  14.4076  14.4076  14.4077  14.4077
    16.3616  16.3616  16.3617  16.3617  16.3617  16.3617  16.3617  16.3617
    16.3620  16.3620  16.3620  16.3620  16.3620  16.3620  16.3620  16.3620
    16.9147  16.9147  16.9147  16.9148  16.9148  16.9149  16.9149  16.9149
    16.9413  16.9414  16.9414  16.9414  16.9414  16.9415  16.9415  16.9415
    16.9416  16.9417  16.9417  16.9417  16.9417  16.9417  16.9417  16.9417
    20.0319  20.0319  20.0320  20.0320  20.0321  20.0321  20.0321  20.0321
    20.0322  20.0323  20.0323  20.0323  20.0323  20.0324  20.0324  20.0325
    20.3863  20.3863  20.3864  20.3864  20.3865  20.3865

     the Fermi energy is    18.8416 ev

!    total energy              =   -3971.53400591 Ry
     Harris-Foulkes estimate   =   -3971.53399818 Ry
     estimated scf accuracy    <       0.00000020 Ry

     total all-electron energy =    -33628.056885 Ry

     The total energy is the sum of the following terms:

     one-electron contribution =    -917.36565870 Ry
     hartree contribution      =     590.24394901 Ry
     xc contribution           =    -356.06726102 Ry
     ewald contribution        =   -2100.42262102 Ry
     one-center paw contrib.   =   -1187.95140191 Ry
     smearing contrib. (-TS)   =       0.02898772 Ry

     total magnetization       =     0.00 Bohr mag/cell
     absolute magnetization    =     0.03 Bohr mag/cell

     convergence has been achieved in  17 iterations

     Forces acting on atoms (cartesian axes, Ry/au):

     atom    1 type  1   force =     0.00000000    0.00000000   -0.00000000
     atom    2 type  2   force =    -0.00003055   -0.00003055   -0.00003055
     atom    3 type  1   force =     0.00000000    0.00000000   -0.00000000
     atom    4 type  2   force =    -0.00003055   -0.00003055    0.00003055
     atom    5 type  1   force =     0.00000000    0.00000000   -0.00000000
     atom    6 type  2   force =    -0.00003055    0.00003055   -0.00003055
     atom    7 type  1   force =     0.00000000    0.00000000    0.00000000
     atom    8 type  2   force =    -0.00003055    0.00003055    0.00003055
     atom    9 type  1   force =     0.00000000    0.00000000    0.00000000
     atom   10 type  2   force =     0.00003055   -0.00003055   -0.00003055
     atom   11 type  1   force =     0.00000000    0.00000000    0.00000000
     atom   12 type  2   force =     0.00003055   -0.00003055    0.00003055
     atom   13 type  1   force =     0.00000000    0.00000000    0.00000000
     atom   14 type  2   force =     0.00003055    0.00003055   -0.00003055
     atom   15 type  1   force =     0.00000000    0.00000000    0.00000000
     atom   16 type  2   force =     0.00003055    0.00003055    0.00003055

     Total force =     0.000150     Total SCF correction =     0.000461
     SCF correction compared to forces is large: reduce conv_thr to get better values


     Computing stress (Cartesian axis) and pressure

          total   stress  (Ry/bohr**3)                   (kbar)     P=  -82.92
  -0.00056366   0.00000000   0.00000000        -82.92      0.00      0.00
   0.00000000  -0.00056366   0.00000000          0.00    -82.92      0.00
   0.00000000   0.00000000  -0.00056366          0.00      0.00    -82.92


     Writing output data file uwHtYpxHzhxejRJJ.save/
 
     init_run     :      9.61s CPU     10.01s WALL (       1 calls)
     electrons    :    608.28s CPU    621.85s WALL (       1 calls)
     forces       :      3.36s CPU      3.51s WALL (       1 calls)
     stress       :     13.74s CPU     13.79s WALL (       1 calls)

     Called by init_run:
     wfcinit      :      8.91s CPU      9.24s WALL (       1 calls)
     potinit      :      0.34s CPU      0.36s WALL (       1 calls)
     hinit0       :      0.12s CPU      0.12s WALL (       1 calls)

     Called by electrons:
     c_bands      :    551.52s CPU    562.49s WALL (      18 calls)
     sum_band     :     49.94s CPU     51.98s WALL (      18 calls)
     v_of_rho     :      0.53s CPU      0.56s WALL (      18 calls)
     newd         :      1.26s CPU      1.52s WALL (      18 calls)
     PAW_pot      :      5.14s CPU      5.38s WALL (      18 calls)
     mix_rho      :      0.16s CPU      0.17s WALL (      18 calls)

     Called by c_bands:
     init_us_2    :      3.93s CPU      3.98s WALL (    2730 calls)
     cegterg      :    531.24s CPU    542.01s WALL (    1260 calls)

     Called by sum_band:
     sum_band:bec :      0.54s CPU      0.55s WALL (    1260 calls)
     addusdens    :      2.33s CPU      2.63s WALL (      18 calls)

     Called by *egterg:
     h_psi        :    224.38s CPU    231.77s WALL (    5464 calls)
     s_psi        :     21.67s CPU     21.76s WALL (    5464 calls)
     g_psi        :      1.22s CPU      1.23s WALL (    4134 calls)
     cdiaghg      :    215.36s CPU    215.94s WALL (    5324 calls)

     Called by h_psi:
     h_psi:pot    :    222.96s CPU    230.32s WALL (    5464 calls)
     h_psi:calbec :     24.09s CPU     25.78s WALL (    5464 calls)
     vloc_psi     :    177.43s CPU    183.03s WALL (    5464 calls)
     add_vuspsi   :     21.39s CPU     21.47s WALL (    5464 calls)

     General routines
     calbec       :     35.38s CPU     37.88s WALL (    7074 calls)
     fft          :      0.43s CPU      0.46s WALL (     492 calls)
     ffts         :      0.04s CPU      0.04s WALL (      72 calls)
     fftw         :    197.78s CPU    203.92s WALL ( 1022132 calls)
     interpolate  :      0.06s CPU      0.06s WALL (      36 calls)
 
     Parallel routines
     fft_scatt_xy :     15.70s CPU     16.21s WALL ( 1022696 calls)
     fft_scatt_yz :     99.37s CPU    102.72s WALL ( 1022696 calls)
 
     PWSCF        : 10m39.68s CPU    11m 3.60s WALL

 
   This run was terminated on:   6:53: 6  15Jun2020            

=------------------------------------------------------------------------------=
   JOB DONE.
=------------------------------------------------------------------------------=
