
     Program PWSCF v.6.3 starts on 16Jun2020 at  4:53:30 

     This program is part of the open-source Quantum ESPRESSO suite
     for quantum simulation of materials; please cite
         "P. Giannozzi et al., J. Phys.:Condens. Matter 21 395502 (2009);
         "P. Giannozzi et al., J. Phys.:Condens. Matter 29 465901 (2017);
          URL http://www.quantum-espresso.org", 
     in publications or presentations arising from this work. More details at
     http://www.quantum-espresso.org/quote

     Parallel version (MPI & OpenMP), running on      20 processor cores
     Number of MPI processes:                20
     Threads/MPI process:                     1

     MPI processes distributed on     1 nodes
     R & G space division:  proc/nbgrp/npool/nimage =      20
     Reading input from wd/relax/relax.in

     Current dimensions of program PWSCF are:
     Max number of different atomic species (ntypx) = 10
     Max number of k-points (npk) =  40000
     Max angular momentum in pseudopotentials (lmaxx) =  3
               file Fe.pbe-spn-kjpaw_psl.1.0.0.UPF: wavefunction(s)  3P 3D renormalized
               file Fe.pbe-spn-kjpaw_psl.1.0.0.UPF: wavefunction(s)  3P 3D renormalized
               file Fe.pbe-spn-kjpaw_psl.1.0.0.UPF: wavefunction(s)  3P 3D renormalized
               file Fe.pbe-spn-kjpaw_psl.1.0.0.UPF: wavefunction(s)  3P 3D renormalized

     Subspace diagonalization in iterative solution of the eigenvalue problem:
     a serial algorithm will be used

     Found symmetry operation: I + (  0.0000  0.0000 -0.5000)
     This is a supercell, fractional translations are disabled
 
     Parallelization info
     --------------------
     sticks:   dense  smooth     PW     G-vecs:    dense   smooth      PW
     Min         301     199     55                17227     9247    1331
     Max         302     201     56                17230     9250    1333
     Sum        6025    3993   1107               344569   184961   26639
 


     bravais-lattice index     =            0
     lattice parameter (alat)  =      12.9571  a.u.
     unit-cell volume          =    2287.6592 (a.u.)^3
     number of atoms/cell      =           32
     number of atomic types    =            4
     number of electrons       =       512.00
     number of Kohn-Sham states=          307
     kinetic-energy cutoff     =      71.0000  Ry
     charge density cutoff     =     430.0000  Ry
     convergence threshold     =      1.0E-06
     mixing beta               =       0.1000
     number of iterations used =           10  plain     mixing
     Exchange-correlation      = SLA PW PBX PBC ( 1  4  3  4 0 0)
     nstep                     =           40


     celldm(1)=  12.957143  celldm(2)=   0.000000  celldm(3)=   0.000000
     celldm(4)=   0.000000  celldm(5)=   0.000000  celldm(6)=   0.000000

     crystal axes: (cart. coord. in units of alat)
               a(1) = (   1.000000   0.000000   0.000000 )  
               a(2) = (   0.000000   1.051631   0.000000 )  
               a(3) = (   0.000000   0.000000   1.000000 )  

     reciprocal axes: (cart. coord. in units 2 pi/alat)
               b(1) = (  1.000000  0.000000  0.000000 )  
               b(2) = (  0.000000  0.950903  0.000000 )  
               b(3) = (  0.000000  0.000000  1.000000 )  


     PseudoPot. # 1 for Fe read from file:
     /rds/homes/b/bxp912/pp/Fe.pbe-spn-kjpaw_psl.1.0.0.UPF
     MD5 check sum: 42f43b795421b414b0dc916aa790dbcb
     Pseudo is Projector augmented-wave + core cor, Zval = 16.0
     Generated using "atomic" code by A. Dal Corso v.6.3
     Shape of augmentation charge: PSQ
     Using radial grid of 1191 points,  6 beta functions with: 
                l(1) =   0
                l(2) =   0
                l(3) =   1
                l(4) =   1
                l(5) =   2
                l(6) =   2
     Q(r) pseudized with 0 coefficients 


     PseudoPot. # 2 for Fe read from file:
     /rds/homes/b/bxp912/pp/Fe.pbe-spn-kjpaw_psl.1.0.0.UPF
     MD5 check sum: 42f43b795421b414b0dc916aa790dbcb
     Pseudo is Projector augmented-wave + core cor, Zval = 16.0
     Generated using "atomic" code by A. Dal Corso v.6.3
     Shape of augmentation charge: PSQ
     Using radial grid of 1191 points,  6 beta functions with: 
                l(1) =   0
                l(2) =   0
                l(3) =   1
                l(4) =   1
                l(5) =   2
                l(6) =   2
     Q(r) pseudized with 0 coefficients 


     PseudoPot. # 3 for Fe read from file:
     /rds/homes/b/bxp912/pp/Fe.pbe-spn-kjpaw_psl.1.0.0.UPF
     MD5 check sum: 42f43b795421b414b0dc916aa790dbcb
     Pseudo is Projector augmented-wave + core cor, Zval = 16.0
     Generated using "atomic" code by A. Dal Corso v.6.3
     Shape of augmentation charge: PSQ
     Using radial grid of 1191 points,  6 beta functions with: 
                l(1) =   0
                l(2) =   0
                l(3) =   1
                l(4) =   1
                l(5) =   2
                l(6) =   2
     Q(r) pseudized with 0 coefficients 


     PseudoPot. # 4 for Fe read from file:
     /rds/homes/b/bxp912/pp/Fe.pbe-spn-kjpaw_psl.1.0.0.UPF
     MD5 check sum: 42f43b795421b414b0dc916aa790dbcb
     Pseudo is Projector augmented-wave + core cor, Zval = 16.0
     Generated using "atomic" code by A. Dal Corso v.6.3
     Shape of augmentation charge: PSQ
     Using radial grid of 1191 points,  6 beta functions with: 
                l(1) =   0
                l(2) =   0
                l(3) =   1
                l(4) =   1
                l(5) =   2
                l(6) =   2
     Q(r) pseudized with 0 coefficients 


     atomic species   valence    mass     pseudopotential
        Fe1           16.00    55.84500     Fe( 1.00)
        Fe2           16.00    55.84500     Fe( 1.00)
        Fe3           16.00    55.84500     Fe( 1.00)
        Fe4           16.00    55.84500     Fe( 1.00)

     Starting magnetic structure 
     atomic species   magnetization
        Fe1          0.100
        Fe2         -0.100
        Fe3          0.100
        Fe4         -0.100

      8 Sym. Ops., with inversion, found



   Cartesian axes

     site n.     atom                  positions (alat units)
         1           Fe1 tau(   1) = (   0.0000000   0.0000000   0.0000000  )
         2           Fe2 tau(   2) = (   0.2500000   0.2629079   0.0000000  )
         3           Fe3 tau(   3) = (   0.2500000   0.0000000   0.2500000  )
         4           Fe4 tau(   4) = (   0.0000000   0.2629079   0.2500000  )
         5           Fe1 tau(   5) = (   0.0000000   0.0000000   0.5000000  )
         6           Fe2 tau(   6) = (   0.2500000   0.2629079   0.5000000  )
         7           Fe3 tau(   7) = (   0.2500000   0.0000000   0.7500000  )
         8           Fe4 tau(   8) = (   0.0000000   0.2629079   0.7500000  )
         9           Fe1 tau(   9) = (   0.0000000   0.5258157   0.0000000  )
        10           Fe2 tau(  10) = (   0.2500000   0.7887236   0.0000000  )
        11           Fe3 tau(  11) = (   0.2500000   0.5258157   0.2500000  )
        12           Fe4 tau(  12) = (   0.0000000   0.7887236   0.2500000  )
        13           Fe1 tau(  13) = (   0.0000000   0.5258157   0.5000000  )
        14           Fe2 tau(  14) = (   0.2500000   0.7887236   0.5000000  )
        15           Fe3 tau(  15) = (   0.2500000   0.5258157   0.7500000  )
        16           Fe4 tau(  16) = (   0.0000000   0.7887236   0.7500000  )
        17           Fe1 tau(  17) = (   0.5000000   0.0000000   0.0000000  )
        18           Fe2 tau(  18) = (   0.7500000   0.2629079   0.0000000  )
        19           Fe3 tau(  19) = (   0.7500000   0.0000000   0.2500000  )
        20           Fe4 tau(  20) = (   0.5000000   0.2629079   0.2500000  )
        21           Fe1 tau(  21) = (   0.5000000   0.0000000   0.5000000  )
        22           Fe2 tau(  22) = (   0.7500000   0.2629079   0.5000000  )
        23           Fe3 tau(  23) = (   0.7500000   0.0000000   0.7500000  )
        24           Fe4 tau(  24) = (   0.5000000   0.2629079   0.7500000  )
        25           Fe1 tau(  25) = (   0.5000000   0.5258157   0.0000000  )
        26           Fe2 tau(  26) = (   0.7500000   0.7887236   0.0000000  )
        27           Fe3 tau(  27) = (   0.7500000   0.5258157   0.2500000  )
        28           Fe4 tau(  28) = (   0.5000000   0.7887236   0.2500000  )
        29           Fe1 tau(  29) = (   0.5000000   0.5258157   0.5000000  )
        30           Fe2 tau(  30) = (   0.7500000   0.7887236   0.5000000  )
        31           Fe3 tau(  31) = (   0.7500000   0.5258157   0.7500000  )
        32           Fe4 tau(  32) = (   0.5000000   0.7887236   0.7500000  )

     number of k points=   125  Marzari-Vanderbilt smearing, width (Ry)=  0.0400

     Number of k-points >= 100: set verbosity='high' to print them.

     Dense  grid:   344569 G-vectors     FFT dimensions: (  90,  90,  90)

     Smooth grid:   184961 G-vectors     FFT dimensions: (  72,  75,  72)

     Estimated max dynamical RAM per process >       1.52 GB

     Estimated total dynamical RAM >      30.33 GB
     Generating pointlists ...
     new r_m :   0.1458 (alat units)  1.8897 (a.u.) for type    1
     new r_m :   0.1458 (alat units)  1.8897 (a.u.) for type    2
     new r_m :   0.1458 (alat units)  1.8897 (a.u.) for type    3
     new r_m :   0.1458 (alat units)  1.8897 (a.u.) for type    4

     Check: negative/imaginary core charge=   -0.000006    0.000000

     Initial potential from superposition of free atoms

     starting charge  511.98600, renormalised to  512.00000
     Starting wfcs are  320 randomized atomic wfcs
     Checking if some PAW data can be deallocated... 

     total cpu time spent up to now is      147.0 secs

     Self-consistent Calculation

     iteration #  1     ecut=    71.00 Ry     beta= 0.10
     Davidson diagonalization with overlap
     ethr =  1.00E-02,  avg # of iterations =  3.6

     Threshold (ethr) on eigenvalues was too large:
     Diagonalizing with lowered threshold

     Davidson diagonalization with overlap
     ethr =  3.18E-04,  avg # of iterations =  4.0

     total cpu time spent up to now is     1479.2 secs

     total energy              =  -10536.43345197 Ry
     Harris-Foulkes estimate   =  -10536.77456643 Ry
     estimated scf accuracy    <       1.87831963 Ry

     total magnetization       =     0.23 Bohr mag/cell
     absolute magnetization    =    44.20 Bohr mag/cell

     iteration #  2     ecut=    71.00 Ry     beta= 0.10
     Davidson diagonalization with overlap
     ethr =  3.67E-04,  avg # of iterations =  1.0

     total cpu time spent up to now is     1859.9 secs

     total energy              =  -10536.21420885 Ry
     Harris-Foulkes estimate   =  -10536.47900386 Ry
     estimated scf accuracy    <       1.11311503 Ry

     total magnetization       =    -0.12 Bohr mag/cell
     absolute magnetization    =    44.92 Bohr mag/cell

     iteration #  3     ecut=    71.00 Ry     beta= 0.10
     Davidson diagonalization with overlap
     ethr =  2.17E-04,  avg # of iterations =  2.3

     total cpu time spent up to now is     2344.4 secs

     total energy              =  -10536.08038707 Ry
     Harris-Foulkes estimate   =  -10536.35364527 Ry
     estimated scf accuracy    <       2.71148473 Ry

     total magnetization       =     0.24 Bohr mag/cell
     absolute magnetization    =    45.29 Bohr mag/cell

     iteration #  4     ecut=    71.00 Ry     beta= 0.10
     Davidson diagonalization with overlap
     ethr =  2.17E-04,  avg # of iterations =  2.4

     total cpu time spent up to now is     2831.8 secs

     total energy              =  -10536.18227793 Ry
     Harris-Foulkes estimate   =  -10536.21368659 Ry
     estimated scf accuracy    <       0.51862843 Ry

     total magnetization       =     0.35 Bohr mag/cell
     absolute magnetization    =    46.31 Bohr mag/cell

     iteration #  5     ecut=    71.00 Ry     beta= 0.10
     Davidson diagonalization with overlap
     ethr =  1.01E-04,  avg # of iterations =  1.4

     total cpu time spent up to now is     3237.7 secs

     total energy              =  -10536.19300060 Ry
     Harris-Foulkes estimate   =  -10536.20175975 Ry
     estimated scf accuracy    <       0.08316089 Ry

     total magnetization       =     0.02 Bohr mag/cell
     absolute magnetization    =    46.45 Bohr mag/cell

     iteration #  6     ecut=    71.00 Ry     beta= 0.10
     Davidson diagonalization with overlap
     ethr =  1.62E-05,  avg # of iterations =  3.4

     total cpu time spent up to now is     3794.4 secs

     total energy              =  -10536.18389754 Ry
     Harris-Foulkes estimate   =  -10536.19640399 Ry
     estimated scf accuracy    <       0.06758549 Ry

     total magnetization       =    -0.11 Bohr mag/cell
     absolute magnetization    =    46.40 Bohr mag/cell

     iteration #  7     ecut=    71.00 Ry     beta= 0.10
     Davidson diagonalization with overlap
     ethr =  1.32E-05,  avg # of iterations =  3.7

     total cpu time spent up to now is     4571.7 secs

     total energy              =  -10536.19858949 Ry
     Harris-Foulkes estimate   =  -10536.20557306 Ry
     estimated scf accuracy    <       0.08536137 Ry

     total magnetization       =     0.06 Bohr mag/cell
     absolute magnetization    =    46.56 Bohr mag/cell

     iteration #  8     ecut=    71.00 Ry     beta= 0.10
     Davidson diagonalization with overlap
     ethr =  1.32E-05,  avg # of iterations =  2.0

     total cpu time spent up to now is     5048.3 secs

     total energy              =  -10536.20392894 Ry
     Harris-Foulkes estimate   =  -10536.20286778 Ry
     estimated scf accuracy    <       0.04384605 Ry

     total magnetization       =     0.03 Bohr mag/cell
     absolute magnetization    =    46.89 Bohr mag/cell

     iteration #  9     ecut=    71.00 Ry     beta= 0.10
     Davidson diagonalization with overlap
     ethr =  8.56E-06,  avg # of iterations =  1.0

     total cpu time spent up to now is     5431.4 secs

     total energy              =  -10536.21781036 Ry
     Harris-Foulkes estimate   =  -10536.20469928 Ry
     estimated scf accuracy    <       0.03656678 Ry

     total magnetization       =    -0.01 Bohr mag/cell
     absolute magnetization    =    46.98 Bohr mag/cell

     iteration # 10     ecut=    71.00 Ry     beta= 0.10
     Davidson diagonalization with overlap
     ethr =  7.14E-06,  avg # of iterations =  3.1

     total cpu time spent up to now is     6041.7 secs

     total energy              =  -10536.23999506 Ry
     Harris-Foulkes estimate   =  -10536.22271625 Ry
     estimated scf accuracy    <       0.04565525 Ry

     total magnetization       =    -0.09 Bohr mag/cell
     absolute magnetization    =    47.40 Bohr mag/cell

     iteration # 11     ecut=    71.00 Ry     beta= 0.10
     Davidson diagonalization with overlap
     ethr =  7.14E-06,  avg # of iterations =  2.3

     total cpu time spent up to now is     6604.5 secs

     total energy              =  -10536.24850470 Ry
     Harris-Foulkes estimate   =  -10536.24736020 Ry
     estimated scf accuracy    <       0.02950192 Ry

     total magnetization       =    -0.11 Bohr mag/cell
     absolute magnetization    =    48.00 Bohr mag/cell

     iteration # 12     ecut=    71.00 Ry     beta= 0.10
     Davidson diagonalization with overlap
     ethr =  5.76E-06,  avg # of iterations =  1.5

     total cpu time spent up to now is     7026.3 secs

     total energy              =  -10536.24980634 Ry
     Harris-Foulkes estimate   =  -10536.25014631 Ry
     estimated scf accuracy    <       0.00774138 Ry

     total magnetization       =    -0.02 Bohr mag/cell
     absolute magnetization    =    48.25 Bohr mag/cell

     iteration # 13     ecut=    71.00 Ry     beta= 0.10
     Davidson diagonalization with overlap
     ethr =  1.51E-06,  avg # of iterations =  3.6

     total cpu time spent up to now is     7677.9 secs

     total energy              =  -10536.25065507 Ry
     Harris-Foulkes estimate   =  -10536.25071801 Ry
     estimated scf accuracy    <       0.00171747 Ry

     total magnetization       =    -0.01 Bohr mag/cell
     absolute magnetization    =    48.41 Bohr mag/cell

     iteration # 14     ecut=    71.00 Ry     beta= 0.10
     Davidson diagonalization with overlap
     ethr =  3.35E-07,  avg # of iterations =  1.0

     total cpu time spent up to now is     8055.8 secs

     total energy              =  -10536.25066378 Ry
     Harris-Foulkes estimate   =  -10536.25068386 Ry
     estimated scf accuracy    <       0.00127813 Ry

     total magnetization       =    -0.01 Bohr mag/cell
     absolute magnetization    =    48.43 Bohr mag/cell

     iteration # 15     ecut=    71.00 Ry     beta= 0.10
     Davidson diagonalization with overlap
     ethr =  2.50E-07,  avg # of iterations =  2.2

     total cpu time spent up to now is     8528.2 secs

     total energy              =  -10536.25087676 Ry
     Harris-Foulkes estimate   =  -10536.25073811 Ry
     estimated scf accuracy    <       0.00094783 Ry

     total magnetization       =    -0.01 Bohr mag/cell
     absolute magnetization    =    48.51 Bohr mag/cell

     iteration # 16     ecut=    71.00 Ry     beta= 0.10
     Davidson diagonalization with overlap
     ethr =  1.85E-07,  avg # of iterations =  1.4

     total cpu time spent up to now is     8937.4 secs

     total energy              =  -10536.25090555 Ry
     Harris-Foulkes estimate   =  -10536.25093855 Ry
     estimated scf accuracy    <       0.00078520 Ry

     total magnetization       =     0.01 Bohr mag/cell
     absolute magnetization    =    48.59 Bohr mag/cell

     iteration # 17     ecut=    71.00 Ry     beta= 0.10
     Davidson diagonalization with overlap
     ethr =  1.53E-07,  avg # of iterations =  1.2

     total cpu time spent up to now is     9337.2 secs

     total energy              =  -10536.25109693 Ry
     Harris-Foulkes estimate   =  -10536.25095228 Ry
     estimated scf accuracy    <       0.00060433 Ry

     total magnetization       =    -0.03 Bohr mag/cell
     absolute magnetization    =    48.63 Bohr mag/cell

     iteration # 18     ecut=    71.00 Ry     beta= 0.10
     Davidson diagonalization with overlap
     ethr =  1.18E-07,  avg # of iterations =  1.9

     total cpu time spent up to now is     9786.1 secs

     total energy              =  -10536.25123552 Ry
     Harris-Foulkes estimate   =  -10536.25113842 Ry
     estimated scf accuracy    <       0.00037413 Ry

     total magnetization       =    -0.00 Bohr mag/cell
     absolute magnetization    =    48.73 Bohr mag/cell

     iteration # 19     ecut=    71.00 Ry     beta= 0.10
     Davidson diagonalization with overlap
     ethr =  7.31E-08,  avg # of iterations =  2.3

     total cpu time spent up to now is    10258.5 secs

     total energy              =  -10536.25132894 Ry
     Harris-Foulkes estimate   =  -10536.25125512 Ry
     estimated scf accuracy    <       0.00030873 Ry

     total magnetization       =    -0.00 Bohr mag/cell
     absolute magnetization    =    48.81 Bohr mag/cell

     iteration # 20     ecut=    71.00 Ry     beta= 0.10
     Davidson diagonalization with overlap
     ethr =  6.03E-08,  avg # of iterations =  2.2

     total cpu time spent up to now is    10720.8 secs

     total energy              =  -10536.25145499 Ry
     Harris-Foulkes estimate   =  -10536.25134578 Ry
     estimated scf accuracy    <       0.00031213 Ry

     total magnetization       =    -0.01 Bohr mag/cell
     absolute magnetization    =    48.88 Bohr mag/cell

     iteration # 21     ecut=    71.00 Ry     beta= 0.10
     Davidson diagonalization with overlap
     ethr =  6.03E-08,  avg # of iterations =  2.8

     total cpu time spent up to now is    11250.2 secs

     total energy              =  -10536.25153461 Ry
     Harris-Foulkes estimate   =  -10536.25150108 Ry
     estimated scf accuracy    <       0.00015557 Ry

     total magnetization       =    -0.00 Bohr mag/cell
     absolute magnetization    =    49.04 Bohr mag/cell

     iteration # 22     ecut=    71.00 Ry     beta= 0.10
     Davidson diagonalization with overlap
     ethr =  3.04E-08,  avg # of iterations =  2.3

     total cpu time spent up to now is    11724.3 secs

     total energy              =  -10536.25155851 Ry
     Harris-Foulkes estimate   =  -10536.25154966 Ry
     estimated scf accuracy    <       0.00013022 Ry

     total magnetization       =    -0.00 Bohr mag/cell
     absolute magnetization    =    49.12 Bohr mag/cell

     iteration # 23     ecut=    71.00 Ry     beta= 0.10
     Davidson diagonalization with overlap
     ethr =  2.54E-08,  avg # of iterations =  1.4

     total cpu time spent up to now is    12131.3 secs

     total energy              =  -10536.25157453 Ry
     Harris-Foulkes estimate   =  -10536.25156383 Ry
     estimated scf accuracy    <       0.00010095 Ry

     total magnetization       =    -0.00 Bohr mag/cell
     absolute magnetization    =    49.15 Bohr mag/cell

     iteration # 24     ecut=    71.00 Ry     beta= 0.10
     Davidson diagonalization with overlap
     ethr =  1.97E-08,  avg # of iterations =  1.8

     total cpu time spent up to now is    12567.4 secs

     total energy              =  -10536.25158731 Ry
     Harris-Foulkes estimate   =  -10536.25157936 Ry
     estimated scf accuracy    <       0.00008292 Ry

     total magnetization       =    -0.00 Bohr mag/cell
     absolute magnetization    =    49.19 Bohr mag/cell

     iteration # 25     ecut=    71.00 Ry     beta= 0.10
     Davidson diagonalization with overlap
     ethr =  1.62E-08,  avg # of iterations =  2.2

     total cpu time spent up to now is    13027.7 secs

     total energy              =  -10536.25159712 Ry
     Harris-Foulkes estimate   =  -10536.25159423 Ry
     estimated scf accuracy    <       0.00008153 Ry

     total magnetization       =    -0.00 Bohr mag/cell
     absolute magnetization    =    49.24 Bohr mag/cell

     iteration # 26     ecut=    71.00 Ry     beta= 0.10
     Davidson diagonalization with overlap
     ethr =  1.59E-08,  avg # of iterations =  3.0

     total cpu time spent up to now is    13642.4 secs

     total energy              =  -10536.25162173 Ry
     Harris-Foulkes estimate   =  -10536.25161944 Ry
     estimated scf accuracy    <       0.00002221 Ry

     total magnetization       =    -0.00 Bohr mag/cell
     absolute magnetization    =    49.36 Bohr mag/cell

     iteration # 27     ecut=    71.00 Ry     beta= 0.10
     Davidson diagonalization with overlap
     ethr =  4.34E-09,  avg # of iterations =  1.1

     total cpu time spent up to now is    14027.9 secs

     total energy              =  -10536.25162479 Ry
     Harris-Foulkes estimate   =  -10536.25162299 Ry
     estimated scf accuracy    <       0.00001493 Ry

     total magnetization       =    -0.00 Bohr mag/cell
     absolute magnetization    =    49.39 Bohr mag/cell

     iteration # 28     ecut=    71.00 Ry     beta= 0.10
     Davidson diagonalization with overlap
     ethr =  2.92E-09,  avg # of iterations =  1.2

     total cpu time spent up to now is    14426.0 secs

     total energy              =  -10536.25162804 Ry
     Harris-Foulkes estimate   =  -10536.25162546 Ry
     estimated scf accuracy    <       0.00001297 Ry

     total magnetization       =    -0.00 Bohr mag/cell
     absolute magnetization    =    49.41 Bohr mag/cell

     iteration # 29     ecut=    71.00 Ry     beta= 0.10
     Davidson diagonalization with overlap
     ethr =  2.53E-09,  avg # of iterations =  1.3

     total cpu time spent up to now is    14824.8 secs

     total energy              =  -10536.25163061 Ry
     Harris-Foulkes estimate   =  -10536.25162865 Ry
     estimated scf accuracy    <       0.00000918 Ry

     total magnetization       =    -0.00 Bohr mag/cell
     absolute magnetization    =    49.42 Bohr mag/cell

     iteration # 30     ecut=    71.00 Ry     beta= 0.10
     Davidson diagonalization with overlap
     ethr =  1.79E-09,  avg # of iterations =  2.0

     total cpu time spent up to now is    15279.7 secs

     total energy              =  -10536.25163156 Ry
     Harris-Foulkes estimate   =  -10536.25163106 Ry
     estimated scf accuracy    <       0.00000767 Ry

     total magnetization       =     0.00 Bohr mag/cell
     absolute magnetization    =    49.44 Bohr mag/cell

     iteration # 31     ecut=    71.00 Ry     beta= 0.10
     Davidson diagonalization with overlap
     ethr =  1.50E-09,  avg # of iterations =  3.1

     total cpu time spent up to now is    15902.0 secs

     total energy              =  -10536.25163544 Ry
     Harris-Foulkes estimate   =  -10536.25163428 Ry
     estimated scf accuracy    <       0.00000687 Ry

     total magnetization       =    -0.00 Bohr mag/cell
     absolute magnetization    =    49.48 Bohr mag/cell

     iteration # 32     ecut=    71.00 Ry     beta= 0.10
     Davidson diagonalization with overlap
     ethr =  1.34E-09,  avg # of iterations =  1.4

     total cpu time spent up to now is    16309.9 secs

     total energy              =  -10536.25163679 Ry
     Harris-Foulkes estimate   =  -10536.25163591 Ry
     estimated scf accuracy    <       0.00000279 Ry

     total magnetization       =    -0.00 Bohr mag/cell
     absolute magnetization    =    49.49 Bohr mag/cell

     iteration # 33     ecut=    71.00 Ry     beta= 0.10
     Davidson diagonalization with overlap
     ethr =  5.44E-10,  avg # of iterations =  1.7

     total cpu time spent up to now is    16741.3 secs

     total energy              =  -10536.25163737 Ry
     Harris-Foulkes estimate   =  -10536.25163689 Ry
     estimated scf accuracy    <       0.00000203 Ry

     total magnetization       =    -0.00 Bohr mag/cell
     absolute magnetization    =    49.50 Bohr mag/cell

     iteration # 34     ecut=    71.00 Ry     beta= 0.10
     Davidson diagonalization with overlap
     ethr =  3.96E-10,  avg # of iterations =  1.9

     total cpu time spent up to now is    17184.8 secs

     total energy              =  -10536.25163812 Ry
     Harris-Foulkes estimate   =  -10536.25163745 Ry
     estimated scf accuracy    <       0.00000178 Ry

     total magnetization       =    -0.00 Bohr mag/cell
     absolute magnetization    =    49.50 Bohr mag/cell

     iteration # 35     ecut=    71.00 Ry     beta= 0.10
     Davidson diagonalization with overlap
     ethr =  3.47E-10,  avg # of iterations =  3.1
 
     Magnetic moment per site:
     atom:    1    charge:   14.3990    magn:    1.4901    constr:    0.0000
     atom:    2    charge:   14.3987    magn:   -1.4901    constr:    0.0000
     atom:    3    charge:   14.3980    magn:    1.4928    constr:    0.0000
     atom:    4    charge:   14.3983    magn:   -1.4942    constr:    0.0000
     atom:    5    charge:   14.3989    magn:    1.4909    constr:    0.0000
     atom:    6    charge:   14.3986    magn:   -1.4896    constr:    0.0000
     atom:    7    charge:   14.3980    magn:    1.4928    constr:    0.0000
     atom:    8    charge:   14.3983    magn:   -1.4942    constr:    0.0000
     atom:    9    charge:   14.3986    magn:    1.4909    constr:    0.0000
     atom:   10    charge:   14.3987    magn:   -1.4901    constr:    0.0000
     atom:   11    charge:   14.3979    magn:    1.4925    constr:    0.0000
     atom:   12    charge:   14.3983    magn:   -1.4942    constr:    0.0000
     atom:   13    charge:   14.3986    magn:    1.4916    constr:    0.0000
     atom:   14    charge:   14.3986    magn:   -1.4896    constr:    0.0000
     atom:   15    charge:   14.3979    magn:    1.4925    constr:    0.0000
     atom:   16    charge:   14.3983    magn:   -1.4942    constr:    0.0000
     atom:   17    charge:   14.3991    magn:    1.4912    constr:    0.0000
     atom:   18    charge:   14.3987    magn:   -1.4901    constr:    0.0000
     atom:   19    charge:   14.3980    magn:    1.4928    constr:    0.0000
     atom:   20    charge:   14.3982    magn:   -1.4934    constr:    0.0000
     atom:   21    charge:   14.3990    magn:    1.4916    constr:    0.0000
     atom:   22    charge:   14.3986    magn:   -1.4896    constr:    0.0000
     atom:   23    charge:   14.3980    magn:    1.4928    constr:    0.0000
     atom:   24    charge:   14.3982    magn:   -1.4934    constr:    0.0000
     atom:   25    charge:   14.3987    magn:    1.4904    constr:    0.0000
     atom:   26    charge:   14.3987    magn:   -1.4901    constr:    0.0000
     atom:   27    charge:   14.3979    magn:    1.4925    constr:    0.0000
     atom:   28    charge:   14.3982    magn:   -1.4934    constr:    0.0000
     atom:   29    charge:   14.3988    magn:    1.4906    constr:    0.0000
     atom:   30    charge:   14.3986    magn:   -1.4896    constr:    0.0000
     atom:   31    charge:   14.3979    magn:    1.4925    constr:    0.0000
     atom:   32    charge:   14.3982    magn:   -1.4934    constr:    0.0000

     total cpu time spent up to now is    17783.4 secs

     End of self-consistent calculation

     Number of k-points >= 100: set verbosity='high' to print the bands.

     the Fermi energy is    20.0791 ev

!    total energy              =  -10536.25163863 Ry
     Harris-Foulkes estimate   =  -10536.25163852 Ry
     estimated scf accuracy    <       0.00000097 Ry

     total all-electron energy =    -81457.740697 Ry

     The total energy is the sum of the following terms:

     one-electron contribution =   -3297.38039919 Ry
     hartree contribution      =    1998.25958197 Ry
     xc contribution           =    -886.90231928 Ry
     ewald contribution        =   -5700.67984722 Ry
     one-center paw contrib.   =   -2649.56066283 Ry
     smearing contrib. (-TS)   =       0.01200792 Ry

     total magnetization       =    -0.00 Bohr mag/cell
     absolute magnetization    =    49.51 Bohr mag/cell

     convergence has been achieved in  35 iterations

     Forces acting on atoms (cartesian axes, Ry/au):

     atom    1 type  1   force =     0.00000000    0.00000000    0.00000000
     atom    2 type  2   force =    -0.00005147    0.00005332   -0.00000000
     atom    3 type  3   force =    -0.00003765    0.00000000   -0.00003859
     atom    4 type  4   force =    -0.00000000    0.00000767    0.00006676
     atom    5 type  1   force =     0.00000000    0.00000000    0.00000000
     atom    6 type  2   force =    -0.00001893    0.00008860    0.00000000
     atom    7 type  3   force =    -0.00003765    0.00000000    0.00003859
     atom    8 type  4   force =     0.00000000    0.00000767   -0.00006676
     atom    9 type  1   force =     0.00000000    0.00000000    0.00000000
     atom   10 type  2   force =    -0.00005147   -0.00005332   -0.00000000
     atom   11 type  3   force =     0.00000371    0.00000000    0.00001610
     atom   12 type  4   force =     0.00000000   -0.00000767    0.00006676
     atom   13 type  1   force =     0.00000000    0.00000000    0.00000000
     atom   14 type  2   force =    -0.00001893   -0.00008860    0.00000000
     atom   15 type  3   force =     0.00000371   -0.00000000   -0.00001610
     atom   16 type  4   force =     0.00000000   -0.00000767   -0.00006676
     atom   17 type  1   force =     0.00000000    0.00000000    0.00000000
     atom   18 type  2   force =     0.00005147    0.00005332   -0.00000000
     atom   19 type  3   force =     0.00003765    0.00000000   -0.00003859
     atom   20 type  4   force =     0.00000000    0.00000679    0.00005148
     atom   21 type  1   force =     0.00000000    0.00000000    0.00000000
     atom   22 type  2   force =     0.00001893    0.00008860    0.00000000
     atom   23 type  3   force =     0.00003765    0.00000000    0.00003859
     atom   24 type  4   force =     0.00000000    0.00000679   -0.00005148
     atom   25 type  1   force =     0.00000000    0.00000000    0.00000000
     atom   26 type  2   force =     0.00005147   -0.00005332   -0.00000000
     atom   27 type  3   force =    -0.00000371    0.00000000    0.00001610
     atom   28 type  4   force =     0.00000000   -0.00000679    0.00005148
     atom   29 type  1   force =     0.00000000    0.00000000    0.00000000
     atom   30 type  2   force =     0.00001893   -0.00008860    0.00000000
     atom   31 type  3   force =    -0.00000371    0.00000000   -0.00001610
     atom   32 type  4   force =     0.00000000   -0.00000679   -0.00005148

     Total force =     0.000310     Total SCF correction =     0.004125
     SCF correction compared to forces is large: reduce conv_thr to get better values


     Computing stress (Cartesian axis) and pressure

          total   stress  (Ry/bohr**3)                   (kbar)     P=   -5.85
  -0.00005623   0.00000000   0.00000000         -8.27      0.00      0.00
   0.00000000  -0.00000677   0.00000000          0.00     -1.00      0.00
   0.00000000   0.00000000  -0.00005634          0.00      0.00     -8.29


     BFGS Geometry Optimization

     number of scf cycles    =   1
     number of bfgs steps    =   0

     enthalpy new            =  -10536.2516386299 Ry

     new trust radius        =       0.0134741067 bohr
     new conv_thr            =       0.0000010000 Ry

     new unit-cell volume =   2280.83937 a.u.^3 (   337.98552 Ang^3 )
     density =      8.77981 g/cm^3

CELL_PARAMETERS (alat= 12.95714297)
   0.998594136   0.000000000   0.000000000
   0.000000000   1.051453562   0.000000000
   0.000000000   0.000000000   0.998591443

ATOMIC_POSITIONS (crystal)
Fe1      0.000000000   0.000000000   0.000000000
Fe2      0.249996028   0.250003913  -0.000000000
Fe3      0.249997094   0.000000000   0.249997022
Fe4     -0.000000000   0.250000563   0.250005152
Fe1      0.000000000   0.000000000   0.500000000
Fe2      0.249998539   0.250006502   0.500000000
Fe3      0.249997094   0.000000000   0.750002978
Fe4      0.000000000   0.250000563   0.749994848
Fe1      0.000000000   0.500000000   0.000000000
Fe2      0.249996028   0.749996087  -0.000000000
Fe3      0.250000287   0.500000000   0.250001243
Fe4      0.000000000   0.749999437   0.250005152
Fe1      0.000000000   0.500000000   0.500000000
Fe2      0.249998539   0.749993498   0.500000000
Fe3      0.250000287   0.500000000   0.749998757
Fe4      0.000000000   0.749999437   0.749994848
Fe1      0.500000000   0.000000000   0.000000000
Fe2      0.750003972   0.250003913  -0.000000000
Fe3      0.750002906   0.000000000   0.249997022
Fe4      0.500000000   0.250000499   0.250003973
Fe1      0.500000000   0.000000000   0.500000000
Fe2      0.750001461   0.250006502   0.500000000
Fe3      0.750002906   0.000000000   0.750002978
Fe4      0.500000000   0.250000499   0.749996027
Fe1      0.500000000   0.500000000   0.000000000
Fe2      0.750003972   0.749996087  -0.000000000
Fe3      0.749999713   0.500000000   0.250001243
Fe4      0.500000000   0.749999501   0.250003973
Fe1      0.500000000   0.500000000   0.500000000
Fe2      0.750001461   0.749993498   0.500000000
Fe3      0.749999713   0.500000000   0.749998757
Fe4      0.500000000   0.749999501   0.749996027



     Writing output data file fbFIzmnGThoFrsLf.save/
     NEW-OLD atomic charge density approx. for the potential

     Check: negative/imaginary core charge=   -0.000006    0.000000
     extrapolated charge  510.46913, renormalised to  512.00000

     total cpu time spent up to now is    18474.0 secs

     Self-consistent Calculation

     iteration #  1     ecut=    71.00 Ry     beta= 0.10
     Davidson diagonalization with overlap
     ethr =  1.00E-06,  avg # of iterations =  4.3

     total cpu time spent up to now is    19751.3 secs

     total energy              =  -10536.16769268 Ry
     Harris-Foulkes estimate   =  -10544.57962514 Ry
     estimated scf accuracy    <       0.17862416 Ry

     total magnetization       =    -0.01 Bohr mag/cell
     absolute magnetization    =    49.91 Bohr mag/cell

     iteration #  2     ecut=    71.00 Ry     beta= 0.10
     Davidson diagonalization with overlap
     ethr =  3.49E-05,  avg # of iterations =  3.2

     total cpu time spent up to now is    20573.3 secs

     total energy              =  -10536.25456767 Ry
     Harris-Foulkes estimate   =  -10536.25846486 Ry
     estimated scf accuracy    <       0.03131991 Ry

     total magnetization       =     0.00 Bohr mag/cell
     absolute magnetization    =    49.28 Bohr mag/cell

     iteration #  3     ecut=    71.00 Ry     beta= 0.10
     Davidson diagonalization with overlap
     ethr =  6.12E-06,  avg # of iterations =  1.0

     total cpu time spent up to now is    20955.0 secs

     total energy              =  -10536.25461222 Ry
     Harris-Foulkes estimate   =  -10536.25552930 Ry
     estimated scf accuracy    <       0.02349518 Ry

     total magnetization       =    -0.00 Bohr mag/cell
     absolute magnetization    =    49.32 Bohr mag/cell

     iteration #  4     ecut=    71.00 Ry     beta= 0.10
     Davidson diagonalization with overlap
     ethr =  4.59E-06,  avg # of iterations =  1.0

     total cpu time spent up to now is    21330.0 secs

     total energy              =  -10536.25446072 Ry
     Harris-Foulkes estimate   =  -10536.25490688 Ry
     estimated scf accuracy    <       0.01391492 Ry

     total magnetization       =    -0.00 Bohr mag/cell
     absolute magnetization    =    49.33 Bohr mag/cell

     iteration #  5     ecut=    71.00 Ry     beta= 0.10
     Davidson diagonalization with overlap
     ethr =  2.72E-06,  avg # of iterations =  1.0

     total cpu time spent up to now is    21705.0 secs

     total energy              =  -10536.25391363 Ry
     Harris-Foulkes estimate   =  -10536.25449816 Ry
     estimated scf accuracy    <       0.01175733 Ry

     total magnetization       =    -0.00 Bohr mag/cell
     absolute magnetization    =    49.33 Bohr mag/cell

     iteration #  6     ecut=    71.00 Ry     beta= 0.10
     Davidson diagonalization with overlap
     ethr =  2.30E-06,  avg # of iterations =  1.0

     total cpu time spent up to now is    22080.2 secs

     total energy              =  -10536.25294041 Ry
     Harris-Foulkes estimate   =  -10536.25395770 Ry
     estimated scf accuracy    <       0.00914275 Ry

     total magnetization       =    -0.00 Bohr mag/cell
     absolute magnetization    =    49.34 Bohr mag/cell

     iteration #  7     ecut=    71.00 Ry     beta= 0.10
     Davidson diagonalization with overlap
     ethr =  1.79E-06,  avg # of iterations =  1.1

     total cpu time spent up to now is    22461.8 secs

     total energy              =  -10536.25165369 Ry
     Harris-Foulkes estimate   =  -10536.25303004 Ry
     estimated scf accuracy    <       0.00555449 Ry

     total magnetization       =    -0.00 Bohr mag/cell
     absolute magnetization    =    49.36 Bohr mag/cell

     iteration #  8     ecut=    71.00 Ry     beta= 0.10
     Davidson diagonalization with overlap
     ethr =  1.08E-06,  avg # of iterations =  2.2

     total cpu time spent up to now is    22946.8 secs

     total energy              =  -10536.25160531 Ry
     Harris-Foulkes estimate   =  -10536.25204485 Ry
     estimated scf accuracy    <       0.00086790 Ry

     total magnetization       =    -0.00 Bohr mag/cell
     absolute magnetization    =    49.38 Bohr mag/cell

     iteration #  9     ecut=    71.00 Ry     beta= 0.10
     Davidson diagonalization with overlap
     ethr =  1.70E-07,  avg # of iterations =  3.0

     total cpu time spent up to now is    23619.3 secs

     total energy              =  -10536.25211577 Ry
     Harris-Foulkes estimate   =  -10536.25183924 Ry
     estimated scf accuracy    <       0.00004734 Ry

     total magnetization       =    -0.00 Bohr mag/cell
     absolute magnetization    =    49.40 Bohr mag/cell

     iteration # 10     ecut=    71.00 Ry     beta= 0.10
     Davidson diagonalization with overlap
     ethr =  9.25E-09,  avg # of iterations =  4.0

     total cpu time spent up to now is    24901.1 secs

     total energy              =  -10536.25285633 Ry
     Harris-Foulkes estimate   =  -10536.25265640 Ry
     estimated scf accuracy    <       0.00392982 Ry

     total magnetization       =    -0.00 Bohr mag/cell
     absolute magnetization    =    49.43 Bohr mag/cell

     iteration # 11     ecut=    71.00 Ry     beta= 0.10
     Davidson diagonalization with overlap
     ethr =  9.25E-09,  avg # of iterations =  3.0

     total cpu time spent up to now is    25559.4 secs

     total energy              =  -10536.25287477 Ry
     Harris-Foulkes estimate   =  -10536.25286571 Ry
     estimated scf accuracy    <       0.00489108 Ry

     total magnetization       =    -0.00 Bohr mag/cell
     absolute magnetization    =    49.43 Bohr mag/cell

     iteration # 12     ecut=    71.00 Ry     beta= 0.10
     Davidson diagonalization with overlap
     ethr =  9.25E-09,  avg # of iterations =  1.0

     total cpu time spent up to now is    25940.5 secs

     total energy              =  -10536.25101594 Ry
     Harris-Foulkes estimate   =  -10536.25287553 Ry
     estimated scf accuracy    <       0.00491318 Ry

     total magnetization       =    -0.00 Bohr mag/cell
     absolute magnetization    =    49.42 Bohr mag/cell

     iteration # 13     ecut=    71.00 Ry     beta= 0.10
     Davidson diagonalization with overlap
     ethr =  9.25E-09,  avg # of iterations =  4.0

     total cpu time spent up to now is    27263.9 secs

     total energy              =  -10536.25177249 Ry
     Harris-Foulkes estimate   =  -10536.25178746 Ry
     estimated scf accuracy    <       0.00001360 Ry

     total magnetization       =    -0.00 Bohr mag/cell
     absolute magnetization    =    49.33 Bohr mag/cell

     iteration # 14     ecut=    71.00 Ry     beta= 0.10
     Davidson diagonalization with overlap
     ethr =  2.66E-09,  avg # of iterations =  1.1

     total cpu time spent up to now is    27653.2 secs

     total energy              =  -10536.25178857 Ry
     Harris-Foulkes estimate   =  -10536.25177308 Ry
     estimated scf accuracy    <       0.00001235 Ry

     total magnetization       =    -0.00 Bohr mag/cell
     absolute magnetization    =    49.34 Bohr mag/cell

     iteration # 15     ecut=    71.00 Ry     beta= 0.10
     Davidson diagonalization with overlap
     ethr =  2.41E-09,  avg # of iterations =  1.0

     total cpu time spent up to now is    28031.8 secs

     total energy              =  -10536.25179367 Ry
     Harris-Foulkes estimate   =  -10536.25178902 Ry
     estimated scf accuracy    <       0.00001076 Ry

     total magnetization       =    -0.00 Bohr mag/cell
     absolute magnetization    =    49.32 Bohr mag/cell

     iteration # 16     ecut=    71.00 Ry     beta= 0.10
     Davidson diagonalization with overlap
     ethr =  2.10E-09,  avg # of iterations =  1.0

     total cpu time spent up to now is    28411.7 secs

     total energy              =  -10536.25179393 Ry
     Harris-Foulkes estimate   =  -10536.25179384 Ry
     estimated scf accuracy    <       0.00000793 Ry

     total magnetization       =    -0.00 Bohr mag/cell
     absolute magnetization    =    49.31 Bohr mag/cell

     iteration # 17     ecut=    71.00 Ry     beta= 0.10
     Davidson diagonalization with overlap
     ethr =  1.55E-09,  avg # of iterations =  1.0

     total cpu time spent up to now is    28789.6 secs

     total energy              =  -10536.25179148 Ry
     Harris-Foulkes estimate   =  -10536.25179415 Ry
     estimated scf accuracy    <       0.00000400 Ry

     total magnetization       =    -0.00 Bohr mag/cell
     absolute magnetization    =    49.31 Bohr mag/cell

     iteration # 18     ecut=    71.00 Ry     beta= 0.10
     Davidson diagonalization with overlap
     ethr =  7.82E-10,  avg # of iterations =  1.0

     total cpu time spent up to now is    29167.8 secs

     total energy              =  -10536.25179422 Ry
     Harris-Foulkes estimate   =  -10536.25179155 Ry
     estimated scf accuracy    <       0.00000307 Ry

     total magnetization       =    -0.00 Bohr mag/cell
     absolute magnetization    =    49.30 Bohr mag/cell

     iteration # 19     ecut=    71.00 Ry     beta= 0.10
     Davidson diagonalization with overlap
     ethr =  6.00E-10,  avg # of iterations =  3.0
 
     Magnetic moment per site:
     atom:    1    charge:   14.3966    magn:    1.4840    constr:    0.0000
     atom:    2    charge:   14.3962    magn:   -1.4838    constr:    0.0000
     atom:    3    charge:   14.3957    magn:    1.4856    constr:    0.0000
     atom:    4    charge:   14.3963    magn:   -1.4861    constr:    0.0000
     atom:    5    charge:   14.3965    magn:    1.4843    constr:    0.0000
     atom:    6    charge:   14.3959    magn:   -1.4837    constr:    0.0000
     atom:    7    charge:   14.3957    magn:    1.4856    constr:    0.0000
     atom:    8    charge:   14.3963    magn:   -1.4861    constr:    0.0000
     atom:    9    charge:   14.3967    magn:    1.4841    constr:    0.0000
     atom:   10    charge:   14.3962    magn:   -1.4838    constr:    0.0000
     atom:   11    charge:   14.3957    magn:    1.4854    constr:    0.0000
     atom:   12    charge:   14.3963    magn:   -1.4861    constr:    0.0000
     atom:   13    charge:   14.3964    magn:    1.4842    constr:    0.0000
     atom:   14    charge:   14.3959    magn:   -1.4837    constr:    0.0000
     atom:   15    charge:   14.3957    magn:    1.4854    constr:    0.0000
     atom:   16    charge:   14.3963    magn:   -1.4861    constr:    0.0000
     atom:   17    charge:   14.3966    magn:    1.4844    constr:    0.0000
     atom:   18    charge:   14.3962    magn:   -1.4838    constr:    0.0000
     atom:   19    charge:   14.3957    magn:    1.4856    constr:    0.0000
     atom:   20    charge:   14.3963    magn:   -1.4860    constr:    0.0000
     atom:   21    charge:   14.3965    magn:    1.4845    constr:    0.0000
     atom:   22    charge:   14.3959    magn:   -1.4837    constr:    0.0000
     atom:   23    charge:   14.3957    magn:    1.4856    constr:    0.0000
     atom:   24    charge:   14.3963    magn:   -1.4860    constr:    0.0000
     atom:   25    charge:   14.3968    magn:    1.4841    constr:    0.0000
     atom:   26    charge:   14.3962    magn:   -1.4838    constr:    0.0000
     atom:   27    charge:   14.3957    magn:    1.4854    constr:    0.0000
     atom:   28    charge:   14.3963    magn:   -1.4860    constr:    0.0000
     atom:   29    charge:   14.3964    magn:    1.4841    constr:    0.0000
     atom:   30    charge:   14.3959    magn:   -1.4837    constr:    0.0000
     atom:   31    charge:   14.3957    magn:    1.4854    constr:    0.0000
     atom:   32    charge:   14.3963    magn:   -1.4860    constr:    0.0000

     total cpu time spent up to now is    29811.3 secs

     End of self-consistent calculation

     Number of k-points >= 100: set verbosity='high' to print the bands.

     the Fermi energy is    20.1475 ev

!    total energy              =  -10536.25176561 Ry
     Harris-Foulkes estimate   =  -10536.25179490 Ry
     estimated scf accuracy    <       0.00000095 Ry

     total all-electron energy =    -81457.740824 Ry

     The total energy is the sum of the following terms:

     one-electron contribution =   -3288.52905332 Ry
     hartree contribution      =    1995.14171391 Ry
     xc contribution           =    -886.97659404 Ry
     ewald contribution        =   -5706.33929698 Ry
     one-center paw contrib.   =   -2649.56202015 Ry
     smearing contrib. (-TS)   =       0.01348497 Ry

     total magnetization       =    -0.00 Bohr mag/cell
     absolute magnetization    =    49.29 Bohr mag/cell

     convergence has been achieved in  19 iterations

     Forces acting on atoms (cartesian axes, Ry/au):

     atom    1 type  1   force =     0.00000000    0.00000000    0.00000000
     atom    2 type  2   force =    -0.00002344   -0.00000543    0.00000000
     atom    3 type  3   force =    -0.00001221    0.00000000   -0.00001046
     atom    4 type  4   force =     0.00000000   -0.00000122    0.00005355
     atom    5 type  1   force =     0.00000000    0.00000000    0.00000000
     atom    6 type  2   force =    -0.00000499    0.00005019    0.00000000
     atom    7 type  3   force =    -0.00001221    0.00000000    0.00001046
     atom    8 type  4   force =    -0.00000000   -0.00000122   -0.00005355
     atom    9 type  1   force =     0.00000000    0.00000000    0.00000000
     atom   10 type  2   force =    -0.00002344    0.00000543   -0.00000000
     atom   11 type  3   force =     0.00000376    0.00000000    0.00005823
     atom   12 type  4   force =    -0.00000000    0.00000122    0.00005355
     atom   13 type  1   force =     0.00000000    0.00000000    0.00000000
     atom   14 type  2   force =    -0.00000499   -0.00005019    0.00000000
     atom   15 type  3   force =     0.00000376    0.00000000   -0.00005823
     atom   16 type  4   force =     0.00000000    0.00000122   -0.00005355
     atom   17 type  1   force =     0.00000000    0.00000000    0.00000000
     atom   18 type  2   force =     0.00002344   -0.00000543   -0.00000000
     atom   19 type  3   force =     0.00001221    0.00000000   -0.00001046
     atom   20 type  4   force =     0.00000000   -0.00000478    0.00004509
     atom   21 type  1   force =     0.00000000    0.00000000    0.00000000
     atom   22 type  2   force =     0.00000499    0.00005019    0.00000000
     atom   23 type  3   force =     0.00001221   -0.00000000    0.00001046
     atom   24 type  4   force =    -0.00000000   -0.00000478   -0.00004509
     atom   25 type  1   force =     0.00000000    0.00000000    0.00000000
     atom   26 type  2   force =     0.00002344    0.00000543    0.00000000
     atom   27 type  3   force =    -0.00000376    0.00000000    0.00005823
     atom   28 type  4   force =    -0.00000000    0.00000478    0.00004509
     atom   29 type  1   force =     0.00000000    0.00000000    0.00000000
     atom   30 type  2   force =     0.00000499   -0.00005019    0.00000000
     atom   31 type  3   force =    -0.00000376    0.00000000   -0.00005823
     atom   32 type  4   force =     0.00000000    0.00000478   -0.00004509

     Total force =     0.000216     Total SCF correction =     0.004337
     SCF correction compared to forces is large: reduce conv_thr to get better values


     Computing stress (Cartesian axis) and pressure

          total   stress  (Ry/bohr**3)                   (kbar)     P=    5.40
   0.00003102   0.00000000   0.00000000          4.56      0.00      0.00
   0.00000000   0.00004810   0.00000000          0.00      7.08      0.00
   0.00000000   0.00000000   0.00003093          0.00      0.00      4.55


     number of scf cycles    =   2
     number of bfgs steps    =   1

     enthalpy old            =  -10536.2516386299 Ry
     enthalpy new            =  -10536.2517656109 Ry

     CASE: enthalpy_new < enthalpy_old

     new trust radius        =       0.0069839643 bohr
     new conv_thr            =       0.0000000100 Ry

     new unit-cell volume =   2283.95194 a.u.^3 (   338.44676 Ang^3 )
     density =      8.76785 g/cm^3

CELL_PARAMETERS (alat= 12.95714297)
   0.998910958   0.000000000   0.000000000
   0.000000000   1.052222364   0.000000000
   0.000000000   0.000000000   0.998906649

ATOMIC_POSITIONS (crystal)
Fe1      0.000000000   0.000000000   0.000000000
Fe2      0.249994421   0.250004132  -0.000000000
Fe3      0.249996157   0.000000000   0.249996160
Fe4     -0.000000000   0.250000574   0.250008355
Fe1      0.000000000   0.000000000   0.500000000
Fe2      0.249998123   0.250009588   0.500000000
Fe3      0.249996157   0.000000000   0.750003840
Fe4     -0.000000000   0.250000574   0.749991645
Fe1      0.000000000   0.500000000   0.000000000
Fe2      0.249994421   0.749995868  -0.000000000
Fe3      0.250000502   0.500000000   0.250004203
Fe4      0.000000000   0.749999426   0.250008355
Fe1      0.000000000   0.500000000   0.500000000
Fe2      0.249998123   0.749990412   0.500000000
Fe3      0.250000502   0.500000000   0.749995797
Fe4      0.000000000   0.749999426   0.749991645
Fe1      0.500000000   0.000000000   0.000000000
Fe2      0.750005579   0.250004132  -0.000000000
Fe3      0.750003843   0.000000000   0.249996160
Fe4      0.500000000   0.250000339   0.250006626
Fe1      0.500000000   0.000000000   0.500000000
Fe2      0.750001877   0.250009588   0.500000000
Fe3      0.750003843  -0.000000000   0.750003840
Fe4      0.500000000   0.250000339   0.749993374
Fe1      0.500000000   0.500000000   0.000000000
Fe2      0.750005579   0.749995868  -0.000000000
Fe3      0.749999498   0.500000000   0.250004203
Fe4      0.500000000   0.749999661   0.250006626
Fe1      0.500000000   0.500000000   0.500000000
Fe2      0.750001877   0.749990412   0.500000000
Fe3      0.749999498   0.500000000   0.749995797
Fe4      0.500000000   0.749999661   0.749993374



     Writing output data file fbFIzmnGThoFrsLf.save/
     NEW-OLD atomic charge density approx. for the potential

     Check: negative/imaginary core charge=   -0.000006    0.000000
     extrapolated charge  512.69774, renormalised to  512.00000

     total cpu time spent up to now is    30501.4 secs

     Self-consistent Calculation

     iteration #  1     ecut=    71.00 Ry     beta= 0.10
     Davidson diagonalization with overlap
     ethr =  1.00E-06,  avg # of iterations =  4.0

     total cpu time spent up to now is    31643.8 secs

     total energy              =  -10536.23457400 Ry
     Harris-Foulkes estimate   =  -10532.47749371 Ry
     estimated scf accuracy    <       0.03683031 Ry

     total magnetization       =    -0.01 Bohr mag/cell
     absolute magnetization    =    49.12 Bohr mag/cell

     iteration #  2     ecut=    71.00 Ry     beta= 0.10
     Davidson diagonalization with overlap
     ethr =  7.19E-06,  avg # of iterations =  3.2

     total cpu time spent up to now is    32470.4 secs

     total energy              =  -10536.25188638 Ry
     Harris-Foulkes estimate   =  -10536.25326347 Ry
     estimated scf accuracy    <       0.01158989 Ry

     total magnetization       =     0.00 Bohr mag/cell
     absolute magnetization    =    49.42 Bohr mag/cell

     iteration #  3     ecut=    71.00 Ry     beta= 0.10
     Davidson diagonalization with overlap
     ethr =  2.26E-06,  avg # of iterations =  1.2

     total cpu time spent up to now is    32864.1 secs

     total energy              =  -10536.25205081 Ry
     Harris-Foulkes estimate   =  -10536.25289935 Ry
     estimated scf accuracy    <       0.01791871 Ry

     total magnetization       =    -0.00 Bohr mag/cell
     absolute magnetization    =    49.40 Bohr mag/cell

     iteration #  4     ecut=    71.00 Ry     beta= 0.10
     Davidson diagonalization with overlap
     ethr =  2.26E-06,  avg # of iterations =  1.0

     total cpu time spent up to now is    33242.2 secs

     total energy              =  -10536.25233358 Ry
     Harris-Foulkes estimate   =  -10536.25242294 Ry
     estimated scf accuracy    <       0.00287233 Ry

     total magnetization       =    -0.00 Bohr mag/cell
     absolute magnetization    =    49.40 Bohr mag/cell

     iteration #  5     ecut=    71.00 Ry     beta= 0.10
     Davidson diagonalization with overlap
     ethr =  5.61E-07,  avg # of iterations =  1.0

     total cpu time spent up to now is    33618.5 secs

     total energy              =  -10536.25227960 Ry
     Harris-Foulkes estimate   =  -10536.25234308 Ry
     estimated scf accuracy    <       0.00240895 Ry

     total magnetization       =    -0.00 Bohr mag/cell
     absolute magnetization    =    49.40 Bohr mag/cell

     iteration #  6     ecut=    71.00 Ry     beta= 0.10
     Davidson diagonalization with overlap
     ethr =  4.70E-07,  avg # of iterations =  1.0

     total cpu time spent up to now is    33995.3 secs

     total energy              =  -10536.25222080 Ry
     Harris-Foulkes estimate   =  -10536.25228353 Ry
     estimated scf accuracy    <       0.00211309 Ry

     total magnetization       =    -0.00 Bohr mag/cell
     absolute magnetization    =    49.40 Bohr mag/cell

     iteration #  7     ecut=    71.00 Ry     beta= 0.10
     Davidson diagonalization with overlap
     ethr =  4.13E-07,  avg # of iterations =  1.0

     total cpu time spent up to now is    34369.9 secs

     total energy              =  -10536.25199989 Ry
     Harris-Foulkes estimate   =  -10536.25222345 Ry
     estimated scf accuracy    <       0.00184745 Ry

     total magnetization       =    -0.00 Bohr mag/cell
     absolute magnetization    =    49.40 Bohr mag/cell

     iteration #  8     ecut=    71.00 Ry     beta= 0.10
     Davidson diagonalization with overlap
     ethr =  3.61E-07,  avg # of iterations =  1.1

     total cpu time spent up to now is    34753.6 secs

     total energy              =  -10536.25147460 Ry
     Harris-Foulkes estimate   =  -10536.25202305 Ry
     estimated scf accuracy    <       0.00102033 Ry

     total magnetization       =    -0.00 Bohr mag/cell
     absolute magnetization    =    49.39 Bohr mag/cell

     iteration #  9     ecut=    71.00 Ry     beta= 0.10
     Davidson diagonalization with overlap
     ethr =  1.99E-07,  avg # of iterations =  3.1

     total cpu time spent up to now is    35441.0 secs

     total energy              =  -10536.25229742 Ry
     Harris-Foulkes estimate   =  -10536.25183783 Ry
     estimated scf accuracy    <       0.00019168 Ry

     total magnetization       =    -0.00 Bohr mag/cell
     absolute magnetization    =    49.37 Bohr mag/cell

     iteration # 10     ecut=    71.00 Ry     beta= 0.10
     Davidson diagonalization with overlap
     ethr =  3.74E-08,  avg # of iterations =  3.9

     total cpu time spent up to now is    36524.9 secs

     total energy              =  -10536.25373304 Ry
     Harris-Foulkes estimate   =  -10536.25275150 Ry
     estimated scf accuracy    <       0.00426449 Ry

     total magnetization       =    -0.00 Bohr mag/cell
     absolute magnetization    =    49.35 Bohr mag/cell

     iteration # 11     ecut=    71.00 Ry     beta= 0.10
     Davidson diagonalization with overlap
     ethr =  3.74E-08,  avg # of iterations =  3.4

     total cpu time spent up to now is    37492.4 secs

     total energy              =  -10536.25344834 Ry
     Harris-Foulkes estimate   =  -10536.25389688 Ry
     estimated scf accuracy    <       0.00926243 Ry

     total magnetization       =    -0.00 Bohr mag/cell
     absolute magnetization    =    49.34 Bohr mag/cell

     iteration # 12     ecut=    71.00 Ry     beta= 0.10
     Davidson diagonalization with overlap
     ethr =  3.74E-08,  avg # of iterations =  2.9

     total cpu time spent up to now is    38066.7 secs

     total energy              =  -10536.25057798 Ry
     Harris-Foulkes estimate   =  -10536.25346763 Ry
     estimated scf accuracy    <       0.00733311 Ry

     total magnetization       =    -0.00 Bohr mag/cell
     absolute magnetization    =    49.37 Bohr mag/cell

     iteration # 13     ecut=    71.00 Ry     beta= 0.10
     Davidson diagonalization with overlap
     ethr =  3.74E-08,  avg # of iterations =  4.0

     total cpu time spent up to now is    39224.9 secs

     total energy              =  -10536.25181376 Ry
     Harris-Foulkes estimate   =  -10536.25179812 Ry
     estimated scf accuracy    <       0.00000213 Ry

     total magnetization       =    -0.00 Bohr mag/cell
     absolute magnetization    =    49.43 Bohr mag/cell

     iteration # 14     ecut=    71.00 Ry     beta= 0.10
     Davidson diagonalization with overlap
     ethr =  4.17E-10,  avg # of iterations =  3.0

     total cpu time spent up to now is    39877.4 secs

     total energy              =  -10536.25181002 Ry
     Harris-Foulkes estimate   =  -10536.25181476 Ry
     estimated scf accuracy    <       0.00000113 Ry

     total magnetization       =    -0.00 Bohr mag/cell
     absolute magnetization    =    49.46 Bohr mag/cell

     iteration # 15     ecut=    71.00 Ry     beta= 0.10
     Davidson diagonalization with overlap
     ethr =  2.21E-10,  avg # of iterations =  1.0

     total cpu time spent up to now is    40259.7 secs

     total energy              =  -10536.25181080 Ry
     Harris-Foulkes estimate   =  -10536.25181010 Ry
     estimated scf accuracy    <       0.00000072 Ry

     total magnetization       =    -0.00 Bohr mag/cell
     absolute magnetization    =    49.46 Bohr mag/cell

     iteration # 16     ecut=    71.00 Ry     beta= 0.10
     Davidson diagonalization with overlap
     ethr =  1.41E-10,  avg # of iterations =  1.7

     total cpu time spent up to now is    40688.2 secs

     total energy              =  -10536.25180700 Ry
     Harris-Foulkes estimate   =  -10536.25181083 Ry
     estimated scf accuracy    <       0.00000058 Ry

     total magnetization       =    -0.00 Bohr mag/cell
     absolute magnetization    =    49.46 Bohr mag/cell

     iteration # 17     ecut=    71.00 Ry     beta= 0.10
     Davidson diagonalization with overlap
     ethr =  1.14E-10,  avg # of iterations =  1.0

     total cpu time spent up to now is    41069.0 secs

     total energy              =  -10536.25180373 Ry
     Harris-Foulkes estimate   =  -10536.25180701 Ry
     estimated scf accuracy    <       0.00000068 Ry

     total magnetization       =    -0.00 Bohr mag/cell
     absolute magnetization    =    49.46 Bohr mag/cell

     iteration # 18     ecut=    71.00 Ry     beta= 0.10
     Davidson diagonalization with overlap
     ethr =  1.14E-10,  avg # of iterations =  1.0

     total cpu time spent up to now is    41448.1 secs

     total energy              =  -10536.25180110 Ry
     Harris-Foulkes estimate   =  -10536.25180375 Ry
     estimated scf accuracy    <       0.00000051 Ry

     total magnetization       =    -0.00 Bohr mag/cell
     absolute magnetization    =    49.46 Bohr mag/cell

     iteration # 19     ecut=    71.00 Ry     beta= 0.10
     Davidson diagonalization with overlap
     ethr =  9.91E-11,  avg # of iterations =  1.0

     total cpu time spent up to now is    41827.0 secs

     total energy              =  -10536.25179331 Ry
     Harris-Foulkes estimate   =  -10536.25180113 Ry
     estimated scf accuracy    <       0.00000054 Ry

     total magnetization       =    -0.00 Bohr mag/cell
     absolute magnetization    =    49.46 Bohr mag/cell

     iteration # 20     ecut=    71.00 Ry     beta= 0.10
     Davidson diagonalization with overlap
     ethr =  9.91E-11,  avg # of iterations =  3.1

     total cpu time spent up to now is    42669.6 secs

     total energy              =  -10536.25179339 Ry
     Harris-Foulkes estimate   =  -10536.25179360 Ry
     estimated scf accuracy    <       0.00000010 Ry

     total magnetization       =    -0.00 Bohr mag/cell
     absolute magnetization    =    49.47 Bohr mag/cell

     iteration # 21     ecut=    71.00 Ry     beta= 0.10
     Davidson diagonalization with overlap
     ethr =  1.89E-11,  avg # of iterations =  2.0

     total cpu time spent up to now is    43158.6 secs

     total energy              =  -10536.25179346 Ry
     Harris-Foulkes estimate   =  -10536.25179340 Ry
     estimated scf accuracy    <       0.00000007 Ry

     total magnetization       =    -0.00 Bohr mag/cell
     absolute magnetization    =    49.46 Bohr mag/cell

     iteration # 22     ecut=    71.00 Ry     beta= 0.10
     Davidson diagonalization with overlap
     ethr =  1.32E-11,  avg # of iterations =  1.5

     total cpu time spent up to now is    43570.9 secs

     total energy              =  -10536.25179363 Ry
     Harris-Foulkes estimate   =  -10536.25179346 Ry
     estimated scf accuracy    <       0.00000006 Ry

     total magnetization       =    -0.00 Bohr mag/cell
     absolute magnetization    =    49.46 Bohr mag/cell

     iteration # 23     ecut=    71.00 Ry     beta= 0.10
     Davidson diagonalization with overlap
     ethr =  1.23E-11,  avg # of iterations =  2.1

     total cpu time spent up to now is    44075.8 secs

     total energy              =  -10536.25179381 Ry
     Harris-Foulkes estimate   =  -10536.25179365 Ry
     estimated scf accuracy    <       0.00000006 Ry

     total magnetization       =    -0.00 Bohr mag/cell
     absolute magnetization    =    49.47 Bohr mag/cell

     iteration # 24     ecut=    71.00 Ry     beta= 0.10
     Davidson diagonalization with overlap
     ethr =  1.14E-11,  avg # of iterations =  1.0

     total cpu time spent up to now is    44455.9 secs

     total energy              =  -10536.25179349 Ry
     Harris-Foulkes estimate   =  -10536.25179382 Ry
     estimated scf accuracy    <       0.00000002 Ry

     total magnetization       =    -0.00 Bohr mag/cell
     absolute magnetization    =    49.47 Bohr mag/cell

     iteration # 25     ecut=    71.00 Ry     beta= 0.10
     Davidson diagonalization with overlap
     ethr =  4.71E-12,  avg # of iterations =  2.4

     total cpu time spent up to now is    45102.6 secs

     total energy              =  -10536.25179350 Ry
     Harris-Foulkes estimate   =  -10536.25179350 Ry
     estimated scf accuracy    <       0.00000001 Ry

     total magnetization       =    -0.00 Bohr mag/cell
     absolute magnetization    =    49.47 Bohr mag/cell

     iteration # 26     ecut=    71.00 Ry     beta= 0.10
     Davidson diagonalization with overlap
     ethr =  2.64E-12,  avg # of iterations =  1.7
 
     Magnetic moment per site:
     atom:    1    charge:   14.3976    magn:    1.4898    constr:    0.0000
     atom:    2    charge:   14.3972    magn:   -1.4898    constr:    0.0000
     atom:    3    charge:   14.3967    magn:    1.4909    constr:    0.0000
     atom:    4    charge:   14.3972    magn:   -1.4910    constr:    0.0000
     atom:    5    charge:   14.3976    magn:    1.4899    constr:    0.0000
     atom:    6    charge:   14.3972    magn:   -1.4898    constr:    0.0000
     atom:    7    charge:   14.3967    magn:    1.4909    constr:    0.0000
     atom:    8    charge:   14.3972    magn:   -1.4910    constr:    0.0000
     atom:    9    charge:   14.3976    magn:    1.4898    constr:    0.0000
     atom:   10    charge:   14.3972    magn:   -1.4898    constr:    0.0000
     atom:   11    charge:   14.3968    magn:    1.4907    constr:    0.0000
     atom:   12    charge:   14.3972    magn:   -1.4910    constr:    0.0000
     atom:   13    charge:   14.3977    magn:    1.4896    constr:    0.0000
     atom:   14    charge:   14.3972    magn:   -1.4898    constr:    0.0000
     atom:   15    charge:   14.3968    magn:    1.4907    constr:    0.0000
     atom:   16    charge:   14.3972    magn:   -1.4910    constr:    0.0000
     atom:   17    charge:   14.3976    magn:    1.4901    constr:    0.0000
     atom:   18    charge:   14.3972    magn:   -1.4898    constr:    0.0000
     atom:   19    charge:   14.3967    magn:    1.4909    constr:    0.0000
     atom:   20    charge:   14.3972    magn:   -1.4910    constr:    0.0000
     atom:   21    charge:   14.3976    magn:    1.4900    constr:    0.0000
     atom:   22    charge:   14.3972    magn:   -1.4898    constr:    0.0000
     atom:   23    charge:   14.3967    magn:    1.4909    constr:    0.0000
     atom:   24    charge:   14.3972    magn:   -1.4910    constr:    0.0000
     atom:   25    charge:   14.3976    magn:    1.4899    constr:    0.0000
     atom:   26    charge:   14.3972    magn:   -1.4898    constr:    0.0000
     atom:   27    charge:   14.3968    magn:    1.4907    constr:    0.0000
     atom:   28    charge:   14.3972    magn:   -1.4910    constr:    0.0000
     atom:   29    charge:   14.3977    magn:    1.4896    constr:    0.0000
     atom:   30    charge:   14.3972    magn:   -1.4898    constr:    0.0000
     atom:   31    charge:   14.3968    magn:    1.4907    constr:    0.0000
     atom:   32    charge:   14.3972    magn:   -1.4910    constr:    0.0000

     total cpu time spent up to now is    45528.0 secs

     End of self-consistent calculation

     Number of k-points >= 100: set verbosity='high' to print the bands.

     the Fermi energy is    20.1164 ev

!    total energy              =  -10536.25179348 Ry
     Harris-Foulkes estimate   =  -10536.25179350 Ry
     estimated scf accuracy    <          6.6E-09 Ry

     total all-electron energy =    -81457.740851 Ry

     The total energy is the sum of the following terms:

     one-electron contribution =   -3292.59420087 Ry
     hartree contribution      =    1996.57850576 Ry
     xc contribution           =    -886.94821887 Ry
     ewald contribution        =   -5703.74020431 Ry
     one-center paw contrib.   =   -2649.56125508 Ry
     smearing contrib. (-TS)   =       0.01357989 Ry

     total magnetization       =    -0.00 Bohr mag/cell
     absolute magnetization    =    49.47 Bohr mag/cell

     convergence has been achieved in  26 iterations

     Forces acting on atoms (cartesian axes, Ry/au):

     atom    1 type  1   force =     0.00000000    0.00000000    0.00000000
     atom    2 type  2   force =     0.00001725   -0.00000975    0.00000000
     atom    3 type  3   force =     0.00001339    0.00000000    0.00001361
     atom    4 type  4   force =     0.00000000    0.00000198   -0.00003432
     atom    5 type  1   force =     0.00000000    0.00000000    0.00000000
     atom    6 type  2   force =     0.00000926   -0.00003790    0.00000000
     atom    7 type  3   force =     0.00001339    0.00000000   -0.00001361
     atom    8 type  4   force =     0.00000000    0.00000198    0.00003432
     atom    9 type  1   force =     0.00000000    0.00000000    0.00000000
     atom   10 type  2   force =     0.00001725    0.00000975   -0.00000000
     atom   11 type  3   force =    -0.00000209    0.00000000   -0.00002360
     atom   12 type  4   force =     0.00000000   -0.00000198   -0.00003432
     atom   13 type  1   force =     0.00000000    0.00000000    0.00000000
     atom   14 type  2   force =     0.00000926    0.00003790    0.00000000
     atom   15 type  3   force =    -0.00000209    0.00000000    0.00002360
     atom   16 type  4   force =     0.00000000   -0.00000198    0.00003432
     atom   17 type  1   force =     0.00000000    0.00000000    0.00000000
     atom   18 type  2   force =    -0.00001725   -0.00000975   -0.00000000
     atom   19 type  3   force =    -0.00001339    0.00000000    0.00001361
     atom   20 type  4   force =     0.00000000   -0.00000196   -0.00003244
     atom   21 type  1   force =     0.00000000    0.00000000    0.00000000
     atom   22 type  2   force =    -0.00000926   -0.00003790    0.00000000
     atom   23 type  3   force =    -0.00001339    0.00000000   -0.00001361
     atom   24 type  4   force =     0.00000000   -0.00000196    0.00003244
     atom   25 type  1   force =     0.00000000    0.00000000    0.00000000
     atom   26 type  2   force =    -0.00001725    0.00000975    0.00000000
     atom   27 type  3   force =     0.00000209    0.00000000   -0.00002360
     atom   28 type  4   force =     0.00000000    0.00000196   -0.00003244
     atom   29 type  1   force =     0.00000000    0.00000000    0.00000000
     atom   30 type  2   force =    -0.00000926    0.00003790    0.00000000
     atom   31 type  3   force =     0.00000209   -0.00000000    0.00002360
     atom   32 type  4   force =     0.00000000    0.00000196    0.00003244

     Total force =     0.000143     Total SCF correction =     0.000412
     SCF correction compared to forces is large: reduce conv_thr to get better values


     Computing stress (Cartesian axis) and pressure

          total   stress  (Ry/bohr**3)                   (kbar)     P=   -0.39
  -0.00000844   0.00000000   0.00000000         -1.24      0.00      0.00
   0.00000000   0.00000900   0.00000000          0.00      1.32      0.00
   0.00000000   0.00000000  -0.00000856          0.00      0.00     -1.26


     number of scf cycles    =   3
     number of bfgs steps    =   2

     enthalpy old            =  -10536.2517656109 Ry
     enthalpy new            =  -10536.2517934782 Ry

     CASE: enthalpy_new < enthalpy_old

     new trust radius        =       0.0040215823 bohr
     new conv_thr            =       0.0000000100 Ry

     new unit-cell volume =   2284.03013 a.u.^3 (   338.45834 Ang^3 )
     density =      8.76755 g/cm^3

CELL_PARAMETERS (alat= 12.95714297)
   0.998719794   0.000000000   0.000000000
   0.000000000   1.052665086   0.000000000
   0.000000000   0.000000000   0.998711841

ATOMIC_POSITIONS (crystal)
Fe1      0.000000000   0.000000000   0.000000000
Fe2      0.249995168   0.250003631  -0.000000000
Fe3      0.249996829   0.000000000   0.249996867
Fe4     -0.000000000   0.250000751   0.250006748
Fe1      0.000000000   0.000000000   0.500000000
Fe2      0.249998676   0.250007869   0.500000000
Fe3      0.249996829   0.000000000   0.750003133
Fe4     -0.000000000   0.250000751   0.749993252
Fe1      0.000000000   0.500000000   0.000000000
Fe2      0.249995168   0.749996369  -0.000000000
Fe3      0.250000409   0.500000000   0.250003204
Fe4      0.000000000   0.749999249   0.250006748
Fe1      0.000000000   0.500000000   0.500000000
Fe2      0.249998676   0.749992131   0.500000000
Fe3      0.250000409   0.500000000   0.749996796
Fe4      0.000000000   0.749999249   0.749993252
Fe1      0.500000000   0.000000000   0.000000000
Fe2      0.750004832   0.250003631  -0.000000000
Fe3      0.750003171   0.000000000   0.249996867
Fe4      0.500000000   0.250000170   0.250004967
Fe1      0.500000000   0.000000000   0.500000000
Fe2      0.750001324   0.250007869   0.500000000
Fe3      0.750003171  -0.000000000   0.750003133
Fe4      0.500000000   0.250000170   0.749995033
Fe1      0.500000000   0.500000000   0.000000000
Fe2      0.750004832   0.749996369  -0.000000000
Fe3      0.749999591   0.500000000   0.250003204
Fe4      0.500000000   0.749999830   0.250004967
Fe1      0.500000000   0.500000000   0.500000000
Fe2      0.750001324   0.749992131   0.500000000
Fe3      0.749999591   0.500000000   0.749996796
Fe4      0.500000000   0.749999830   0.749995033



     Writing output data file fbFIzmnGThoFrsLf.save/
     NEW-OLD atomic charge density approx. for the potential

     Check: negative/imaginary core charge=   -0.000006    0.000000
     extrapolated charge  512.01752, renormalised to  512.00000

     total cpu time spent up to now is    46215.8 secs

     Self-consistent Calculation

     iteration #  1     ecut=    71.00 Ry     beta= 0.10
     Davidson diagonalization with overlap
     ethr =  1.00E-06,  avg # of iterations =  2.0

     Threshold (ethr) on eigenvalues was too large:
     Diagonalizing with lowered threshold

     Davidson diagonalization with overlap
     ethr =  3.71E-09,  avg # of iterations =  3.9

     total cpu time spent up to now is    47565.5 secs

     total energy              =  -10536.25179395 Ry
     Harris-Foulkes estimate   =  -10536.15679081 Ry
     estimated scf accuracy    <       0.00002331 Ry

     total magnetization       =    -0.00 Bohr mag/cell
     absolute magnetization    =    49.48 Bohr mag/cell

     iteration #  2     ecut=    71.00 Ry     beta= 0.10
     Davidson diagonalization with overlap
     ethr =  4.55E-09,  avg # of iterations =  3.2

     total cpu time spent up to now is    48378.0 secs

     total energy              =  -10536.25180465 Ry
     Harris-Foulkes estimate   =  -10536.25180580 Ry
     estimated scf accuracy    <       0.00001057 Ry

     total magnetization       =    -0.00 Bohr mag/cell
     absolute magnetization    =    49.49 Bohr mag/cell

     iteration #  3     ecut=    71.00 Ry     beta= 0.10
     Davidson diagonalization with overlap
     ethr =  2.06E-09,  avg # of iterations =  1.0

     total cpu time spent up to now is    48756.1 secs

     total energy              =  -10536.25180485 Ry
     Harris-Foulkes estimate   =  -10536.25180552 Ry
     estimated scf accuracy    <       0.00001391 Ry

     total magnetization       =    -0.00 Bohr mag/cell
     absolute magnetization    =    49.49 Bohr mag/cell

     iteration #  4     ecut=    71.00 Ry     beta= 0.10
     Davidson diagonalization with overlap
     ethr =  2.06E-09,  avg # of iterations =  1.0

     total cpu time spent up to now is    49134.2 secs

     total energy              =  -10536.25180506 Ry
     Harris-Foulkes estimate   =  -10536.25180514 Ry
     estimated scf accuracy    <       0.00000256 Ry

     total magnetization       =    -0.00 Bohr mag/cell
     absolute magnetization    =    49.49 Bohr mag/cell

     iteration #  5     ecut=    71.00 Ry     beta= 0.10
     Davidson diagonalization with overlap
     ethr =  5.00E-10,  avg # of iterations =  1.0

     total cpu time spent up to now is    49509.1 secs

     total energy              =  -10536.25180355 Ry
     Harris-Foulkes estimate   =  -10536.25180507 Ry
     estimated scf accuracy    <       0.00000216 Ry

     total magnetization       =    -0.00 Bohr mag/cell
     absolute magnetization    =    49.49 Bohr mag/cell

     iteration #  6     ecut=    71.00 Ry     beta= 0.10
     Davidson diagonalization with overlap
     ethr =  4.21E-10,  avg # of iterations =  3.8

     total cpu time spent up to now is    50558.0 secs

     total energy              =  -10536.25180850 Ry
     Harris-Foulkes estimate   =  -10536.25180602 Ry
     estimated scf accuracy    <       0.00000648 Ry

     total magnetization       =    -0.00 Bohr mag/cell
     absolute magnetization    =    49.50 Bohr mag/cell

     iteration #  7     ecut=    71.00 Ry     beta= 0.10
     Davidson diagonalization with overlap
     ethr =  4.21E-10,  avg # of iterations =  3.1

     total cpu time spent up to now is    51249.6 secs

     total energy              =  -10536.25180862 Ry
     Harris-Foulkes estimate   =  -10536.25180915 Ry
     estimated scf accuracy    <       0.00001862 Ry

     total magnetization       =    -0.00 Bohr mag/cell
     absolute magnetization    =    49.51 Bohr mag/cell

     iteration #  8     ecut=    71.00 Ry     beta= 0.10
     Davidson diagonalization with overlap
     ethr =  4.21E-10,  avg # of iterations =  1.0

     total cpu time spent up to now is    51627.7 secs

     total energy              =  -10536.25180679 Ry
     Harris-Foulkes estimate   =  -10536.25180864 Ry
     estimated scf accuracy    <       0.00001637 Ry

     total magnetization       =    -0.00 Bohr mag/cell
     absolute magnetization    =    49.51 Bohr mag/cell

     iteration #  9     ecut=    71.00 Ry     beta= 0.10
     Davidson diagonalization with overlap
     ethr =  4.21E-10,  avg # of iterations =  2.9

     total cpu time spent up to now is    52190.9 secs

     total energy              =  -10536.25180347 Ry
     Harris-Foulkes estimate   =  -10536.25180701 Ry
     estimated scf accuracy    <       0.00000865 Ry

     total magnetization       =    -0.00 Bohr mag/cell
     absolute magnetization    =    49.51 Bohr mag/cell

     iteration # 10     ecut=    71.00 Ry     beta= 0.10
     Davidson diagonalization with overlap
     ethr =  4.21E-10,  avg # of iterations =  3.3

     total cpu time spent up to now is    53125.6 secs

     total energy              =  -10536.25180574 Ry
     Harris-Foulkes estimate   =  -10536.25180515 Ry
     estimated scf accuracy    <       0.00000019 Ry

     total magnetization       =    -0.00 Bohr mag/cell
     absolute magnetization    =    49.51 Bohr mag/cell

     iteration # 11     ecut=    71.00 Ry     beta= 0.10
     Davidson diagonalization with overlap
     ethr =  3.62E-11,  avg # of iterations =  4.0

     total cpu time spent up to now is    54282.4 secs

     total energy              =  -10536.25180674 Ry
     Harris-Foulkes estimate   =  -10536.25180692 Ry
     estimated scf accuracy    <       0.00000811 Ry

     total magnetization       =    -0.00 Bohr mag/cell
     absolute magnetization    =    49.52 Bohr mag/cell

     iteration # 12     ecut=    71.00 Ry     beta= 0.10
[...]
     Davidson diagonalization with overlap
     ethr =  8.68E-11,  avg # of iterations =  1.8

     total cpu time spent up to now is    88255.8 secs

     total energy              =  -10536.25057781 Ry
     Harris-Foulkes estimate   =  -10536.25057771 Ry
     estimated scf accuracy    <       0.00000040 Ry

     total magnetization       =    -0.00 Bohr mag/cell
     absolute magnetization    =    49.53 Bohr mag/cell

     iteration # 37     ecut=    71.00 Ry     beta= 0.10
     Davidson diagonalization with overlap
     ethr =  7.88E-11,  avg # of iterations =  2.7

     total cpu time spent up to now is    88762.1 secs

     total energy              =  -10536.25057788 Ry
     Harris-Foulkes estimate   =  -10536.25057785 Ry
     estimated scf accuracy    <       0.00000031 Ry

     total magnetization       =    -0.00 Bohr mag/cell
     absolute magnetization    =    49.53 Bohr mag/cell

     iteration # 38     ecut=    71.00 Ry     beta= 0.10
     Davidson diagonalization with overlap
     ethr =  6.02E-11,  avg # of iterations =  1.0

     total cpu time spent up to now is    89143.2 secs

     total energy              =  -10536.25057800 Ry
     Harris-Foulkes estimate   =  -10536.25057789 Ry
     estimated scf accuracy    <       0.00000035 Ry

     total magnetization       =    -0.00 Bohr mag/cell
     absolute magnetization    =    49.54 Bohr mag/cell

     iteration # 39     ecut=    71.00 Ry     beta= 0.10
     Davidson diagonalization with overlap
     ethr =  6.02E-11,  avg # of iterations =  2.2

     total cpu time spent up to now is    89610.2 secs

     total energy              =  -10536.25057806 Ry
     Harris-Foulkes estimate   =  -10536.25057803 Ry
     estimated scf accuracy    <       0.00000017 Ry

     total magnetization       =    -0.00 Bohr mag/cell
     absolute magnetization    =    49.54 Bohr mag/cell

     iteration # 40     ecut=    71.00 Ry     beta= 0.10
     Davidson diagonalization with overlap
     ethr =  3.23E-11,  avg # of iterations =  1.6

     total cpu time spent up to now is    90031.2 secs

     total energy              =  -10536.25057811 Ry
     Harris-Foulkes estimate   =  -10536.25057806 Ry
     estimated scf accuracy    <       0.00000013 Ry

     total magnetization       =    -0.00 Bohr mag/cell
     absolute magnetization    =    49.54 Bohr mag/cell

     iteration # 41     ecut=    71.00 Ry     beta= 0.10
     Davidson diagonalization with overlap
     ethr =  2.55E-11,  avg # of iterations =  2.7

     total cpu time spent up to now is    90537.6 secs

     total energy              =  -10536.25057815 Ry
     Harris-Foulkes estimate   =  -10536.25057812 Ry
     estimated scf accuracy    <       0.00000011 Ry

     total magnetization       =    -0.00 Bohr mag/cell
     absolute magnetization    =    49.54 Bohr mag/cell

     iteration # 42     ecut=    71.00 Ry     beta= 0.10
     Davidson diagonalization with overlap
     ethr =  2.14E-11,  avg # of iterations =  2.4

     total cpu time spent up to now is    91016.3 secs

     total energy              =  -10536.25057817 Ry
     Harris-Foulkes estimate   =  -10536.25057816 Ry
     estimated scf accuracy    <       0.00000008 Ry

     total magnetization       =    -0.00 Bohr mag/cell
     absolute magnetization    =    49.54 Bohr mag/cell

     iteration # 43     ecut=    71.00 Ry     beta= 0.10
     Davidson diagonalization with overlap
     ethr =  1.62E-11,  avg # of iterations =  2.2

     total cpu time spent up to now is    91482.8 secs

     total energy              =  -10536.25057819 Ry
     Harris-Foulkes estimate   =  -10536.25057818 Ry
     estimated scf accuracy    <       0.00000005 Ry

     total magnetization       =    -0.00 Bohr mag/cell
     absolute magnetization    =    49.54 Bohr mag/cell

     iteration # 44     ecut=    71.00 Ry     beta= 0.10
     Davidson diagonalization with overlap
     ethr =  1.02E-11,  avg # of iterations =  2.6

     total cpu time spent up to now is    91978.3 secs

     total energy              =  -10536.25057821 Ry
     Harris-Foulkes estimate   =  -10536.25057820 Ry
     estimated scf accuracy    <       0.00000006 Ry

     total magnetization       =    -0.00 Bohr mag/cell
     absolute magnetization    =    49.55 Bohr mag/cell

     iteration # 45     ecut=    71.00 Ry     beta= 0.10
     Davidson diagonalization with overlap
     ethr =  1.02E-11,  avg # of iterations =  1.4

     total cpu time spent up to now is    92386.3 secs

     total energy              =  -10536.25057821 Ry
     Harris-Foulkes estimate   =  -10536.25057821 Ry
     estimated scf accuracy    <       0.00000004 Ry

     total magnetization       =    -0.00 Bohr mag/cell
     absolute magnetization    =    49.55 Bohr mag/cell

     iteration # 46     ecut=    71.00 Ry     beta= 0.10
     Davidson diagonalization with overlap
     ethr =  8.37E-12,  avg # of iterations =  1.6

     total cpu time spent up to now is    92811.2 secs

     total energy              =  -10536.25057822 Ry
     Harris-Foulkes estimate   =  -10536.25057822 Ry
     estimated scf accuracy    <       0.00000004 Ry

     total magnetization       =    -0.00 Bohr mag/cell
     absolute magnetization    =    49.55 Bohr mag/cell

     iteration # 47     ecut=    71.00 Ry     beta= 0.10
     Davidson diagonalization with overlap
     ethr =  6.94E-12,  avg # of iterations =  1.0

     total cpu time spent up to now is    93190.5 secs

     total energy              =  -10536.25057823 Ry
     Harris-Foulkes estimate   =  -10536.25057822 Ry
     estimated scf accuracy    <       0.00000003 Ry

     total magnetization       =    -0.00 Bohr mag/cell
     absolute magnetization    =    49.55 Bohr mag/cell

     iteration # 48     ecut=    71.00 Ry     beta= 0.10
     Davidson diagonalization with overlap
     ethr =  6.52E-12,  avg # of iterations =  1.0

     total cpu time spent up to now is    93567.6 secs

     total energy              =  -10536.25057823 Ry
     Harris-Foulkes estimate   =  -10536.25057823 Ry
     estimated scf accuracy    <       0.00000003 Ry

     total magnetization       =    -0.00 Bohr mag/cell
     absolute magnetization    =    49.55 Bohr mag/cell

     iteration # 49     ecut=    71.00 Ry     beta= 0.10
     Davidson diagonalization with overlap
     ethr =  6.52E-12,  avg # of iterations =  1.0

     total cpu time spent up to now is    93944.4 secs

     total energy              =  -10536.25057824 Ry
     Harris-Foulkes estimate   =  -10536.25057823 Ry
     estimated scf accuracy    <       0.00000003 Ry

     total magnetization       =    -0.00 Bohr mag/cell
     absolute magnetization    =    49.55 Bohr mag/cell

     iteration # 50     ecut=    71.00 Ry     beta= 0.10
     Davidson diagonalization with overlap
     ethr =  6.39E-12,  avg # of iterations =  2.1

     total cpu time spent up to now is    94408.2 secs

     total energy              =  -10536.25057825 Ry
     Harris-Foulkes estimate   =  -10536.25057825 Ry
     estimated scf accuracy    <       0.00000003 Ry

     total magnetization       =    -0.00 Bohr mag/cell
     absolute magnetization    =    49.55 Bohr mag/cell

     iteration # 51     ecut=    71.00 Ry     beta= 0.10
     Davidson diagonalization with overlap
     ethr =  5.47E-12,  avg # of iterations =  1.0

     total cpu time spent up to now is    94786.6 secs

     total energy              =  -10536.25057826 Ry
     Harris-Foulkes estimate   =  -10536.25057825 Ry
     estimated scf accuracy    <       0.00000003 Ry

     total magnetization       =    -0.00 Bohr mag/cell
     absolute magnetization    =    49.55 Bohr mag/cell

     iteration # 52     ecut=    71.00 Ry     beta= 0.10
     Davidson diagonalization with overlap
     ethr =  5.34E-12,  avg # of iterations =  1.6

     total cpu time spent up to now is    95208.0 secs

     total energy              =  -10536.25057828 Ry
     Harris-Foulkes estimate   =  -10536.25057827 Ry
     estimated scf accuracy    <       0.00000003 Ry

     total magnetization       =    -0.00 Bohr mag/cell
     absolute magnetization    =    49.55 Bohr mag/cell

     iteration # 53     ecut=    71.00 Ry     beta= 0.10
     Davidson diagonalization with overlap
     ethr =  4.97E-12,  avg # of iterations =  3.0

     total cpu time spent up to now is    95773.0 secs

     total energy              =  -10536.25057830 Ry
     Harris-Foulkes estimate   =  -10536.25057829 Ry
     estimated scf accuracy    <       0.00000003 Ry

     total magnetization       =    -0.00 Bohr mag/cell
     absolute magnetization    =    49.55 Bohr mag/cell

     iteration # 54     ecut=    71.00 Ry     beta= 0.10
     Davidson diagonalization with overlap
     ethr =  4.97E-12,  avg # of iterations =  2.8

     total cpu time spent up to now is    96300.8 secs

     total energy              =  -10536.25057831 Ry
     Harris-Foulkes estimate   =  -10536.25057831 Ry
     estimated scf accuracy    <       0.00000002 Ry

     total magnetization       =    -0.00 Bohr mag/cell
     absolute magnetization    =    49.55 Bohr mag/cell

     iteration # 55     ecut=    71.00 Ry     beta= 0.10
     Davidson diagonalization with overlap
     ethr =  3.77E-12,  avg # of iterations =  3.0

     total cpu time spent up to now is    96889.7 secs

     total energy              =  -10536.25057833 Ry
     Harris-Foulkes estimate   =  -10536.25057832 Ry
     estimated scf accuracy    <       0.00000002 Ry

     total magnetization       =    -0.00 Bohr mag/cell
     absolute magnetization    =    49.55 Bohr mag/cell

     iteration # 56     ecut=    71.00 Ry     beta= 0.10
     Davidson diagonalization with overlap
     ethr =  3.05E-12,  avg # of iterations =  1.7

     total cpu time spent up to now is    97324.2 secs

     total energy              =  -10536.25057833 Ry
     Harris-Foulkes estimate   =  -10536.25057833 Ry
     estimated scf accuracy    <       0.00000001 Ry

     total magnetization       =    -0.00 Bohr mag/cell
     absolute magnetization    =    49.55 Bohr mag/cell

     iteration # 57     ecut=    71.00 Ry     beta= 0.10
     Davidson diagonalization with overlap
     ethr =  2.60E-12,  avg # of iterations =  3.3

     total cpu time spent up to now is    98035.0 secs

     total energy              =  -10536.25057836 Ry
     Harris-Foulkes estimate   =  -10536.25057835 Ry
     estimated scf accuracy    <       0.00000001 Ry

     total magnetization       =     0.00 Bohr mag/cell
     absolute magnetization    =    49.55 Bohr mag/cell

     iteration # 58     ecut=    71.00 Ry     beta= 0.10
     Davidson diagonalization with overlap
     ethr =  2.34E-12,  avg # of iterations =  2.9
 
     Magnetic moment per site:
     atom:    1    charge:   14.4007    magn:    1.4928    constr:    0.0000
     atom:    2    charge:   14.4009    magn:   -1.4938    constr:    0.0000
     atom:    3    charge:   14.4004    magn:    1.4932    constr:    0.0000
     atom:    4    charge:   14.4010    magn:   -1.4920    constr:    0.0000
     atom:    5    charge:   14.4007    magn:    1.4927    constr:    0.0000
     atom:    6    charge:   14.4009    magn:   -1.4938    constr:    0.0000
     atom:    7    charge:   14.4004    magn:    1.4932    constr:    0.0000
     atom:    8    charge:   14.4010    magn:   -1.4920    constr:    0.0000
     atom:    9    charge:   14.4008    magn:    1.4926    constr:    0.0000
     atom:   10    charge:   14.4009    magn:   -1.4938    constr:    0.0000
     atom:   11    charge:   14.4004    magn:    1.4931    constr:    0.0000
     atom:   12    charge:   14.4010    magn:   -1.4920    constr:    0.0000
     atom:   13    charge:   14.4008    magn:    1.4924    constr:    0.0000
     atom:   14    charge:   14.4009    magn:   -1.4938    constr:    0.0000
     atom:   15    charge:   14.4004    magn:    1.4931    constr:    0.0000
     atom:   16    charge:   14.4010    magn:   -1.4920    constr:    0.0000
     atom:   17    charge:   14.4007    magn:    1.4928    constr:    0.0000
     atom:   18    charge:   14.4009    magn:   -1.4938    constr:    0.0000
     atom:   19    charge:   14.4004    magn:    1.4932    constr:    0.0000
     atom:   20    charge:   14.4010    magn:   -1.4920    constr:    0.0000
     atom:   21    charge:   14.4007    magn:    1.4927    constr:    0.0000
     atom:   22    charge:   14.4009    magn:   -1.4938    constr:    0.0000
     atom:   23    charge:   14.4004    magn:    1.4932    constr:    0.0000
     atom:   24    charge:   14.4010    magn:   -1.4920    constr:    0.0000
     atom:   25    charge:   14.4007    magn:    1.4926    constr:    0.0000
     atom:   26    charge:   14.4009    magn:   -1.4938    constr:    0.0000
     atom:   27    charge:   14.4004    magn:    1.4931    constr:    0.0000
     atom:   28    charge:   14.4010    magn:   -1.4920    constr:    0.0000
     atom:   29    charge:   14.4008    magn:    1.4925    constr:    0.0000
     atom:   30    charge:   14.4009    magn:   -1.4938    constr:    0.0000
     atom:   31    charge:   14.4004    magn:    1.4931    constr:    0.0000
     atom:   32    charge:   14.4010    magn:   -1.4920    constr:    0.0000

     total cpu time spent up to now is    98596.1 secs

     End of self-consistent calculation

     Number of k-points >= 100: set verbosity='high' to print the bands.

     the Fermi energy is    20.1183 ev

!    total energy              =  -10536.25057837 Ry
     Harris-Foulkes estimate   =  -10536.25057836 Ry
     estimated scf accuracy    <          9.1E-09 Ry

     total all-electron energy =    -81457.739636 Ry

     The total energy is the sum of the following terms:

     one-electron contribution =   -3292.36903185 Ry
     hartree contribution      =    1996.50648459 Ry
     xc contribution           =    -886.95646621 Ry
     ewald contribution        =   -5703.88525430 Ry
     one-center paw contrib.   =   -2649.56073136 Ry
     smearing contrib. (-TS)   =       0.01442075 Ry

     total magnetization       =     0.00 Bohr mag/cell
     absolute magnetization    =    49.55 Bohr mag/cell

     convergence has been achieved in  58 iterations

     Forces acting on atoms (cartesian axes, Ry/au):

     atom    1 type  1   force =     0.00000000    0.00000000    0.00000000
     atom    2 type  2   force =     0.00000656   -0.00000382    0.00000000
     atom    3 type  3   force =     0.00000141   -0.00000000    0.00000699
     atom    4 type  4   force =     0.00000000   -0.00000347   -0.00001068
     atom    5 type  1   force =     0.00000000    0.00000000    0.00000000
     atom    6 type  2   force =     0.00000127   -0.00000211    0.00000000
     atom    7 type  3   force =     0.00000141    0.00000000   -0.00000699
     atom    8 type  4   force =     0.00000000   -0.00000347    0.00001068
     atom    9 type  1   force =     0.00000000    0.00000000    0.00000000
     atom   10 type  2   force =     0.00000656    0.00000382   -0.00000000
     atom   11 type  3   force =     0.00001251   -0.00000000   -0.00001301
     atom   12 type  4   force =     0.00000000    0.00000347   -0.00001068
     atom   13 type  1   force =     0.00000000    0.00000000    0.00000000
     atom   14 type  2   force =     0.00000127    0.00000211    0.00000000
     atom   15 type  3   force =     0.00001251    0.00000000    0.00001301
     atom   16 type  4   force =     0.00000000    0.00000347    0.00001068
     atom   17 type  1   force =     0.00000000    0.00000000    0.00000000
     atom   18 type  2   force =    -0.00000656   -0.00000382   -0.00000000
     atom   19 type  3   force =    -0.00000141    0.00000000    0.00000699
     atom   20 type  4   force =     0.00000000    0.00000235   -0.00000868
     atom   21 type  1   force =     0.00000000    0.00000000    0.00000000
     atom   22 type  2   force =    -0.00000127   -0.00000211    0.00000000
     atom   23 type  3   force =    -0.00000141   -0.00000000   -0.00000699
     atom   24 type  4   force =     0.00000000    0.00000235    0.00000868
     atom   25 type  1   force =     0.00000000    0.00000000    0.00000000
     atom   26 type  2   force =    -0.00000656    0.00000382    0.00000000
     atom   27 type  3   force =    -0.00001251    0.00000000   -0.00001301
     atom   28 type  4   force =     0.00000000   -0.00000235   -0.00000868
     atom   29 type  1   force =     0.00000000    0.00000000    0.00000000
     atom   30 type  2   force =    -0.00000127    0.00000211    0.00000000
     atom   31 type  3   force =    -0.00001251   -0.00000000    0.00001301
     atom   32 type  4   force =     0.00000000   -0.00000235    0.00000868

     Total force =     0.000051     Total SCF correction =     0.000270
     SCF correction compared to forces is large: reduce conv_thr to get better values


     Computing stress (Cartesian axis) and pressure

          total   stress  (Ry/bohr**3)                   (kbar)     P=   -0.04
  -0.00000064   0.00000000   0.00000000         -0.09      0.00      0.00
   0.00000000   0.00000054   0.00000000          0.00      0.08      0.00
   0.00000000   0.00000000  -0.00000070          0.00      0.00     -0.10


     Writing output data file fbFIzmnGThoFrsLf.save/
 
     init_run     :    279.04s CPU    285.15s WALL (       2 calls)
     electrons    :  93432.39s CPU  94876.52s WALL (       6 calls)
     update_pot   :     11.24s CPU     11.29s WALL (       4 calls)
     forces       :    394.12s CPU    408.66s WALL (       6 calls)
     stress       :   3594.02s CPU   3609.68s WALL (       6 calls)

     Called by init_run:
     wfcinit      :    273.34s CPU    279.20s WALL (       2 calls)
     potinit      :      2.24s CPU      2.28s WALL (       2 calls)
     hinit0       :      2.31s CPU      2.40s WALL (       2 calls)

     Called by electrons:
     c_bands      :  86143.66s CPU  87366.31s WALL (     172 calls)
     sum_band     :   7139.20s CPU   7354.69s WALL (     172 calls)
     v_of_rho     :     10.21s CPU     10.74s WALL (     175 calls)
     newd         :     38.91s CPU     42.52s WALL (     175 calls)
     PAW_pot      :    103.27s CPU    104.74s WALL (     179 calls)
     mix_rho      :      3.09s CPU      3.36s WALL (     172 calls)

     Called by c_bands:
     init_us_2    :    453.11s CPU    455.76s WALL (   90500 calls)
     cegterg      :  83691.72s CPU  84898.49s WALL (   43000 calls)

     Called by sum_band:
     sum_band:bec :     81.17s CPU     82.19s WALL (   44000 calls)
     addusdens    :     72.64s CPU     77.29s WALL (     172 calls)

     Called by *egterg:
     h_psi        :  29167.23s CPU  29878.80s WALL (  137943 calls)
     s_psi        :   4274.58s CPU   4284.18s WALL (  137943 calls)
     g_psi        :    171.77s CPU    172.72s WALL (   94443 calls)
     cdiaghg      :  34522.30s CPU  34586.21s WALL (  135693 calls)

     Called by h_psi:
     h_psi:pot    :  28867.10s CPU  29575.79s WALL (  137943 calls)
     h_psi:calbec :   4707.87s CPU   4931.36s WALL (  137943 calls)
     vloc_psi     :  19931.09s CPU  20401.98s WALL (  137943 calls)
     add_vuspsi   :   4226.22s CPU   4241.25s WALL (  137943 calls)

     General routines
     calbec       :   7199.00s CPU   7540.83s WALL (  189443 calls)
     fft          :      7.43s CPU      8.11s WALL (    4621 calls)
     ffts         :      0.56s CPU      0.62s WALL (     694 calls)
     fftw         :  22429.47s CPU  22946.77s WALL (73655002 calls)
     interpolate  :      0.89s CPU      0.98s WALL (     350 calls)
 
     Parallel routines
     fft_scatt_xy :   2321.67s CPU   2375.79s WALL (73660317 calls)
     fft_scatt_yz :  10565.48s CPU  10844.11s WALL (73660317 calls)
 
     PWSCF        :     1d    3h10m CPU        1d    3h36m WALL

 
   This run was terminated on:   8:30: 8  17Jun2020            

=------------------------------------------------------------------------------=
   JOB DONE.
=------------------------------------------------------------------------------=
