
     Program PWSCF v.6.4.1 starts on 15May2022 at 13:55: 5 

     This program is part of the open-source Quantum ESPRESSO suite
     for quantum simulation of materials; please cite
         "P. Giannozzi et al., J. Phys.:Condens. Matter 21 395502 (2009);
         "P. Giannozzi et al., J. Phys.:Condens. Matter 29 465901 (2017);
          URL http://www.quantum-espresso.org", 
     in publications or presentations arising from this work. More details at
     http://www.quantum-espresso.org/quote

     Parallel version (MPI), running on     4 processors

     MPI processes distributed on     1 nodes
     K-points division:     npool     =       2
     R & G space division:  proc/nbgrp/npool/nimage =       2
     Reading input from /DATA/disk3/cloud/Code/python/qeeos/examples/al_003/out/ec_rfkj/ec_rfkj_d1_0003.in
Warning: card &CELL ignored
Warning: card CELL_DYNAMICS = 'BFGS', ignored
Warning: card CELL_FACTOR = 2.0, ignored
Warning: card PRESS = 0.0, ignored
Warning: card / ignored

     Current dimensions of program PWSCF are:
     Max number of different atomic species (ntypx) = 10
     Max number of k-points (npk) =  40000
     Max angular momentum in pseudopotentials (lmaxx) =  3
               file Al.pbe-nl-kjpaw_psl.1.0.0.UPF: wavefunction(s)  3S 3P renormalized

     Subspace diagonalization in iterative solution of the eigenvalue problem:
     a serial algorithm will be used

     Found symmetry operation: I + ( -0.5000 -0.5000  0.0000)
     This is a supercell, fractional translations are disabled
     Message from routine setup:
     DEPRECATED: symmetry with ibrav=0, use correct ibrav instead

     Parallelization info
     --------------------
     sticks:   dense  smooth     PW     G-vecs:    dense   smooth      PW
     Min         470     470    138                10695    10695    1651
     Max         471     471    139                10696    10696    1652
     Sum         941     941    277                21391    21391    3303



     bravais-lattice index     =            0
     lattice parameter (alat)  =       7.6423  a.u.
     unit-cell volume          =     447.6294 (a.u.)^3
     number of atoms/cell      =            4
     number of atomic types    =            1
     number of electrons       =        12.00
     number of Kohn-Sham states=           10
     kinetic-energy cutoff     =      50.0000  Ry
     charge density cutoff     =     200.0000  Ry
     convergence threshold     =      1.0E-06
     mixing beta               =       0.1000
     number of iterations used =           10  plain     mixing
     Exchange-correlation      = SLA PW PBX PBC ( 1  4  3  4 0 0)
     nstep                     =           50


     celldm(1)=   7.642343  celldm(2)=   0.000000  celldm(3)=   0.000000
     celldm(4)=   0.000000  celldm(5)=   0.000000  celldm(6)=   0.000000

     crystal axes: (cart. coord. in units of alat)
               a(1) = (   1.002857   0.000000   0.000000 )  
               a(2) = (   0.000000   1.000000   0.000000 )  
               a(3) = (   0.000000   0.000000   1.000000 )  

     reciprocal axes: (cart. coord. in units 2 pi/alat)
               b(1) = (  0.997151  0.000000  0.000000 )  
               b(2) = (  0.000000  1.000000  0.000000 )  
               b(3) = (  0.000000  0.000000  1.000000 )  


     PseudoPot. # 1 for Al read from file:
     /opt/pp/Al.pbe-nl-kjpaw_psl.1.0.0.UPF
     MD5 check sum: 1b67f78b73fe58c7924490f171ce8a1e
     Pseudo is Projector augmented-wave + core cor, Zval =  3.0
     Generated using "atomic" code by A. Dal Corso v.6.3
     Shape of augmentation charge: PSQ
     Using radial grid of 1135 points,  4 beta functions with: 
                l(1) =   0
                l(2) =   0
                l(3) =   1
                l(4) =   1
     Q(r) pseudized with 0 coefficients 


     atomic species   valence    mass     pseudopotential
        Al             3.00    26.98200     Al( 1.00)

     16 Sym. Ops., with inversion, found



   Cartesian axes

     site n.     atom                  positions (alat units)
         1           Al  tau(   1) = (   0.0000000   0.0000000   0.0000000  )
         2           Al  tau(   2) = (   0.5014286   0.5000000   0.0000000  )
         3           Al  tau(   3) = (   0.5014286   0.0000000   0.5000000  )
         4           Al  tau(   4) = (   0.0000000   0.5000000   0.5000000  )

     number of k points=     6  Marzari-Vanderbilt smearing, width (Ry)=  0.0100
                       cart. coord. in units 2pi/alat
        k(    1) = (   0.1246439   0.1250000   0.1250000), wk =   0.2500000
        k(    2) = (   0.1246439   0.1250000   0.3750000), wk =   0.5000000
        k(    3) = (   0.1246439   0.3750000   0.3750000), wk =   0.2500000
        k(    4) = (   0.3739316   0.1250000   0.1250000), wk =   0.2500000
        k(    5) = (   0.3739316   0.1250000   0.3750000), wk =   0.5000000
        k(    6) = (   0.3739316   0.3750000   0.3750000), wk =   0.2500000

     Dense  grid:    21391 G-vectors     FFT dimensions: (  36,  36,  36)

     Estimated max dynamical RAM per process >      12.97 MB

     Estimated total dynamical RAM >      51.90 MB

     Initial potential from superposition of free atoms

     starting charge   11.99084, renormalised to   12.00000
     Starting wfcs are   16 randomized atomic wfcs
     Checking if some PAW data can be deallocated... 

     total cpu time spent up to now is        0.6 secs

     Self-consistent Calculation

     iteration #  1     ecut=    50.00 Ry     beta= 0.10
     Davidson diagonalization with overlap
     ethr =  1.00E-02,  avg # of iterations =  3.2

     Threshold (ethr) on eigenvalues was too large:
     Diagonalizing with lowered threshold

     Davidson diagonalization with overlap
     ethr =  1.98E-04,  avg # of iterations =  3.0

     total cpu time spent up to now is        0.8 secs

     total energy              =    -158.00031118 Ry
     Harris-Foulkes estimate   =    -158.00144796 Ry
     estimated scf accuracy    <       0.02291647 Ry

     iteration #  2     ecut=    50.00 Ry     beta= 0.10
     Davidson diagonalization with overlap
     ethr =  1.91E-04,  avg # of iterations =  1.0

     total cpu time spent up to now is        0.9 secs

     total energy              =    -157.99547025 Ry
     Harris-Foulkes estimate   =    -158.00043260 Ry
     estimated scf accuracy    <       0.01830868 Ry

     iteration #  3     ecut=    50.00 Ry     beta= 0.10
     Davidson diagonalization with overlap
     ethr =  1.53E-04,  avg # of iterations =  1.0

     total cpu time spent up to now is        1.0 secs

     total energy              =    -157.99580912 Ry
     Harris-Foulkes estimate   =    -157.99580445 Ry
     estimated scf accuracy    <       0.00004808 Ry

     iteration #  4     ecut=    50.00 Ry     beta= 0.10
     Davidson diagonalization with overlap
     ethr =  4.01E-07,  avg # of iterations =  4.5

     total cpu time spent up to now is        1.1 secs

     total energy              =    -157.99594164 Ry
     Harris-Foulkes estimate   =    -157.99588722 Ry
     estimated scf accuracy    <       0.00003537 Ry

     iteration #  5     ecut=    50.00 Ry     beta= 0.10
     Davidson diagonalization with overlap
     ethr =  2.95E-07,  avg # of iterations =  1.0

     total cpu time spent up to now is        1.2 secs

     total energy              =    -157.99587352 Ry
     Harris-Foulkes estimate   =    -157.99594373 Ry
     estimated scf accuracy    <       0.00016585 Ry

     iteration #  6     ecut=    50.00 Ry     beta= 0.10
     Davidson diagonalization with overlap
     ethr =  2.95E-07,  avg # of iterations =  1.7

     total cpu time spent up to now is        1.3 secs

     total energy              =    -157.99587242 Ry
     Harris-Foulkes estimate   =    -157.99587769 Ry
     estimated scf accuracy    <       0.00001092 Ry

     iteration #  7     ecut=    50.00 Ry     beta= 0.10
     Davidson diagonalization with overlap
     ethr =  9.10E-08,  avg # of iterations =  2.0

     total cpu time spent up to now is        1.4 secs

     End of self-consistent calculation

          k = 0.1246 0.1250 0.1250 (  2671 PWs)   bands (ev):

    -2.8270   3.7136   3.7491   3.7492   8.1851   8.2476   8.2478  10.0501
    10.0503  10.0832

          k = 0.1246 0.1250 0.3750 (  2681 PWs)   bands (ev):

    -1.7029   0.5180   4.7808   4.8157   6.9130   6.9468   9.2684   9.3294
    11.0625  11.4258

          k = 0.1246 0.3750 0.3750 (  2666 PWs)   bands (ev):

    -0.5875   1.6164   1.6165   3.7840   5.8647   7.9761   7.9764  10.0755
    10.3399  12.3848

          k = 0.3739 0.1250 0.1250 (  2681 PWs)   bands (ev):

    -1.7093   0.4993   4.8098   4.8098   6.9294   6.9297   9.3243   9.3243
    11.0901  11.4705

          k = 0.3739 0.1250 0.3750 (  2669 PWs)   bands (ev):

    -0.5938   1.5979   1.6103   3.7660   5.8934   7.9928   8.0046  10.0917
    10.3974  12.4310

          k = 0.3739 0.3750 0.3750 (  2664 PWs)   bands (ev):

     0.5134   2.6871   2.6992   2.6993   4.8592   4.8596   4.8714   6.9910
    15.3699  15.4510

     the Fermi energy is     8.0096 ev

!    total energy              =    -157.99587342 Ry
     Harris-Foulkes estimate   =    -157.99587395 Ry
     estimated scf accuracy    <       0.00000084 Ry

     total all-electron energy =     -1942.566996 Ry

     The total energy is the sum of the following terms:

     one-electron contribution =      12.61977895 Ry
     hartree contribution      =       0.02664505 Ry
     xc contribution           =     -10.35437765 Ry
     ewald contribution        =     -21.57690677 Ry
     one-center paw contrib.   =    -138.70853892 Ry
     smearing contrib. (-TS)   =      -0.00247408 Ry

     convergence has been achieved in   7 iterations

     Forces acting on atoms (cartesian axes, Ry/au):

     atom    1 type  1   force =     0.00000000    0.00000000    0.00000000
     atom    2 type  1   force =     0.00000000    0.00000000    0.00000000
     atom    3 type  1   force =     0.00000000    0.00000000    0.00000000
     atom    4 type  1   force =     0.00000000    0.00000000    0.00000000

     Total force =     0.000000     Total SCF correction =     0.000000


     Computing stress (Cartesian axis) and pressure

          total   stress  (Ry/bohr**3)                   (kbar)     P=   -2.17
   0.00001518   0.00000000   0.00000000          2.23      0.00      0.00
   0.00000000  -0.00002967   0.00000000          0.00     -4.36      0.00
   0.00000000   0.00000000  -0.00002967          0.00      0.00     -4.36


     BFGS Geometry Optimization

     bfgs converged in   1 scf cycles and   0 bfgs steps
     (criteria: energy <  1.0E-04 Ry, force <  1.0E-03 Ry/Bohr)

     End of BFGS Geometry Optimization

     Final energy   =    -157.9958734188 Ry
Begin final coordinates

ATOMIC_POSITIONS (crystal)
Al       0.000000000   0.000000000   0.000000000
Al       0.500000000   0.500000000   0.000000000
Al       0.500000000   0.000000000   0.500000000
Al       0.000000000   0.500000000   0.500000000
End final coordinates



     Writing output data file hOiElMWOcHOTtMIN.save/

     init_run     :      0.25s CPU      0.25s WALL (       1 calls)
     electrons    :      0.87s CPU      0.88s WALL (       1 calls)
     forces       :      0.09s CPU      0.09s WALL (       1 calls)
     stress       :      0.13s CPU      0.13s WALL (       1 calls)

     Called by init_run:
     wfcinit      :      0.04s CPU      0.04s WALL (       1 calls)
     potinit      :      0.06s CPU      0.06s WALL (       1 calls)
     hinit0       :      0.12s CPU      0.12s WALL (       1 calls)

     Called by electrons:
     c_bands      :      0.45s CPU      0.46s WALL (       8 calls)
     sum_band     :      0.10s CPU      0.10s WALL (       8 calls)
     v_of_rho     :      0.08s CPU      0.08s WALL (       8 calls)
     newd         :      0.03s CPU      0.03s WALL (       8 calls)
     PAW_pot      :      0.24s CPU      0.24s WALL (       8 calls)
     mix_rho      :      0.01s CPU      0.01s WALL (       8 calls)

     Called by c_bands:
     init_us_2    :      0.01s CPU      0.01s WALL (      57 calls)
     cegterg      :      0.40s CPU      0.41s WALL (      24 calls)

     Called by sum_band:
     sum_band:bec :      0.00s CPU      0.00s WALL (      24 calls)
     addusdens    :      0.01s CPU      0.02s WALL (       8 calls)

     Called by *egterg:
     h_psi        :      0.34s CPU      0.35s WALL (      77 calls)
     s_psi        :      0.02s CPU      0.02s WALL (      77 calls)
     g_psi        :      0.00s CPU      0.00s WALL (      50 calls)
     cdiaghg      :      0.01s CPU      0.01s WALL (      71 calls)

     Called by h_psi:
     h_psi:pot    :      0.34s CPU      0.35s WALL (      77 calls)
     h_psi:calbec :      0.03s CPU      0.03s WALL (      77 calls)
     vloc_psi     :      0.29s CPU      0.29s WALL (      77 calls)
     add_vuspsi   :      0.02s CPU      0.02s WALL (      77 calls)

     General routines
     calbec       :      0.05s CPU      0.05s WALL (     116 calls)
     fft          :      0.04s CPU      0.05s WALL (     114 calls)
     ffts         :      0.00s CPU      0.00s WALL (       8 calls)
     fftw         :      0.32s CPU      0.32s WALL (    1528 calls)

     Parallel routines
     fft_scatt_xy :      0.04s CPU      0.04s WALL (    1650 calls)
     fft_scatt_yz :      0.07s CPU      0.07s WALL (    1650 calls)

     PWSCF        :      1.64s CPU      1.67s WALL


   This run was terminated on:  13:55: 7  15May2022            

=------------------------------------------------------------------------------=
   JOB DONE.
=------------------------------------------------------------------------------=
