
     Program PWSCF v.6.4.1 starts on 15May2022 at 13:37:42 

     This program is part of the open-source Quantum ESPRESSO suite
     for quantum simulation of materials; please cite
         "P. Giannozzi et al., J. Phys.:Condens. Matter 21 395502 (2009);
         "P. Giannozzi et al., J. Phys.:Condens. Matter 29 465901 (2017);
          URL http://www.quantum-espresso.org", 
     in publications or presentations arising from this work. More details at
     http://www.quantum-espresso.org/quote

     Parallel version (MPI), running on     4 processors

     MPI processes distributed on     1 nodes
     K-points division:     npool     =       2
     R & G space division:  proc/nbgrp/npool/nimage =       2
     Reading input from /DATA/disk3/cloud/Code/python/qeeos/examples/al_003/out/relax/relax.in

     Current dimensions of program PWSCF are:
     Max number of different atomic species (ntypx) = 10
     Max number of k-points (npk) =  40000
     Max angular momentum in pseudopotentials (lmaxx) =  3
               file Al.pbe-nl-kjpaw_psl.1.0.0.UPF: wavefunction(s)  3S 3P renormalized

     Subspace diagonalization in iterative solution of the eigenvalue problem:
     a serial algorithm will be used

     Found symmetry operation: I + ( -0.5000 -0.5000  0.0000)
     This is a supercell, fractional translations are disabled
     Message from routine setup:
     DEPRECATED: symmetry with ibrav=0, use correct ibrav instead

     Parallelization info
     --------------------
     sticks:   dense  smooth     PW     G-vecs:    dense   smooth      PW
     Min         442     442    126                 9966     9966    1535
     Max         443     443    127                 9967     9967    1536
     Sum         885     885    253                19933    19933    3071



     bravais-lattice index     =            0
     lattice parameter (alat)  =       7.4655  a.u.
     unit-cell volume          =     416.0799 (a.u.)^3
     number of atoms/cell      =            4
     number of atomic types    =            1
     number of electrons       =        12.00
     number of Kohn-Sham states=           10
     kinetic-energy cutoff     =      50.0000  Ry
     charge density cutoff     =     200.0000  Ry
     convergence threshold     =      1.0E-06
     mixing beta               =       0.1000
     number of iterations used =           10  plain     mixing
     Exchange-correlation      = SLA PW PBX PBC ( 1  4  3  4 0 0)
     nstep                     =           50


     celldm(1)=   7.465500  celldm(2)=   0.000000  celldm(3)=   0.000000
     celldm(4)=   0.000000  celldm(5)=   0.000000  celldm(6)=   0.000000

     crystal axes: (cart. coord. in units of alat)
               a(1) = (   1.000000   0.000000   0.000000 )  
               a(2) = (   0.000000   1.000000   0.000000 )  
               a(3) = (   0.000000   0.000000   1.000000 )  

     reciprocal axes: (cart. coord. in units 2 pi/alat)
               b(1) = (  1.000000  0.000000  0.000000 )  
               b(2) = (  0.000000  1.000000  0.000000 )  
               b(3) = (  0.000000  0.000000  1.000000 )  


     PseudoPot. # 1 for Al read from file:
     /opt/pp/Al.pbe-nl-kjpaw_psl.1.0.0.UPF
     MD5 check sum: 1b67f78b73fe58c7924490f171ce8a1e
     Pseudo is Projector augmented-wave + core cor, Zval =  3.0
     Generated using "atomic" code by A. Dal Corso v.6.3
     Shape of augmentation charge: PSQ
     Using radial grid of 1135 points,  4 beta functions with: 
                l(1) =   0
                l(2) =   0
                l(3) =   1
                l(4) =   1
     Q(r) pseudized with 0 coefficients 


     atomic species   valence    mass     pseudopotential
        Al             3.00    26.98200     Al( 1.00)

     48 Sym. Ops., with inversion, found



   Cartesian axes

     site n.     atom                  positions (alat units)
         1           Al  tau(   1) = (   0.0000000   0.0000000   0.0000000  )
         2           Al  tau(   2) = (   0.5000000   0.5000000   0.0000000  )
         3           Al  tau(   3) = (   0.5000000   0.0000000   0.5000000  )
         4           Al  tau(   4) = (   0.0000000   0.5000000   0.5000000  )

     number of k points=     4  Marzari-Vanderbilt smearing, width (Ry)=  0.0100
                       cart. coord. in units 2pi/alat
        k(    1) = (   0.1250000   0.1250000   0.1250000), wk =   0.2500000
        k(    2) = (   0.1250000   0.1250000   0.3750000), wk =   0.7500000
        k(    3) = (   0.1250000   0.3750000   0.3750000), wk =   0.7500000
        k(    4) = (   0.3750000   0.3750000   0.3750000), wk =   0.2500000

     Dense  grid:    19933 G-vectors     FFT dimensions: (  36,  36,  36)

     Estimated max dynamical RAM per process >      12.41 MB

     Estimated total dynamical RAM >      49.64 MB

     Initial potential from superposition of free atoms

     starting charge   11.99084, renormalised to   12.00000
     Starting wfcs are   16 randomized atomic wfcs
     Checking if some PAW data can be deallocated... 

     total cpu time spent up to now is        0.9 secs

     Self-consistent Calculation

     iteration #  1     ecut=    50.00 Ry     beta= 0.10
     Davidson diagonalization with overlap
     ethr =  1.00E-02,  avg # of iterations =  3.2

     Threshold (ethr) on eigenvalues was too large:
     Diagonalizing with lowered threshold

     Davidson diagonalization with overlap
     ethr =  1.94E-04,  avg # of iterations =  3.0

     total cpu time spent up to now is        1.1 secs

     total energy              =    -157.99379753 Ry
     Harris-Foulkes estimate   =    -157.99490557 Ry
     estimated scf accuracy    <       0.02256114 Ry

     iteration #  2     ecut=    50.00 Ry     beta= 0.10
     Davidson diagonalization with overlap
     ethr =  1.88E-04,  avg # of iterations =  1.0

     total cpu time spent up to now is        1.2 secs

     total energy              =    -157.98903478 Ry
     Harris-Foulkes estimate   =    -157.99387532 Ry
     estimated scf accuracy    <       0.01806452 Ry

     iteration #  3     ecut=    50.00 Ry     beta= 0.10
     Davidson diagonalization with overlap
     ethr =  1.51E-04,  avg # of iterations =  1.0

     total cpu time spent up to now is        1.3 secs

     total energy              =    -157.98932144 Ry
     Harris-Foulkes estimate   =    -157.98931686 Ry
     estimated scf accuracy    <       0.00003900 Ry

     iteration #  4     ecut=    50.00 Ry     beta= 0.10
     Davidson diagonalization with overlap
     ethr =  3.25E-07,  avg # of iterations =  3.8

     total cpu time spent up to now is        1.4 secs

     total energy              =    -157.98943663 Ry
     Harris-Foulkes estimate   =    -157.98938274 Ry
     estimated scf accuracy    <       0.00002979 Ry

     iteration #  5     ecut=    50.00 Ry     beta= 0.10
     Davidson diagonalization with overlap
     ethr =  2.48E-07,  avg # of iterations =  1.0

     total cpu time spent up to now is        1.4 secs

     total energy              =    -157.98936802 Ry
     Harris-Foulkes estimate   =    -157.98943833 Ry
     estimated scf accuracy    <       0.00016433 Ry

     iteration #  6     ecut=    50.00 Ry     beta= 0.10
     Davidson diagonalization with overlap
     ethr =  2.48E-07,  avg # of iterations =  2.0

     total cpu time spent up to now is        1.5 secs

     total energy              =    -157.98937153 Ry
     Harris-Foulkes estimate   =    -157.98937205 Ry
     estimated scf accuracy    <       0.00000137 Ry

     iteration #  7     ecut=    50.00 Ry     beta= 0.10
     Davidson diagonalization with overlap
     ethr =  1.14E-08,  avg # of iterations =  2.2

     total cpu time spent up to now is        1.6 secs

     End of self-consistent calculation

          k = 0.1250 0.1250 0.1250 (  2496 PWs)   bands (ev):

    -2.5467   4.3139   4.3139   4.3140   9.0141   9.0141   9.0142  10.9425
    10.9425  10.9425

          k = 0.1250 0.1250 0.3750 (  2481 PWs)   bands (ev):

    -1.3701   0.9508   5.4168   5.4168   7.6455   7.6456  10.1641  10.1642
    11.9609  12.5339

          k = 0.1250 0.3750 0.3750 (  2496 PWs)   bands (ev):

    -0.2038   2.0964   2.0965   4.3472   6.5724   8.7621   8.7622  10.9504
    11.3128  13.4235

          k = 0.3750 0.3750 0.3750 (  2461 PWs)   bands (ev):

     0.9524   3.2258   3.2258   3.2258   5.5179   5.5179   5.5180   7.7322
    16.5538  16.5538

     the Fermi energy is     8.7810 ev

!    total energy              =    -157.98937175 Ry
     Harris-Foulkes estimate   =    -157.98937197 Ry
     estimated scf accuracy    <       0.00000057 Ry

     total all-electron energy =     -1942.560494 Ry

     The total energy is the sum of the following terms:

     one-electron contribution =      13.34438058 Ry
     hartree contribution      =       0.02948339 Ry
     xc contribution           =     -10.51464938 Ry
     ewald contribution        =     -22.10903955 Ry
     one-center paw contrib.   =    -138.73706327 Ry
     smearing contrib. (-TS)   =      -0.00248352 Ry

     convergence has been achieved in   7 iterations

     Forces acting on atoms (cartesian axes, Ry/au):

     atom    1 type  1   force =     0.00000000    0.00000000    0.00000000
     atom    2 type  1   force =     0.00000000    0.00000000    0.00000000
     atom    3 type  1   force =     0.00000000    0.00000000    0.00000000
     atom    4 type  1   force =     0.00000000    0.00000000    0.00000000

     Total force =     0.000000     Total SCF correction =     0.000000


     Computing stress (Cartesian axis) and pressure

          total   stress  (Ry/bohr**3)                   (kbar)     P=   66.88
   0.00045464   0.00000000   0.00000000         66.88      0.00      0.00
   0.00000000   0.00045464   0.00000000          0.00     66.88      0.00
   0.00000000   0.00000000   0.00045464          0.00      0.00     66.88


     BFGS Geometry Optimization

     number of scf cycles    =   1
     number of bfgs steps    =   0

     enthalpy new            =    -157.9893717528 Ry

     new trust radius        =       0.0463687962 bohr
     new conv_thr            =       0.0000010000 Ry

     new unit-cell volume =    430.42922 a.u.^3 (    63.78303 Ang^3 )
     density =      2.80982 g/cm^3

CELL_PARAMETERS (alat=  7.46550000)
   1.011365996   0.000000000   0.000000000
   0.000000000   1.011365996   0.000000000
   0.000000000   0.000000000   1.011365996

ATOMIC_POSITIONS (crystal)
Al       0.000000000   0.000000000   0.000000000
Al       0.500000000   0.500000000   0.000000000
Al       0.500000000   0.000000000   0.500000000
Al       0.000000000   0.500000000   0.500000000



     Writing output data file GwNovLcYlDsHOpta.save/
     NEW-OLD atomic charge density approx. for the potential
     extrapolated charge   12.39974, renormalised to   12.00000

     total cpu time spent up to now is        3.1 secs

     Self-consistent Calculation

     iteration #  1     ecut=    50.00 Ry     beta= 0.10
     Davidson diagonalization with overlap
     ethr =  1.00E-06,  avg # of iterations =  4.5

     total cpu time spent up to now is        3.2 secs

     total energy              =    -157.99419360 Ry
     Harris-Foulkes estimate   =    -158.32647269 Ry
     estimated scf accuracy    <       0.00003111 Ry

     iteration #  2     ecut=    50.00 Ry     beta= 0.10
     Davidson diagonalization with overlap
     ethr =  2.59E-07,  avg # of iterations =  2.0

     total cpu time spent up to now is        3.3 secs

     total energy              =    -157.99417366 Ry
     Harris-Foulkes estimate   =    -157.99419786 Ry
     estimated scf accuracy    <       0.00002208 Ry

     iteration #  3     ecut=    50.00 Ry     beta= 0.10
     Davidson diagonalization with overlap
     ethr =  1.84E-07,  avg # of iterations =  1.0

     total cpu time spent up to now is        3.4 secs

     total energy              =    -157.99415776 Ry
     Harris-Foulkes estimate   =    -157.99417387 Ry
     estimated scf accuracy    <       0.00000876 Ry

     iteration #  4     ecut=    50.00 Ry     beta= 0.10
     Davidson diagonalization with overlap
     ethr =  7.30E-08,  avg # of iterations =  1.0

     total cpu time spent up to now is        3.5 secs

     End of self-consistent calculation

          k = 0.1236 0.1236 0.1236 (  2496 PWs)   bands (ev):

    -2.6798   4.0421   4.0421   4.0421   8.6458   8.6458   8.6458  10.5272
    10.5272  10.5272

          k = 0.1236 0.1236 0.3708 (  2481 PWs)   bands (ev):

    -1.5289   0.7433   5.1276   5.1276   7.3088   7.3088   9.7629   9.7629
    11.5434  12.0246

          k = 0.1236 0.3708 0.3708 (  2496 PWs)   bands (ev):

    -0.3873   1.8660   1.8660   4.0767   6.2474   8.3992   8.3992  10.5440
    10.8734  12.9526

          k = 0.3708 0.3708 0.3708 (  2461 PWs)   bands (ev):

     0.7450   2.9761   2.9761   2.9761   5.2086   5.2086   5.2086   7.3828
    16.0254  16.0254

     the Fermi energy is     8.4180 ev

!    total energy              =    -157.99415787 Ry
     Harris-Foulkes estimate   =    -157.99415788 Ry
     estimated scf accuracy    <       0.00000002 Ry

     total all-electron energy =     -1942.565280 Ry

     The total energy is the sum of the following terms:

     one-electron contribution =      13.00360535 Ry
     hartree contribution      =       0.02791282 Ry
     xc contribution           =     -10.43936137 Ry
     ewald contribution        =     -21.86057240 Ry
     one-center paw contrib.   =    -138.72325458 Ry
     smearing contrib. (-TS)   =      -0.00248770 Ry

     convergence has been achieved in   4 iterations

     Forces acting on atoms (cartesian axes, Ry/au):

     atom    1 type  1   force =     0.00000000    0.00000000    0.00000000
     atom    2 type  1   force =     0.00000000    0.00000000    0.00000000
     atom    3 type  1   force =     0.00000000    0.00000000    0.00000000
     atom    4 type  1   force =     0.00000000    0.00000000    0.00000000

     Total force =     0.000000     Total SCF correction =     0.000000


     Computing stress (Cartesian axis) and pressure

          total   stress  (Ry/bohr**3)                   (kbar)     P=   32.21
   0.00021895   0.00000000   0.00000000         32.21      0.00      0.00
   0.00000000   0.00021895   0.00000000          0.00     32.21      0.00
   0.00000000   0.00000000   0.00021895          0.00      0.00     32.21


     number of scf cycles    =   2
     number of bfgs steps    =   1

     enthalpy old            =    -157.9893717528 Ry
     enthalpy new            =    -157.9941578741 Ry

     CASE: enthalpy_new < enthalpy_old

     new trust radius        =       0.0452716337 bohr
     new conv_thr            =       0.0000000100 Ry

     new unit-cell volume =    444.67210 a.u.^3 (    65.89361 Ang^3 )
     density =      2.71982 g/cm^3

CELL_PARAMETERS (alat=  7.46550000)
   1.022400521   0.000000000   0.000000000
   0.000000000   1.022400521   0.000000000
   0.000000000   0.000000000   1.022400521

ATOMIC_POSITIONS (crystal)
Al       0.000000000   0.000000000   0.000000000
Al       0.500000000   0.500000000   0.000000000
Al       0.500000000   0.000000000   0.500000000
Al       0.000000000   0.500000000   0.500000000



     Writing output data file GwNovLcYlDsHOpta.save/
     NEW-OLD atomic charge density approx. for the potential
     extrapolated charge   12.38407, renormalised to   12.00000

     total cpu time spent up to now is        4.9 secs

     Self-consistent Calculation

     iteration #  1     ecut=    50.00 Ry     beta= 0.10
     Davidson diagonalization with overlap
     ethr =  1.00E-06,  avg # of iterations =  4.5

     total cpu time spent up to now is        5.0 secs

     total energy              =    -157.99586990 Ry
     Harris-Foulkes estimate   =    -158.31159405 Ry
     estimated scf accuracy    <       0.00003010 Ry

     iteration #  2     ecut=    50.00 Ry     beta= 0.10
     Davidson diagonalization with overlap
     ethr =  2.51E-07,  avg # of iterations =  2.0

     total cpu time spent up to now is        5.1 secs

     total energy              =    -157.99585162 Ry
     Harris-Foulkes estimate   =    -157.99587434 Ry
     estimated scf accuracy    <       0.00002006 Ry

     iteration #  3     ecut=    50.00 Ry     beta= 0.10
     Davidson diagonalization with overlap
     ethr =  1.67E-07,  avg # of iterations =  1.0

     total cpu time spent up to now is        5.2 secs

     total energy              =    -157.99583573 Ry
     Harris-Foulkes estimate   =    -157.99585169 Ry
     estimated scf accuracy    <       0.00000852 Ry

     iteration #  4     ecut=    50.00 Ry     beta= 0.10
     Davidson diagonalization with overlap
     ethr =  7.10E-08,  avg # of iterations =  1.0

     total cpu time spent up to now is        5.3 secs

     total energy              =    -157.99583581 Ry
     Harris-Foulkes estimate   =    -157.99583582 Ry
     estimated scf accuracy    <       0.00000001 Ry

     iteration #  5     ecut=    50.00 Ry     beta= 0.10
     Davidson diagonalization with overlap
     ethr =  8.96E-11,  avg # of iterations =  3.2

     total cpu time spent up to now is        5.4 secs

     End of self-consistent calculation

          k = 0.1223 0.1223 0.1223 (  2496 PWs)   bands (ev):

    -2.8026   3.7881   3.7881   3.7881   8.2972   8.2972   8.2972  10.1389
    10.1389  10.1389

          k = 0.1223 0.1223 0.3668 (  2481 PWs)   bands (ev):

    -1.6758   0.5503   4.8565   4.8565   6.9931   6.9931   9.3837   9.3837
    11.1507  11.5544

          k = 0.1223 0.3668 0.3668 (  2496 PWs)   bands (ev):

    -0.5577   1.6512   1.6512   3.8229   5.9444   8.0593   8.0593  10.1628
    10.4610  12.5080

          k = 0.3668 0.3668 0.3668 (  2461 PWs)   bands (ev):

     0.5520   2.7421   2.7421   2.7421   4.9208   4.9208   4.9208   7.0563
    15.5247  15.5247

     the Fermi energy is     8.0781 ev

!    total energy              =    -157.99583581 Ry
     Harris-Foulkes estimate   =    -157.99583582 Ry
     estimated scf accuracy    <          8.6E-09 Ry

     total all-electron energy =     -1942.566958 Ry

     The total energy is the sum of the following terms:

     one-electron contribution =      12.68408170 Ry
     hartree contribution      =       0.02682612 Ry
     xc contribution           =     -10.36863858 Ry
     ewald contribution        =     -21.62463646 Ry
     one-center paw contrib.   =    -138.71097254 Ry
     smearing contrib. (-TS)   =      -0.00249605 Ry

     convergence has been achieved in   5 iterations

     Forces acting on atoms (cartesian axes, Ry/au):

     atom    1 type  1   force =     0.00000000    0.00000000    0.00000000
     atom    2 type  1   force =     0.00000000    0.00000000    0.00000000
     atom    3 type  1   force =     0.00000000    0.00000000    0.00000000
     atom    4 type  1   force =     0.00000000    0.00000000    0.00000000

     Total force =     0.000000     Total SCF correction =     0.000000


     Computing stress (Cartesian axis) and pressure

          total   stress  (Ry/bohr**3)                   (kbar)     P=    3.29
   0.00002238   0.00000000   0.00000000          3.29      0.00      0.00
   0.00000000   0.00002238   0.00000000          0.00      3.29      0.00
   0.00000000   0.00000000   0.00002238          0.00      0.00      3.29


     number of scf cycles    =   3
     number of bfgs steps    =   2

     enthalpy old            =    -157.9941578741 Ry
     enthalpy new            =    -157.9958358059 Ry

     CASE: enthalpy_new < enthalpy_old

     new trust radius        =       0.0053089768 bohr
     new conv_thr            =       0.0000000100 Ry

     new unit-cell volume =    446.35349 a.u.^3 (    66.14276 Ang^3 )
     density =      2.70957 g/cm^3

CELL_PARAMETERS (alat=  7.46550000)
   1.023687531   0.000000000   0.000000000
   0.000000000   1.023687531   0.000000000
   0.000000000   0.000000000   1.023687531

ATOMIC_POSITIONS (crystal)
Al       0.000000000   0.000000000   0.000000000
Al       0.500000000   0.500000000   0.000000000
Al       0.500000000   0.000000000   0.500000000
Al       0.000000000   0.500000000   0.500000000



     Writing output data file GwNovLcYlDsHOpta.save/
     NEW-OLD atomic charge density approx. for the potential
     extrapolated charge   12.04517, renormalised to   12.00000

     total cpu time spent up to now is        6.9 secs

     Self-consistent Calculation

     iteration #  1     ecut=    50.00 Ry     beta= 0.10
     Davidson diagonalization with overlap
     ethr =  1.00E-06,  avg # of iterations =  2.0

     Threshold (ethr) on eigenvalues was too large:
     Diagonalizing with lowered threshold

     Davidson diagonalization with overlap
     ethr =  4.43E-09,  avg # of iterations =  3.2

     total cpu time spent up to now is        7.0 secs

     total energy              =    -157.99585625 Ry
     Harris-Foulkes estimate   =    -158.03273855 Ry
     estimated scf accuracy    <       0.00000052 Ry

     iteration #  2     ecut=    50.00 Ry     beta= 0.10
     Davidson diagonalization with overlap
     ethr =  4.31E-09,  avg # of iterations =  2.0

     total cpu time spent up to now is        7.1 secs

     total energy              =    -157.99585596 Ry
     Harris-Foulkes estimate   =    -157.99585631 Ry
     estimated scf accuracy    <       0.00000036 Ry

     iteration #  3     ecut=    50.00 Ry     beta= 0.10
     Davidson diagonalization with overlap
     ethr =  2.97E-09,  avg # of iterations =  1.0

     total cpu time spent up to now is        7.2 secs

     total energy              =    -157.99585578 Ry
     Harris-Foulkes estimate   =    -157.99585597 Ry
     estimated scf accuracy    <       0.00000012 Ry

     iteration #  4     ecut=    50.00 Ry     beta= 0.10
     Davidson diagonalization with overlap
     ethr =  1.03E-09,  avg # of iterations =  1.0

     total cpu time spent up to now is        7.3 secs

     End of self-consistent calculation

          k = 0.1221 0.1221 0.1221 (  2496 PWs)   bands (ev):

    -2.8166   3.7591   3.7591   3.7591   8.2570   8.2570   8.2570  10.0944
    10.0944  10.0944

          k = 0.1221 0.1221 0.3663 (  2481 PWs)   bands (ev):

    -1.6925   0.5282   4.8254   4.8254   6.9569   6.9569   9.3401   9.3401
    11.1056  11.5010

          k = 0.1221 0.3663 0.3663 (  2496 PWs)   bands (ev):

    -0.5772   1.6266   1.6266   3.7938   5.9098   8.0204   8.0204  10.1191
    10.4137  12.4568

          k = 0.3663 0.3663 0.3663 (  2461 PWs)   bands (ev):

     0.5299   2.7153   2.7153   2.7153   4.8879   4.8879   4.8879   7.0189
    15.4670  15.4670

     the Fermi energy is     8.0391 ev

!    total energy              =    -157.99585579 Ry
     Harris-Foulkes estimate   =    -157.99585579 Ry
     estimated scf accuracy    <          4.6E-10 Ry

     total all-electron energy =     -1942.566978 Ry

     The total energy is the sum of the following terms:

     one-electron contribution =      12.64752544 Ry
     hartree contribution      =       0.02672655 Ry
     xc contribution           =     -10.36053924 Ry
     ewald contribution        =     -21.59744933 Ry
     one-center paw contrib.   =    -138.70962179 Ry
     smearing contrib. (-TS)   =      -0.00249741 Ry

     convergence has been achieved in   4 iterations

     Forces acting on atoms (cartesian axes, Ry/au):

     atom    1 type  1   force =     0.00000000    0.00000000    0.00000000
     atom    2 type  1   force =     0.00000000    0.00000000    0.00000000
     atom    3 type  1   force =     0.00000000    0.00000000    0.00000000
     atom    4 type  1   force =     0.00000000    0.00000000    0.00000000

     Total force =     0.000000     Total SCF correction =     0.000000


     Computing stress (Cartesian axis) and pressure

          total   stress  (Ry/bohr**3)                   (kbar)     P=    0.21
   0.00000145   0.00000000   0.00000000          0.21      0.00      0.00
   0.00000000   0.00000145   0.00000000          0.00      0.21      0.00
   0.00000000   0.00000000   0.00000145          0.00      0.00      0.21


     bfgs converged in   4 scf cycles and   3 bfgs steps
     (criteria: energy <  1.0E-04 Ry, force <  1.0E-03Ry/Bohr, cell <  5.0E-01kbar)

     End of BFGS Geometry Optimization

     Final enthalpy =    -157.9958557854 Ry
Begin final coordinates
     new unit-cell volume =    446.35349 a.u.^3 (    66.14276 Ang^3 )
     density =      2.70957 g/cm^3

CELL_PARAMETERS (alat=  7.46550000)
   1.023687531   0.000000000   0.000000000
   0.000000000   1.023687531   0.000000000
   0.000000000   0.000000000   1.023687531

ATOMIC_POSITIONS (crystal)
Al       0.000000000   0.000000000   0.000000000
Al       0.500000000   0.500000000   0.000000000
Al       0.500000000   0.000000000   0.500000000
Al       0.000000000   0.500000000   0.500000000
End final coordinates



     Writing output data file GwNovLcYlDsHOpta.save/

     A final scf calculation at the relaxed structure.
     The G-vectors are recalculated for the final unit cell
     Results may differ from those at the preceding step.

     Parallelization info
     --------------------
     sticks:   dense  smooth     PW     G-vecs:    dense   smooth      PW
     Min         466     466    138                10622    10622    1643
     Max         467     467    139                10625    10625    1644
     Sum         933     933    277                21247    21247    3287



     bravais-lattice index     =            0
     lattice parameter (alat)  =       7.4655  a.u.
     unit-cell volume          =     446.3535 (a.u.)^3
     number of atoms/cell      =            4
     number of atomic types    =            1
     number of electrons       =        12.00
     number of Kohn-Sham states=           10
     kinetic-energy cutoff     =      50.0000  Ry
     charge density cutoff     =     200.0000  Ry
     convergence threshold     =      1.0E-08
     mixing beta               =       0.1000
     number of iterations used =           10  plain     mixing
     Exchange-correlation      = SLA PW PBX PBC ( 1  4  3  4 0 0)

     celldm(1)=   7.465500  celldm(2)=   0.000000  celldm(3)=   0.000000
     celldm(4)=   0.000000  celldm(5)=   0.000000  celldm(6)=   0.000000

     crystal axes: (cart. coord. in units of alat)
               a(1) = (   1.023688   0.000000   0.000000 )  
               a(2) = (   0.000000   1.023688   0.000000 )  
               a(3) = (   0.000000   0.000000   1.023688 )  

     reciprocal axes: (cart. coord. in units 2 pi/alat)
               b(1) = (  0.976861  0.000000  0.000000 )  
               b(2) = (  0.000000  0.976861  0.000000 )  
               b(3) = (  0.000000  0.000000  0.976861 )  


     PseudoPot. # 1 for Al read from file:
     /opt/pp/Al.pbe-nl-kjpaw_psl.1.0.0.UPF
     MD5 check sum: 1b67f78b73fe58c7924490f171ce8a1e
     Pseudo is Projector augmented-wave + core cor, Zval =  3.0
     Generated using "atomic" code by A. Dal Corso v.6.3
     Shape of augmentation charge: PSQ
     Using radial grid of 1135 points,  4 beta functions with: 
                l(1) =   0
                l(2) =   0
                l(3) =   1
                l(4) =   1
     Q(r) pseudized with 0 coefficients 


     atomic species   valence    mass     pseudopotential
        Al             3.00    26.98200     Al( 1.00)

     48 Sym. Ops., with inversion, found



   Cartesian axes

     site n.     atom                  positions (alat units)
         1           Al  tau(   1) = (   0.0000000   0.0000000   0.0000000  )
         2           Al  tau(   2) = (   0.5118438   0.5118438   0.0000000  )
         3           Al  tau(   3) = (   0.5118438   0.0000000   0.5118438  )
         4           Al  tau(   4) = (   0.0000000   0.5118438   0.5118438  )

     number of k points=     4  Marzari-Vanderbilt smearing, width (Ry)=  0.0100
                       cart. coord. in units 2pi/alat
        k(    1) = (   0.1221076   0.1221076   0.1221076), wk =   0.2500000
        k(    2) = (   0.1221076   0.1221076   0.3663227), wk =   0.7500000
        k(    3) = (   0.1221076   0.3663227   0.3663227), wk =   0.7500000
        k(    4) = (   0.3663227   0.3663227   0.3663227), wk =   0.2500000

     Dense  grid:    21247 G-vectors     FFT dimensions: (  36,  36,  36)

     Estimated max dynamical RAM per process >      13.16 MB

     Estimated total dynamical RAM >      52.62 MB

     Initial potential from superposition of free atoms

     starting charge   11.99084, renormalised to   12.00000
     Starting wfcs are   16 randomized atomic wfcs
     Checking if some PAW data can be deallocated... 

     total cpu time spent up to now is        8.4 secs

     Self-consistent Calculation

     iteration #  1     ecut=    50.00 Ry     beta= 0.10
     Davidson diagonalization with overlap
     ethr =  1.00E-06,  avg # of iterations = 11.8

     total cpu time spent up to now is        8.6 secs

     total energy              =    -158.00048375 Ry
     Harris-Foulkes estimate   =    -158.00163230 Ry
     estimated scf accuracy    <       0.02301664 Ry

     iteration #  2     ecut=    50.00 Ry     beta= 0.10
     Davidson diagonalization with overlap
     ethr =  1.92E-04,  avg # of iterations =  1.0

     total cpu time spent up to now is        8.7 secs

     total energy              =    -157.99540332 Ry
     Harris-Foulkes estimate   =    -158.00048981 Ry
     estimated scf accuracy    <       0.01848178 Ry

     iteration #  3     ecut=    50.00 Ry     beta= 0.10
     Davidson diagonalization with overlap
     ethr =  1.54E-04,  avg # of iterations =  1.0

     total cpu time spent up to now is        8.8 secs

     total energy              =    -157.99578493 Ry
     Harris-Foulkes estimate   =    -157.99578602 Ry
     estimated scf accuracy    <       0.00003866 Ry

     iteration #  4     ecut=    50.00 Ry     beta= 0.10
     Davidson diagonalization with overlap
     ethr =  3.22E-07,  avg # of iterations =  3.0

     total cpu time spent up to now is        8.9 secs

     total energy              =    -157.99586378 Ry
     Harris-Foulkes estimate   =    -157.99586521 Ry
     estimated scf accuracy    <       0.00000837 Ry

     iteration #  5     ecut=    50.00 Ry     beta= 0.10
     Davidson diagonalization with overlap
     ethr =  6.98E-08,  avg # of iterations =  1.2

     total cpu time spent up to now is        9.0 secs

     total energy              =    -157.99586328 Ry
     Harris-Foulkes estimate   =    -157.99586402 Ry
     estimated scf accuracy    <       0.00000370 Ry

     iteration #  6     ecut=    50.00 Ry     beta= 0.10
     Davidson diagonalization with overlap
     ethr =  3.08E-08,  avg # of iterations =  1.0

     total cpu time spent up to now is        9.1 secs

     total energy              =    -157.99586297 Ry
     Harris-Foulkes estimate   =    -157.99586336 Ry
     estimated scf accuracy    <       0.00000161 Ry

     iteration #  7     ecut=    50.00 Ry     beta= 0.10
     Davidson diagonalization with overlap
     ethr =  1.34E-08,  avg # of iterations =  1.0

     total cpu time spent up to now is        9.2 secs

     total energy              =    -157.99586299 Ry
     Harris-Foulkes estimate   =    -157.99586299 Ry
     estimated scf accuracy    <       0.00000031 Ry

     iteration #  8     ecut=    50.00 Ry     beta= 0.10
     Davidson diagonalization with overlap
     ethr =  2.61E-09,  avg # of iterations =  1.0

     total cpu time spent up to now is        9.3 secs

     total energy              =    -157.99586295 Ry
     Harris-Foulkes estimate   =    -157.99586299 Ry
     estimated scf accuracy    <       0.00000031 Ry

     iteration #  9     ecut=    50.00 Ry     beta= 0.10
     Davidson diagonalization with overlap
     ethr =  2.59E-09,  avg # of iterations =  1.0

     total cpu time spent up to now is        9.3 secs

     total energy              =    -157.99586297 Ry
     Harris-Foulkes estimate   =    -157.99586296 Ry
     estimated scf accuracy    <       0.00000014 Ry

     iteration # 10     ecut=    50.00 Ry     beta= 0.10
     Davidson diagonalization with overlap
     ethr =  1.14E-09,  avg # of iterations =  1.0

     total cpu time spent up to now is        9.4 secs

     total energy              =    -157.99586294 Ry
     Harris-Foulkes estimate   =    -157.99586297 Ry
     estimated scf accuracy    <       0.00000014 Ry

     iteration # 11     ecut=    50.00 Ry     beta= 0.10
     Davidson diagonalization with overlap
     ethr =  1.14E-09,  avg # of iterations =  1.0

     total cpu time spent up to now is        9.5 secs

     total energy              =    -157.99586296 Ry
     Harris-Foulkes estimate   =    -157.99586294 Ry
     estimated scf accuracy    <       0.00000003 Ry

     iteration # 12     ecut=    50.00 Ry     beta= 0.10
     Davidson diagonalization with overlap
     ethr =  2.79E-10,  avg # of iterations =  1.5

     total cpu time spent up to now is        9.6 secs

     total energy              =    -157.99586298 Ry
     Harris-Foulkes estimate   =    -157.99586296 Ry
     estimated scf accuracy    <       0.00000005 Ry

     iteration # 13     ecut=    50.00 Ry     beta= 0.10
     Davidson diagonalization with overlap
     ethr =  2.79E-10,  avg # of iterations =  1.0

     total cpu time spent up to now is        9.7 secs

     total energy              =    -157.99586298 Ry
     Harris-Foulkes estimate   =    -157.99586298 Ry
     estimated scf accuracy    <       0.00000016 Ry

     iteration # 14     ecut=    50.00 Ry     beta= 0.10
     Davidson diagonalization with overlap
     ethr =  2.79E-10,  avg # of iterations =  1.0

     total cpu time spent up to now is        9.8 secs

     total energy              =    -157.99586298 Ry
     Harris-Foulkes estimate   =    -157.99586298 Ry
     estimated scf accuracy    <       0.00000015 Ry

     iteration # 15     ecut=    50.00 Ry     beta= 0.10
     Davidson diagonalization with overlap
     ethr =  2.79E-10,  avg # of iterations =  1.0

     total cpu time spent up to now is        9.9 secs

     total energy              =    -157.99586297 Ry
     Harris-Foulkes estimate   =    -157.99586299 Ry
     estimated scf accuracy    <       0.00000015 Ry

     iteration # 16     ecut=    50.00 Ry     beta= 0.10
     Davidson diagonalization with overlap
     ethr =  2.79E-10,  avg # of iterations =  1.0

     total cpu time spent up to now is       10.0 secs

     total energy              =    -157.99586294 Ry
     Harris-Foulkes estimate   =    -157.99586298 Ry
     estimated scf accuracy    <       0.00000011 Ry

     iteration # 17     ecut=    50.00 Ry     beta= 0.10
     Davidson diagonalization with overlap
     ethr =  2.79E-10,  avg # of iterations =  2.0

     total cpu time spent up to now is       10.1 secs

     total energy              =    -157.99586293 Ry
     Harris-Foulkes estimate   =    -157.99586295 Ry
     estimated scf accuracy    <       0.00000001 Ry

     iteration # 18     ecut=    50.00 Ry     beta= 0.10
     Davidson diagonalization with overlap
     ethr =  1.06E-10,  avg # of iterations =  2.0

     total cpu time spent up to now is       10.2 secs

     End of self-consistent calculation

          k = 0.1221 0.1221 0.1221 (  2659 PWs)   bands (ev):

    -2.8166   3.7590   3.7591   3.7591   8.2570   8.2570   8.2570  10.0944
    10.0944  10.0944

          k = 0.1221 0.1221 0.3663 (  2679 PWs)   bands (ev):

    -1.6925   0.5283   4.8254   4.8254   6.9569   6.9569   9.3401   9.3401
    11.1056  11.5010

          k = 0.1221 0.3663 0.3663 (  2656 PWs)   bands (ev):

    -0.5772   1.6266   1.6266   3.7938   5.9098   8.0204   8.0204  10.1191
    10.4137  12.4569

          k = 0.3663 0.3663 0.3663 (  2662 PWs)   bands (ev):

     0.5299   2.7153   2.7153   2.7153   4.8879   4.8879   4.8879   7.0189
    15.4669  15.4669

     the Fermi energy is     8.0391 ev

!    total energy              =    -157.99586294 Ry
     Harris-Foulkes estimate   =    -157.99586293 Ry
     estimated scf accuracy    <          1.2E-09 Ry

     total all-electron energy =     -1942.566985 Ry

     The total energy is the sum of the following terms:

     one-electron contribution =      12.64752099 Ry
     hartree contribution      =       0.02672729 Ry
     xc contribution           =     -10.36054081 Ry
     ewald contribution        =     -21.59744931 Ry
     one-center paw contrib.   =    -138.70962369 Ry
     smearing contrib. (-TS)   =      -0.00249740 Ry

     convergence has been achieved in  18 iterations

     Forces acting on atoms (cartesian axes, Ry/au):

     atom    1 type  1   force =     0.00000000    0.00000000    0.00000000
     atom    2 type  1   force =     0.00000000    0.00000000    0.00000000
     atom    3 type  1   force =     0.00000000    0.00000000    0.00000000
     atom    4 type  1   force =     0.00000000    0.00000000    0.00000000

     Total force =     0.000000     Total SCF correction =     0.000000


     Computing stress (Cartesian axis) and pressure

          total   stress  (Ry/bohr**3)                   (kbar)     P=    0.21
   0.00000140   0.00000000   0.00000000          0.21      0.00      0.00
   0.00000000   0.00000140   0.00000000          0.00      0.21      0.00
   0.00000000   0.00000000   0.00000140          0.00      0.00      0.21


     Writing output data file GwNovLcYlDsHOpta.save/

     init_run     :      0.88s CPU      0.88s WALL (       2 calls)
     electrons    :      3.61s CPU      3.72s WALL (       5 calls)
     update_pot   :      1.58s CPU      1.59s WALL (       3 calls)
     forces       :      1.24s CPU      1.24s WALL (       5 calls)
     stress       :      2.42s CPU      2.42s WALL (       5 calls)

     Called by init_run:
     wfcinit      :      0.04s CPU      0.05s WALL (       2 calls)
     potinit      :      0.21s CPU      0.21s WALL (       2 calls)
     hinit0       :      0.56s CPU      0.56s WALL (       2 calls)

     Called by electrons:
     c_bands      :      1.46s CPU      1.51s WALL (      40 calls)
     sum_band     :      0.38s CPU      0.41s WALL (      40 calls)
     v_of_rho     :      0.45s CPU      0.45s WALL (      43 calls)
     newd         :      0.13s CPU      0.13s WALL (      43 calls)
     PAW_pot      :      1.42s CPU      1.43s WALL (      46 calls)
     mix_rho      :      0.07s CPU      0.07s WALL (      40 calls)

     Called by c_bands:
     init_us_2    :      0.04s CPU      0.04s WALL (     190 calls)
     cegterg      :      1.33s CPU      1.37s WALL (      80 calls)

     Called by sum_band:
     sum_band:bec :      0.00s CPU      0.00s WALL (      86 calls)
     addusdens    :      0.09s CPU      0.10s WALL (      40 calls)

     Called by *egterg:
     h_psi        :      1.08s CPU      1.11s WALL (     247 calls)
     s_psi        :      0.07s CPU      0.07s WALL (     247 calls)
     g_psi        :      0.01s CPU      0.01s WALL (     163 calls)
     cdiaghg      :      0.03s CPU      0.03s WALL (     233 calls)

     Called by h_psi:
     h_psi:pot    :      1.07s CPU      1.11s WALL (     247 calls)
     h_psi:calbec :      0.09s CPU      0.10s WALL (     247 calls)
     vloc_psi     :      0.91s CPU      0.94s WALL (     247 calls)
     add_vuspsi   :      0.07s CPU      0.07s WALL (     247 calls)

     General routines
     calbec       :      0.15s CPU      0.16s WALL (     383 calls)
     fft          :      0.24s CPU      0.24s WALL (     603 calls)
     ffts         :      0.02s CPU      0.02s WALL (      40 calls)
     fftw         :      1.01s CPU      1.05s WALL (    4966 calls)

     Parallel routines
     fft_scatt_xy :      0.12s CPU      0.12s WALL (    5609 calls)
     fft_scatt_yz :      0.25s CPU      0.26s WALL (    5609 calls)

     PWSCF        :     10.18s CPU     10.30s WALL


   This run was terminated on:  13:37:52  15May2022            

=------------------------------------------------------------------------------=
   JOB DONE.
=------------------------------------------------------------------------------=
