
     Program PWSCF v.6.6 starts on 15May2022 at 15:23:28 

     This program is part of the open-source Quantum ESPRESSO suite
     for quantum simulation of materials; please cite
         "P. Giannozzi et al., J. Phys.:Condens. Matter 21 395502 (2009);
         "P. Giannozzi et al., J. Phys.:Condens. Matter 29 465901 (2017);
          URL http://www.quantum-espresso.org", 
     in publications or presentations arising from this work. More details at
     http://www.quantum-espresso.org/quote

     Parallel version (MPI & OpenMP), running on      72 processor cores
     Number of MPI processes:                72
     Threads/MPI process:                     1

     MPI processes distributed on     1 nodes
     K-points division:     npool     =      18
     R & G space division:  proc/nbgrp/npool/nimage =       4
     Fft bands division:     nmany     =       1
     Reading input from /rds/homes/b/bxp912/jobs/20220515_al_eos/out/relax/relax.in

     Current dimensions of program PWSCF are:
     Max number of different atomic species (ntypx) = 10
     Max number of k-points (npk) =  40000
     Max angular momentum in pseudopotentials (lmaxx) =  3
     Message from routine emend_upf/check:
     BEWARE !!! Possible out of bounds while fixing pseudo
     Message from routine emend_upf/check:
     BEWARE !!! Possible out of bounds while fixing pseudo
     Message from routine read_upf:
     Pseudo file Al.pbe-nl-kjpaw_psl.1.0.0.UPF has been fixed on the fly.
     To avoid this message in the future, permanently fix 
     your pseudo files following these instructions: 
     https://gitlab.com/QEF/q-e/blob/master/upftools/how_to_fix_upf.md
     file Al.pbe-nl-kjpaw_psl.1.0.0.UPF: wavefunction(s)  3S 3P renormalized

     Subspace diagonalization in iterative solution of the eigenvalue problem:
     one sub-group per band group will be used
     ELPA distributed-memory algorithm (size of sub-group:  2*  2 procs)

     Found symmetry operation: I + ( -0.5000 -0.5000  0.0000)
     This is a supercell, fractional translations are disabled
     Message from routine setup:
     using ibrav=0 with symmetry is DISCOURAGED, use correct ibrav instead

     Parallelization info
     --------------------
     sticks:   dense  smooth     PW     G-vecs:    dense   smooth      PW
     Min         221     221     68                 5001     5001     821
     Max         222     222     70                 5002     5002     822
     Sum         885     885    277                20005    20005    3287



     bravais-lattice index     =            0
     lattice parameter (alat)  =       7.4844  a.u.
     unit-cell volume          =     419.2480 (a.u.)^3
     number of atoms/cell      =            4
     number of atomic types    =            1
     number of electrons       =        12.00
     number of Kohn-Sham states=           10
     kinetic-energy cutoff     =      50.0000  Ry
     charge density cutoff     =     200.0000  Ry
     convergence threshold     =      1.0E-06
     mixing beta               =       0.1000
     number of iterations used =           10  plain     mixing
     Exchange-correlation= SLA PW PBX PBC
                           (   1   4   3   4   0   0   0)
     nstep                     =           50


     celldm(1)=   7.484400  celldm(2)=   0.000000  celldm(3)=   0.000000
     celldm(4)=   0.000000  celldm(5)=   0.000000  celldm(6)=   0.000000

     crystal axes: (cart. coord. in units of alat)
               a(1) = (   1.000000   0.000000   0.000000 )  
               a(2) = (   0.000000   1.000000   0.000000 )  
               a(3) = (   0.000000   0.000000   1.000000 )  

     reciprocal axes: (cart. coord. in units 2 pi/alat)
               b(1) = (  1.000000  0.000000  0.000000 )  
               b(2) = (  0.000000  1.000000  0.000000 )  
               b(3) = (  0.000000  0.000000  1.000000 )  


     PseudoPot. # 1 for Al read from file:
     /rds/homes/b/bxp912/pp/Al.pbe-nl-kjpaw_psl.1.0.0.UPF
     MD5 check sum: 339dbea23cf3ab9a065ad45c0f9085d7
     Pseudo is Projector augmented-wave + core cor, Zval =  3.0
     Generated using "atomic" code by A. Dal Corso v.5.1
     Shape of augmentation charge: PSQ
     Using radial grid of 1135 points,  4 beta functions with: 
                l(1) =   0
                l(2) =   0
                l(3) =   1
                l(4) =   1
     Q(r) pseudized with 0 coefficients 


     atomic species   valence    mass     pseudopotential
        Al             3.00    26.98200     Al( 1.00)

     48 Sym. Ops., with inversion, found



   Cartesian axes

     site n.     atom                  positions (alat units)
         1           Al  tau(   1) = (   0.0000000   0.0000000   0.0000000  )
         2           Al  tau(   2) = (   0.5000000   0.5000000   0.0000000  )
         3           Al  tau(   3) = (   0.5000000   0.0000000   0.5000000  )
         4           Al  tau(   4) = (   0.0000000   0.5000000   0.5000000  )

     number of k points=  1140  Marzari-Vanderbilt smearing, width (Ry)=  0.0200

     Number of k-points >= 100: set verbosity='high' to print them.

     Dense  grid:    20005 G-vectors     FFT dimensions: (  36,  36,  36)

     Estimated max dynamical RAM per process >      10.92 MB

     Estimated total dynamical RAM >     786.27 MB

     Initial potential from superposition of free atoms

     starting charge   11.99084, renormalised to   12.00000
     Starting wfcs are   16 randomized atomic wfcs
     Checking if some PAW data can be deallocated... 

     total cpu time spent up to now is        3.1 secs

     Self-consistent Calculation

     iteration #  1     ecut=    50.00 Ry     beta= 0.10
     Davidson diagonalization with overlap
     ethr =  1.00E-02,  avg # of iterations =  3.7

     Threshold (ethr) on eigenvalues was too large:
     Diagonalizing with lowered threshold

     Davidson diagonalization with overlap
     ethr =  1.78E-04,  avg # of iterations =  5.1

     total cpu time spent up to now is        6.1 secs

     total energy              =    -158.01097930 Ry
     estimated scf accuracy    <       0.02228010 Ry

     iteration #  2     ecut=    50.00 Ry     beta= 0.10
     Davidson diagonalization with overlap
     ethr =  1.86E-04,  avg # of iterations =  1.1

     total cpu time spent up to now is        7.0 secs

     total energy              =    -158.00601265 Ry
     estimated scf accuracy    <       0.01791595 Ry

     iteration #  3     ecut=    50.00 Ry     beta= 0.10
     Davidson diagonalization with overlap
     ethr =  1.49E-04,  avg # of iterations =  1.2

     total cpu time spent up to now is        7.9 secs

     total energy              =    -158.00638781 Ry
     estimated scf accuracy    <       0.00003507 Ry

     iteration #  4     ecut=    50.00 Ry     beta= 0.10
     Davidson diagonalization with overlap
     c_bands:  1 eigenvalues not converged
     c_bands:  1 eigenvalues not converged
     ethr =  2.92E-07,  avg # of iterations =  6.9

     total cpu time spent up to now is       10.4 secs

     total energy              =    -158.00646015 Ry
     estimated scf accuracy    <       0.00002329 Ry

     iteration #  5     ecut=    50.00 Ry     beta= 0.10
     Davidson diagonalization with overlap
     ethr =  1.94E-07,  avg # of iterations =  1.1

     total cpu time spent up to now is       11.3 secs

     total energy              =    -158.00645753 Ry
     estimated scf accuracy    <       0.00002014 Ry

     iteration #  6     ecut=    50.00 Ry     beta= 0.10
     Davidson diagonalization with overlap
     ethr =  1.68E-07,  avg # of iterations =  1.0

     total cpu time spent up to now is       12.1 secs

     total energy              =    -158.00646019 Ry
     estimated scf accuracy    <       0.00000350 Ry

     iteration #  7     ecut=    50.00 Ry     beta= 0.10
     Davidson diagonalization with overlap
     ethr =  2.92E-08,  avg # of iterations =  2.3

     total cpu time spent up to now is       13.3 secs

     total energy              =    -158.00645633 Ry
     estimated scf accuracy    <       0.00001322 Ry

     iteration #  8     ecut=    50.00 Ry     beta= 0.10
     Davidson diagonalization with overlap
     ethr =  2.92E-08,  avg # of iterations =  1.7

     total cpu time spent up to now is       14.2 secs

     End of self-consistent calculation

     Number of k-points >= 100: set verbosity='high' to print the bands.

     the Fermi energy is     8.5587 ev

!    total energy              =    -158.00645658 Ry

     total all-electron energy =     -1942.577584 Ry
     estimated scf accuracy    <       0.00000026 Ry
     smearing contrib. (-TS)   =      -0.00017283 Ry
     internal energy E=F+TS    =    -158.00628375 Ry

     The total energy is F=E-TS. E is the sum of the following terms:
     one-electron contribution =      13.24728233 Ry
     hartree contribution      =       0.02676235 Ry
     xc contribution           =     -10.49501886 Ry
     ewald contribution        =     -22.05320864 Ry
     one-center paw contrib.   =    -138.73210093 Ry

     convergence has been achieved in   8 iterations

     Forces acting on atoms (cartesian axes, Ry/au):

     atom    1 type  1   force =     0.00000000    0.00000000    0.00000000
     atom    2 type  1   force =     0.00000000    0.00000000    0.00000000
     atom    3 type  1   force =     0.00000000    0.00000000    0.00000000
     atom    4 type  1   force =     0.00000000    0.00000000    0.00000000

     Total force =     0.000000     Total SCF correction =     0.000000


     Computing stress (Cartesian axis) and pressure

          total   stress  (Ry/bohr**3)                   (kbar)     P=       52.70
   0.00035823   0.00000000   0.00000000           52.70        0.00        0.00
   0.00000000   0.00035823   0.00000000            0.00       52.70        0.00
   0.00000000   0.00000000   0.00035823            0.00        0.00       52.70


     BFGS Geometry Optimization

     number of scf cycles    =   1
     number of bfgs steps    =   0

     enthalpy new            =    -158.0064565763 Ry

     new trust radius        =       0.0366749377 bohr
     new conv_thr            =       0.0000010000 Ry

     new unit-cell volume =    430.61324 a.u.^3 (    63.81030 Ang^3 )
     density =      2.80862 g/cm^3

CELL_PARAMETERS (alat=  7.48440000)
   1.008955790   0.000000000   0.000000000
   0.000000000   1.008955790   0.000000000
   0.000000000   0.000000000   1.008955790

ATOMIC_POSITIONS (crystal)
Al            0.0000000000        0.0000000000        0.0000000000
Al            0.5000000000        0.5000000000        0.0000000000
Al            0.5000000000        0.0000000000        0.5000000000
Al            0.0000000000        0.5000000000        0.5000000000



     Writing output data file /scratch/XLQjoGFWQXWuuADt.save/
     NEW-OLD atomic charge density approx. for the potential
     extrapolated charge   12.31648, renormalised to   12.00000

     total cpu time spent up to now is       15.4 secs

     Self-consistent Calculation

     iteration #  1     ecut=    50.00 Ry     beta= 0.10
     Davidson diagonalization with overlap
     ethr =  1.00E-06,  avg # of iterations =  6.5

     total cpu time spent up to now is       17.6 secs

     total energy              =    -158.00953481 Ry
     estimated scf accuracy    <       0.00001764 Ry

     iteration #  2     ecut=    50.00 Ry     beta= 0.10
     Davidson diagonalization with overlap
     ethr =  1.47E-07,  avg # of iterations =  2.5

     total cpu time spent up to now is       18.7 secs

     total energy              =    -158.00952461 Ry
     estimated scf accuracy    <       0.00001208 Ry

     iteration #  3     ecut=    50.00 Ry     beta= 0.10
     Davidson diagonalization with overlap
     ethr =  1.01E-07,  avg # of iterations =  1.0

     total cpu time spent up to now is       19.6 secs

     total energy              =    -158.00951422 Ry
     estimated scf accuracy    <       0.00000515 Ry

     iteration #  4     ecut=    50.00 Ry     beta= 0.10
     Davidson diagonalization with overlap
     ethr =  4.29E-08,  avg # of iterations =  1.0

     total cpu time spent up to now is       20.4 secs

     End of self-consistent calculation

     Number of k-points >= 100: set verbosity='high' to print the bands.

     the Fermi energy is     8.2709 ev

!    total energy              =    -158.00951431 Ry

     total all-electron energy =     -1942.580642 Ry
     estimated scf accuracy    <       0.00000001 Ry
     smearing contrib. (-TS)   =      -0.00014978 Ry
     internal energy E=F+TS    =    -158.00936453 Ry

     The total energy is F=E-TS. E is the sum of the following terms:
     one-electron contribution =      12.98030181 Ry
     hartree contribution      =       0.02561075 Ry
     xc contribution           =     -10.43606739 Ry
     ewald contribution        =     -21.85745784 Ry
     one-center paw contrib.   =    -138.72175185 Ry

     convergence has been achieved in   4 iterations

     Forces acting on atoms (cartesian axes, Ry/au):

     atom    1 type  1   force =     0.00000000    0.00000000    0.00000000
     atom    2 type  1   force =     0.00000000    0.00000000    0.00000000
     atom    3 type  1   force =     0.00000000    0.00000000    0.00000000
     atom    4 type  1   force =     0.00000000    0.00000000    0.00000000

     Total force =     0.000000     Total SCF correction =     0.000000


     Computing stress (Cartesian axis) and pressure

          total   stress  (Ry/bohr**3)                   (kbar)     P=       27.06
   0.00018398   0.00000000   0.00000000           27.06        0.00        0.00
   0.00000000   0.00018398   0.00000000            0.00       27.06        0.00
   0.00000000   0.00000000   0.00018398            0.00        0.00       27.06


     number of scf cycles    =   2
     number of bfgs steps    =   1

     enthalpy old            =    -158.0064565763 Ry
     enthalpy new            =    -158.0095143070 Ry

     CASE: enthalpy_new < enthalpy_old

     new trust radius        =       0.0403604772 bohr
     new conv_thr            =       0.0000000100 Ry

     new unit-cell volume =    443.29875 a.u.^3 (    65.69010 Ang^3 )
     density =      2.72824 g/cm^3

CELL_PARAMETERS (alat=  7.48440000)
   1.018767727   0.000000000   0.000000000
   0.000000000   1.018767727   0.000000000
   0.000000000   0.000000000   1.018767727

ATOMIC_POSITIONS (crystal)
Al            0.0000000000        0.0000000000        0.0000000000
Al            0.5000000000        0.5000000000        0.0000000000
Al            0.5000000000        0.0000000000        0.5000000000
Al            0.0000000000        0.5000000000        0.5000000000



     Writing output data file /scratch/XLQjoGFWQXWuuADt.save/
     NEW-OLD atomic charge density approx. for the potential
     extrapolated charge   12.34313, renormalised to   12.00000

     total cpu time spent up to now is       21.3 secs

     Self-consistent Calculation

     iteration #  1     ecut=    50.00 Ry     beta= 0.10
     Davidson diagonalization with overlap
     ethr =  1.00E-06,  avg # of iterations =  7.1

     total cpu time spent up to now is       23.7 secs

     total energy              =    -158.01078682 Ry
     estimated scf accuracy    <       0.00002024 Ry

     iteration #  2     ecut=    50.00 Ry     beta= 0.10
     Davidson diagonalization with overlap
     ethr =  1.69E-07,  avg # of iterations =  2.4

     total cpu time spent up to now is       24.9 secs

     total energy              =    -158.01077456 Ry
     estimated scf accuracy    <       0.00001326 Ry

     iteration #  3     ecut=    50.00 Ry     beta= 0.10
     Davidson diagonalization with overlap
     ethr =  1.11E-07,  avg # of iterations =  1.0

     total cpu time spent up to now is       25.9 secs

     total energy              =    -158.01076135 Ry
     estimated scf accuracy    <       0.00000593 Ry

     iteration #  4     ecut=    50.00 Ry     beta= 0.10
     Davidson diagonalization with overlap
     ethr =  4.94E-08,  avg # of iterations =  1.0

     total cpu time spent up to now is       26.8 secs

     total energy              =    -158.01076147 Ry
     estimated scf accuracy    <       0.00000001 Ry

     iteration #  5     ecut=    50.00 Ry     beta= 0.10
     Davidson diagonalization with overlap
     ethr =  1.09E-10,  avg # of iterations =  5.3

     total cpu time spent up to now is       28.8 secs

     total energy              =    -158.01076150 Ry
     estimated scf accuracy    <       0.00000001 Ry

     iteration #  6     ecut=    50.00 Ry     beta= 0.10
     Davidson diagonalization with overlap
     ethr =  8.66E-11,  avg # of iterations =  1.0

     total cpu time spent up to now is       29.6 secs

     End of self-consistent calculation

     Number of k-points >= 100: set verbosity='high' to print the bands.

     the Fermi energy is     7.9641 ev

!    total energy              =    -158.01076149 Ry

     total all-electron energy =     -1942.581889 Ry
     estimated scf accuracy    <          3.1E-09 Ry
     smearing contrib. (-TS)   =      -0.00012034 Ry
     internal energy E=F+TS    =    -158.01064116 Ry

     The total energy is F=E-TS. E is the sum of the following terms:
     one-electron contribution =      12.69625500 Ry
     hartree contribution      =       0.02471043 Ry
     xc contribution           =     -10.37332348 Ry
     ewald contribution        =     -21.64694471 Ry
     one-center paw contrib.   =    -138.71133840 Ry

     convergence has been achieved in   6 iterations

     Forces acting on atoms (cartesian axes, Ry/au):

     atom    1 type  1   force =     0.00000000    0.00000000    0.00000000
     atom    2 type  1   force =     0.00000000    0.00000000    0.00000000
     atom    3 type  1   force =     0.00000000    0.00000000    0.00000000
     atom    4 type  1   force =     0.00000000    0.00000000    0.00000000

     Total force =     0.000000     Total SCF correction =     0.000000


     Computing stress (Cartesian axis) and pressure

          total   stress  (Ry/bohr**3)                   (kbar)     P=        2.51
   0.00001703   0.00000000   0.00000000            2.51        0.00        0.00
   0.00000000   0.00001703   0.00000000            0.00        2.51        0.00
   0.00000000   0.00000000   0.00001703            0.00        0.00        2.51


     number of scf cycles    =   3
     number of bfgs steps    =   2

     enthalpy old            =    -158.0095143070 Ry
     enthalpy new            =    -158.0107614936 Ry

     CASE: enthalpy_new < enthalpy_old

     new trust radius        =       0.0042269012 bohr
     new conv_thr            =       0.0000000100 Ry

     new unit-cell volume =    444.63503 a.u.^3 (    65.88811 Ang^3 )
     density =      2.72005 g/cm^3

CELL_PARAMETERS (alat=  7.48440000)
   1.019790358   0.000000000   0.000000000
   0.000000000   1.019790358   0.000000000
   0.000000000   0.000000000   1.019790358

ATOMIC_POSITIONS (crystal)
Al            0.0000000000        0.0000000000        0.0000000000
Al            0.5000000000        0.5000000000        0.0000000000
Al            0.5000000000        0.0000000000        0.5000000000
Al            0.0000000000        0.5000000000        0.5000000000



     Writing output data file /scratch/XLQjoGFWQXWuuADt.save/
     NEW-OLD atomic charge density approx. for the potential
     extrapolated charge   12.03604, renormalised to   12.00000

     total cpu time spent up to now is       30.5 secs

     Self-consistent Calculation

     iteration #  1     ecut=    50.00 Ry     beta= 0.10
     Davidson diagonalization with overlap
     ethr =  1.00E-06,  avg # of iterations =  2.0

     Threshold (ethr) on eigenvalues was too large:
     Diagonalizing with lowered threshold

     Davidson diagonalization with overlap
     ethr =  4.24E-09,  avg # of iterations =  4.8

     total cpu time spent up to now is       33.6 secs

     total energy              =    -158.01077378 Ry
     estimated scf accuracy    <       0.00000027 Ry

     iteration #  2     ecut=    50.00 Ry     beta= 0.10
     Davidson diagonalization with overlap
     ethr =  2.23E-09,  avg # of iterations =  2.0

     total cpu time spent up to now is       34.7 secs

     total energy              =    -158.01077361 Ry
     estimated scf accuracy    <       0.00000018 Ry

     iteration #  3     ecut=    50.00 Ry     beta= 0.10
     Davidson diagonalization with overlap
     ethr =  1.52E-09,  avg # of iterations =  1.0

     total cpu time spent up to now is       35.6 secs

     total energy              =    -158.01077349 Ry
     estimated scf accuracy    <       0.00000007 Ry

     iteration #  4     ecut=    50.00 Ry     beta= 0.10
     Davidson diagonalization with overlap
     ethr =  5.79E-10,  avg # of iterations =  1.0

     total cpu time spent up to now is       36.5 secs

     End of self-consistent calculation

     Number of k-points >= 100: set verbosity='high' to print the bands.

     the Fermi energy is     7.9326 ev

!    total energy              =    -158.01077349 Ry

     total all-electron energy =     -1942.581901 Ry
     estimated scf accuracy    <          1.7E-10 Ry
     smearing contrib. (-TS)   =      -0.00011727 Ry
     internal energy E=F+TS    =    -158.01065622 Ry

     The total energy is F=E-TS. E is the sum of the following terms:
     one-electron contribution =      12.66714869 Ry
     hartree contribution      =       0.02463789 Ry
     xc contribution           =     -10.36689423 Ry
     ewald contribution        =     -21.62523746 Ry
     one-center paw contrib.   =    -138.71031110 Ry

     convergence has been achieved in   4 iterations

     Forces acting on atoms (cartesian axes, Ry/au):

     atom    1 type  1   force =     0.00000000    0.00000000    0.00000000
     atom    2 type  1   force =     0.00000000    0.00000000    0.00000000
     atom    3 type  1   force =     0.00000000    0.00000000    0.00000000
     atom    4 type  1   force =     0.00000000    0.00000000    0.00000000

     Total force =     0.000000     Total SCF correction =     0.000000


     Computing stress (Cartesian axis) and pressure

          total   stress  (Ry/bohr**3)                   (kbar)     P=        0.14
   0.00000098   0.00000000   0.00000000            0.14        0.00        0.00
   0.00000000   0.00000098   0.00000000            0.00        0.14        0.00
   0.00000000   0.00000000   0.00000098            0.00        0.00        0.14


     bfgs converged in   4 scf cycles and   3 bfgs steps
     (criteria: energy <  1.0E-04 Ry, force <  1.0E-03Ry/Bohr, cell <  5.0E-01kbar)

     End of BFGS Geometry Optimization

     Final enthalpy =    -158.0107734948 Ry

     File /scratch/XLQjoGFWQXWuuADt.bfgs deleted, as requested
Begin final coordinates
     new unit-cell volume =    444.63503 a.u.^3 (    65.88811 Ang^3 )
     density =      2.72005 g/cm^3

CELL_PARAMETERS (alat=  7.48440000)
   1.019790358   0.000000000   0.000000000
   0.000000000   1.019790358   0.000000000
   0.000000000   0.000000000   1.019790358

ATOMIC_POSITIONS (crystal)
Al            0.0000000000        0.0000000000        0.0000000000
Al            0.5000000000        0.5000000000        0.0000000000
Al            0.5000000000        0.0000000000        0.5000000000
Al            0.0000000000        0.5000000000        0.5000000000
End final coordinates



     Writing output data file /scratch/XLQjoGFWQXWuuADt.save/

     Final scf calculation at the relaxed structure.
     The G-vectors are recalculated for the final unit cell
     Results may differ from those at the preceding step.

     Parallelization info
     --------------------
     sticks:   dense  smooth     PW     G-vecs:    dense   smooth      PW
     Min         233     233     69                 5311     5311     857
     Max         234     234     70                 5314     5314     860
     Sum         933     933    277                21247    21247    3431



     bravais-lattice index     =            0
     lattice parameter (alat)  =       7.4844  a.u.
     unit-cell volume          =     444.6350 (a.u.)^3
     number of atoms/cell      =            4
     number of atomic types    =            1
     number of electrons       =        12.00
     number of Kohn-Sham states=           10
     kinetic-energy cutoff     =      50.0000  Ry
     charge density cutoff     =     200.0000  Ry
     convergence threshold     =      1.0E-08
     mixing beta               =       0.1000
     number of iterations used =           10  plain     mixing
     Exchange-correlation= SLA PW PBX PBC
                           (   1   4   3   4   0   0   0)

     celldm(1)=   7.484400  celldm(2)=   0.000000  celldm(3)=   0.000000
     celldm(4)=   0.000000  celldm(5)=   0.000000  celldm(6)=   0.000000

     crystal axes: (cart. coord. in units of alat)
               a(1) = (   1.019790   0.000000   0.000000 )  
               a(2) = (   0.000000   1.019790   0.000000 )  
               a(3) = (   0.000000   0.000000   1.019790 )  

     reciprocal axes: (cart. coord. in units 2 pi/alat)
               b(1) = (  0.980594  0.000000  0.000000 )  
               b(2) = (  0.000000  0.980594  0.000000 )  
               b(3) = (  0.000000  0.000000  0.980594 )  


     PseudoPot. # 1 for Al read from file:
     /rds/homes/b/bxp912/pp/Al.pbe-nl-kjpaw_psl.1.0.0.UPF
     MD5 check sum: 339dbea23cf3ab9a065ad45c0f9085d7
     Pseudo is Projector augmented-wave + core cor, Zval =  3.0
     Generated using "atomic" code by A. Dal Corso v.5.1
     Shape of augmentation charge: PSQ
     Using radial grid of 1135 points,  4 beta functions with: 
                l(1) =   0
                l(2) =   0
                l(3) =   1
                l(4) =   1
     Q(r) pseudized with 0 coefficients 


     atomic species   valence    mass     pseudopotential
        Al             3.00    26.98200     Al( 1.00)

     48 Sym. Ops., with inversion, found



   Cartesian axes

     site n.     atom                  positions (alat units)
         1           Al  tau(   1) = (   0.0000000   0.0000000   0.0000000  )
         2           Al  tau(   2) = (   0.5098952   0.5098952   0.0000000  )
         3           Al  tau(   3) = (   0.5098952   0.0000000   0.5098952  )
         4           Al  tau(   4) = (   0.0000000   0.5098952   0.5098952  )

     number of k points=  1140  Marzari-Vanderbilt smearing, width (Ry)=  0.0200

     Number of k-points >= 100: set verbosity='high' to print them.

     Dense  grid:    21247 G-vectors     FFT dimensions: (  36,  36,  36)

     Estimated max dynamical RAM per process >      11.54 MB

     Estimated total dynamical RAM >     830.74 MB

     Initial potential from superposition of free atoms

     starting charge   11.99084, renormalised to   12.00000
     Starting wfcs are   16 randomized atomic wfcs
     Checking if some PAW data can be deallocated... 

     total cpu time spent up to now is       37.8 secs

     Self-consistent Calculation

     iteration #  1     ecut=    50.00 Ry     beta= 0.10
     Davidson diagonalization with overlap
     c_bands:  3 eigenvalues not converged
     c_bands:  3 eigenvalues not converged
     c_bands:  2 eigenvalues not converged
     c_bands:  1 eigenvalues not converged
     c_bands:  2 eigenvalues not converged
     c_bands:  1 eigenvalues not converged
     c_bands:  1 eigenvalues not converged
     c_bands:  2 eigenvalues not converged
     c_bands:  3 eigenvalues not converged
     c_bands:  3 eigenvalues not converged
     c_bands:  1 eigenvalues not converged
     c_bands:  1 eigenvalues not converged
     c_bands:  1 eigenvalues not converged
     c_bands:  1 eigenvalues not converged
     c_bands:  2 eigenvalues not converged
     c_bands:  2 eigenvalues not converged
     c_bands:  2 eigenvalues not converged
     c_bands:  2 eigenvalues not converged
     c_bands:  1 eigenvalues not converged
     c_bands:  1 eigenvalues not converged
     c_bands:  1 eigenvalues not converged
     c_bands:  2 eigenvalues not converged
     c_bands:  2 eigenvalues not converged
     c_bands:  1 eigenvalues not converged
     c_bands:  1 eigenvalues not converged
     ethr =  1.00E-06,  avg # of iterations = 18.3

     total cpu time spent up to now is       43.7 secs

     total energy              =    -158.01552012 Ry
     estimated scf accuracy    <       0.02256462 Ry

     iteration #  2     ecut=    50.00 Ry     beta= 0.10
     Davidson diagonalization with overlap
     ethr =  1.88E-04,  avg # of iterations =  1.1

     total cpu time spent up to now is       44.7 secs

     total energy              =    -158.01032895 Ry
     estimated scf accuracy    <       0.01810198 Ry

     iteration #  3     ecut=    50.00 Ry     beta= 0.10
     Davidson diagonalization with overlap
     ethr =  1.51E-04,  avg # of iterations =  1.0

     total cpu time spent up to now is       45.7 secs

     total energy              =    -158.01070250 Ry
     estimated scf accuracy    <       0.00003725 Ry

     iteration #  4     ecut=    50.00 Ry     beta= 0.10
     Davidson diagonalization with overlap
     ethr =  3.10E-07,  avg # of iterations =  5.3

     total cpu time spent up to now is       47.9 secs

     total energy              =    -158.01078003 Ry
     estimated scf accuracy    <       0.00000656 Ry

     iteration #  5     ecut=    50.00 Ry     beta= 0.10
     Davidson diagonalization with overlap
     ethr =  5.47E-08,  avg # of iterations =  1.4

     total cpu time spent up to now is       49.0 secs

     total energy              =    -158.01077992 Ry
     estimated scf accuracy    <       0.00000258 Ry

     iteration #  6     ecut=    50.00 Ry     beta= 0.10
     Davidson diagonalization with overlap
     ethr =  2.15E-08,  avg # of iterations =  1.6

     total cpu time spent up to now is       50.0 secs

     total energy              =    -158.01077934 Ry
     estimated scf accuracy    <       0.00000265 Ry

     iteration #  7     ecut=    50.00 Ry     beta= 0.10
     Davidson diagonalization with overlap
     ethr =  2.15E-08,  avg # of iterations =  1.0

     total cpu time spent up to now is       50.9 secs

     total energy              =    -158.01077943 Ry
     estimated scf accuracy    <       0.00000038 Ry

     iteration #  8     ecut=    50.00 Ry     beta= 0.10
     Davidson diagonalization with overlap
     ethr =  3.20E-09,  avg # of iterations =  1.0

     total cpu time spent up to now is       51.8 secs

     total energy              =    -158.01077944 Ry
     estimated scf accuracy    <       0.00000048 Ry

     iteration #  9     ecut=    50.00 Ry     beta= 0.10
     Davidson diagonalization with overlap
     ethr =  3.20E-09,  avg # of iterations =  1.0

     total cpu time spent up to now is       52.6 secs

     total energy              =    -158.01077935 Ry
     estimated scf accuracy    <       0.00000048 Ry

     iteration # 10     ecut=    50.00 Ry     beta= 0.10
     Davidson diagonalization with overlap
     ethr =  3.20E-09,  avg # of iterations =  1.0

     total cpu time spent up to now is       53.5 secs

     total energy              =    -158.01077938 Ry
     estimated scf accuracy    <       0.00000002 Ry

     iteration # 11     ecut=    50.00 Ry     beta= 0.10
     Davidson diagonalization with overlap
     ethr =  1.66E-10,  avg # of iterations =  2.3

     total cpu time spent up to now is       54.7 secs

     End of self-consistent calculation

     Number of k-points >= 100: set verbosity='high' to print the bands.

     the Fermi energy is     7.9326 ev

!    total energy              =    -158.01077938 Ry

     total all-electron energy =     -1942.581907 Ry
     estimated scf accuracy    <          1.6E-09 Ry
     smearing contrib. (-TS)   =      -0.00011729 Ry
     internal energy E=F+TS    =    -158.01066210 Ry

     The total energy is F=E-TS. E is the sum of the following terms:
     one-electron contribution =      12.66713771 Ry
     hartree contribution      =       0.02463794 Ry
     xc contribution           =     -10.36688983 Ry
     ewald contribution        =     -21.62523745 Ry
     one-center paw contrib.   =    -138.71031046 Ry

     convergence has been achieved in  11 iterations

     Forces acting on atoms (cartesian axes, Ry/au):

     atom    1 type  1   force =     0.00000000    0.00000000    0.00000000
     atom    2 type  1   force =     0.00000000    0.00000000    0.00000000
     atom    3 type  1   force =     0.00000000    0.00000000    0.00000000
     atom    4 type  1   force =     0.00000000    0.00000000    0.00000000

     Total force =     0.000000     Total SCF correction =     0.000000


     Computing stress (Cartesian axis) and pressure

          total   stress  (Ry/bohr**3)                   (kbar)     P=        0.14
   0.00000094   0.00000000   0.00000000            0.14        0.00        0.00
   0.00000000   0.00000094   0.00000000            0.00        0.14        0.00
   0.00000000   0.00000000   0.00000094            0.00        0.00        0.14


     Writing output data file /scratch/XLQjoGFWQXWuuADt.save/

     init_run     :      1.42s CPU      1.48s WALL (       2 calls)
     electrons    :     45.98s CPU     47.32s WALL (       5 calls)
     update_pot   :      0.68s CPU      0.70s WALL (       3 calls)
     forces       :      0.80s CPU      0.82s WALL (       5 calls)
     stress       :      2.20s CPU      2.22s WALL (       5 calls)

     Called by init_run:
     wfcinit      :      0.85s CPU      0.88s WALL (       2 calls)
     potinit      :      0.19s CPU      0.20s WALL (       2 calls)
     hinit0       :      0.35s CPU      0.36s WALL (       2 calls)

     Called by electrons:
     c_bands      :     40.06s CPU     41.05s WALL (      35 calls)
     sum_band     :      5.09s CPU      5.22s WALL (      35 calls)
     v_of_rho     :      0.27s CPU      0.28s WALL (      38 calls)
     newd         :      0.03s CPU      0.03s WALL (      38 calls)
     PAW_pot      :      0.59s CPU      0.81s WALL (      41 calls)
     mix_rho      :      0.05s CPU      0.06s WALL (      35 calls)

     Called by c_bands:
     init_us_2    :      0.70s CPU      0.72s WALL (    5440 calls)
     cegterg      :     31.14s CPU     32.00s WALL (    2240 calls)

     Called by *egterg:
     cdiaghg      :      3.95s CPU      4.09s WALL (    8168 calls)
     h_psi        :     23.71s CPU     24.32s WALL (    8616 calls)
     s_psi        :      0.41s CPU      0.42s WALL (    8616 calls)
     g_psi        :      0.11s CPU      0.11s WALL (    6248 calls)

     Called by h_psi:
     h_psi:calbec :      0.91s CPU      0.93s WALL (    8616 calls)
     vloc_psi     :     22.19s CPU     22.76s WALL (    8616 calls)
     add_vuspsi   :      0.50s CPU      0.51s WALL (    8616 calls)

     General routines
     calbec       :      1.48s CPU      1.52s WALL (   12648 calls)
     fft          :      0.18s CPU      0.19s WALL (     548 calls)
     ffts         :      0.01s CPU      0.01s WALL (      35 calls)
     fftw         :     24.81s CPU     25.45s WALL (  156246 calls)

     Parallel routines
     fft_scatt_xy :      1.91s CPU      1.96s WALL (  156829 calls)
     fft_scatt_yz :      7.21s CPU      7.39s WALL (  156829 calls)

     PWSCF        :     53.82s CPU     55.54s WALL


   This run was terminated on:  15:24:24  15May2022            

=------------------------------------------------------------------------------=
   JOB DONE.
=------------------------------------------------------------------------------=
