
     Program PWSCF v.6.3 starts on 15Jun2020 at  5:41:59 

     This program is part of the open-source Quantum ESPRESSO suite
     for quantum simulation of materials; please cite
         "P. Giannozzi et al., J. Phys.:Condens. Matter 21 395502 (2009);
         "P. Giannozzi et al., J. Phys.:Condens. Matter 29 465901 (2017);
          URL http://www.quantum-espresso.org", 
     in publications or presentations arising from this work. More details at
     http://www.quantum-espresso.org/quote

     Parallel version (MPI & OpenMP), running on      20 processor cores
     Number of MPI processes:                20
     Threads/MPI process:                     1

     MPI processes distributed on     1 nodes
     R & G space division:  proc/nbgrp/npool/nimage =      20
     Reading input from wd/eos/eos_007.in
Warning: card &IONS ignored
Warning: card ION_DYNAMICS = 'BFGS', ignored
Warning: card / ignored
Warning: card &CELL ignored
Warning: card CELL_DYNAMICS = 'BFGS', ignored
Warning: card CELL_FACTOR = 2.0, ignored
Warning: card PRESS = 0.0, ignored
Warning: card / ignored

     Current dimensions of program PWSCF are:
     Max number of different atomic species (ntypx) = 10
     Max number of k-points (npk) =  40000
     Max angular momentum in pseudopotentials (lmaxx) =  3
     Message from routine read_upf::
     Pseudo file /rds/homes/b/bxp912/pp/Cr.pbe-spn-kjpaw_psl.1.0.0.UPF has been successfully fixed on the fly.
To avoid this message in the future you can permanently fix 
 your pseudo files following instructions given in: 
https://gitlab.com/QEF/q-e/blob/master/upftools/how_to_fix_upf.md
               file Cr.pbe-spn-kjpaw_psl.1.0.0.UPF: wavefunction(s)  3S 3P 3D renormalized
     Message from routine read_upf::
     Pseudo file /rds/homes/b/bxp912/pp/Cr.pbe-spn-kjpaw_psl.1.0.0.UPF has been successfully fixed on the fly.
To avoid this message in the future you can permanently fix 
 your pseudo files following instructions given in: 
https://gitlab.com/QEF/q-e/blob/master/upftools/how_to_fix_upf.md
               file Cr.pbe-spn-kjpaw_psl.1.0.0.UPF: wavefunction(s)  3S 3P 3D renormalized

     Subspace diagonalization in iterative solution of the eigenvalue problem:
     a serial algorithm will be used

     Found symmetry operation: I + (  0.0000  0.0000  0.5000)
     This is a supercell, fractional translations are disabled
 
     Parallelization info
     --------------------
     sticks:   dense  smooth     PW     G-vecs:    dense   smooth      PW
     Min         196     129     36                 9258     4975     738
     Max         198     130     37                 9260     4980     741
     Sum        3937    2593    733               185183    99561   14795
 


     bravais-lattice index     =            0
     lattice parameter (alat)  =      10.7442  a.u.
     unit-cell volume          =    1229.6863 (a.u.)^3
     number of atoms/cell      =           16
     number of atomic types    =            2
     number of electrons       =       224.00
     number of Kohn-Sham states=          134
     kinetic-energy cutoff     =      71.0000  Ry
     charge density cutoff     =     430.0000  Ry
     convergence threshold     =      1.0E-06
     mixing beta               =       0.1000
     number of iterations used =           10  plain     mixing
     Exchange-correlation      = SLA PW PBX PBC ( 1  4  3  4 0 0)

     celldm(1)=  10.744199  celldm(2)=   0.000000  celldm(3)=   0.000000
     celldm(4)=   0.000000  celldm(5)=   0.000000  celldm(6)=   0.000000

     crystal axes: (cart. coord. in units of alat)
               a(1) = (   0.997143   0.000000   0.000000 )  
               a(2) = (   0.000000   0.997143   0.000000 )  
               a(3) = (   0.000000   0.000000   0.997143 )  

     reciprocal axes: (cart. coord. in units 2 pi/alat)
               b(1) = (  1.002865  0.000000  0.000000 )  
               b(2) = (  0.000000  1.002865  0.000000 )  
               b(3) = (  0.000000  0.000000  1.002865 )  


     PseudoPot. # 1 for Cr read from file:
     /rds/homes/b/bxp912/pp/Cr.pbe-spn-kjpaw_psl.1.0.0.UPF
     MD5 check sum: cb1c17117da000fe5e03c4f1a6841d9c
     Pseudo is Projector augmented-wave + core cor, Zval = 14.0
     Generated using "atomic" code by A. Dal Corso v.5.1
     Shape of augmentation charge: PSQ
     Using radial grid of 1183 points,  6 beta functions with: 
                l(1) =   0
                l(2) =   0
                l(3) =   1
                l(4) =   1
                l(5) =   2
                l(6) =   2
     Q(r) pseudized with 0 coefficients 


     PseudoPot. # 2 for Cr read from file:
     /rds/homes/b/bxp912/pp/Cr.pbe-spn-kjpaw_psl.1.0.0.UPF
     MD5 check sum: cb1c17117da000fe5e03c4f1a6841d9c
     Pseudo is Projector augmented-wave + core cor, Zval = 14.0
     Generated using "atomic" code by A. Dal Corso v.5.1
     Shape of augmentation charge: PSQ
     Using radial grid of 1183 points,  6 beta functions with: 
                l(1) =   0
                l(2) =   0
                l(3) =   1
                l(4) =   1
                l(5) =   2
                l(6) =   2
     Q(r) pseudized with 0 coefficients 


     atomic species   valence    mass     pseudopotential
        Cr1           14.00    55.84500     Cr( 1.00)
        Cr2           14.00    55.84500     Cr( 1.00)

     Starting magnetic structure 
     atomic species   magnetization
        Cr1          0.100
        Cr2          0.100

     48 Sym. Ops., with inversion, found



   Cartesian axes

     site n.     atom                  positions (alat units)
         1           Cr1 tau(   1) = (   0.0000000   0.0000000   0.0000000  )
         2           Cr2 tau(   2) = (   0.2492861   0.2492861   0.2492857  )
         3           Cr1 tau(   3) = (   0.0000000   0.0000000   0.4985704  )
         4           Cr2 tau(   4) = (   0.2492861   0.2492861   0.7478562  )
         5           Cr1 tau(   5) = (   0.0000000   0.4985713   0.0000000  )
         6           Cr2 tau(   6) = (   0.2492861   0.7478565   0.2492857  )
         7           Cr1 tau(   7) = (   0.0000000   0.4985713   0.4985704  )
         8           Cr2 tau(   8) = (   0.2492861   0.7478565   0.7478562  )
         9           Cr1 tau(   9) = (   0.4985713   0.0000000   0.0000000  )
        10           Cr2 tau(  10) = (   0.7478565   0.2492861   0.2492857  )
        11           Cr1 tau(  11) = (   0.4985713   0.0000000   0.4985704  )
        12           Cr2 tau(  12) = (   0.7478565   0.2492861   0.7478562  )
        13           Cr1 tau(  13) = (   0.4985713   0.4985713   0.0000000  )
        14           Cr2 tau(  14) = (   0.7478565   0.7478565   0.2492857  )
        15           Cr1 tau(  15) = (   0.4985713   0.4985713   0.4985704  )
        16           Cr2 tau(  16) = (   0.7478565   0.7478565   0.7478562  )

     number of k points=    35  Marzari-Vanderbilt smearing, width (Ry)=  0.0400
                       cart. coord. in units 2pi/alat
        k(    1) = (   0.0557147   0.0557147   0.0557147), wk =   0.0109739
        k(    2) = (   0.0557147   0.0557147   0.1671442), wk =   0.0329218
        k(    3) = (   0.0557147   0.0557147   0.2785737), wk =   0.0329218
        k(    4) = (   0.0557147   0.0557147   0.3900032), wk =   0.0329218
        k(    5) = (   0.0557147   0.0557147  -0.5014327), wk =   0.0164609
        k(    6) = (   0.0557147   0.1671442   0.1671442), wk =   0.0329218
        k(    7) = (   0.0557147   0.1671442   0.2785737), wk =   0.0658436
        k(    8) = (   0.0557147   0.1671442   0.3900032), wk =   0.0658436
        k(    9) = (   0.0557147   0.1671442  -0.5014327), wk =   0.0329218
        k(   10) = (   0.0557147   0.2785737   0.2785737), wk =   0.0329218
        k(   11) = (   0.0557147   0.2785737   0.3900032), wk =   0.0658436
        k(   12) = (   0.0557147   0.2785737  -0.5014327), wk =   0.0329218
        k(   13) = (   0.0557147   0.3900032   0.3900032), wk =   0.0329218
        k(   14) = (   0.0557147   0.3900032  -0.5014327), wk =   0.0329218
        k(   15) = (   0.0557147  -0.5014327  -0.5014327), wk =   0.0082305
        k(   16) = (   0.1671442   0.1671442   0.1671442), wk =   0.0109739
        k(   17) = (   0.1671442   0.1671442   0.2785737), wk =   0.0329218
        k(   18) = (   0.1671442   0.1671442   0.3900032), wk =   0.0329218
        k(   19) = (   0.1671442   0.1671442  -0.5014327), wk =   0.0164609
        k(   20) = (   0.1671442   0.2785737   0.2785737), wk =   0.0329218
        k(   21) = (   0.1671442   0.2785737   0.3900032), wk =   0.0658436
        k(   22) = (   0.1671442   0.2785737  -0.5014327), wk =   0.0329218
        k(   23) = (   0.1671442   0.3900032   0.3900032), wk =   0.0329218
        k(   24) = (   0.1671442   0.3900032  -0.5014327), wk =   0.0329218
        k(   25) = (   0.1671442  -0.5014327  -0.5014327), wk =   0.0082305
        k(   26) = (   0.2785737   0.2785737   0.2785737), wk =   0.0109739
        k(   27) = (   0.2785737   0.2785737   0.3900032), wk =   0.0329218
        k(   28) = (   0.2785737   0.2785737  -0.5014327), wk =   0.0164609
        k(   29) = (   0.2785737   0.3900032   0.3900032), wk =   0.0329218
        k(   30) = (   0.2785737   0.3900032  -0.5014327), wk =   0.0329218
        k(   31) = (   0.2785737  -0.5014327  -0.5014327), wk =   0.0082305
        k(   32) = (   0.3900032   0.3900032   0.3900032), wk =   0.0109739
        k(   33) = (   0.3900032   0.3900032  -0.5014327), wk =   0.0164609
        k(   34) = (   0.3900032  -0.5014327  -0.5014327), wk =   0.0082305
        k(   35) = (  -0.5014327  -0.5014327  -0.5014327), wk =   0.0013717

     Dense  grid:   185183 G-vectors     FFT dimensions: (  72,  72,  72)

     Smooth grid:    99561 G-vectors     FFT dimensions: (  60,  60,  60)

     Estimated max dynamical RAM per process >     141.88 MB

     Estimated total dynamical RAM >       2.77 GB
     Generating pointlists ...
     new r_m :   0.1781 (alat units)  1.9136 (a.u.) for type    1
     new r_m :   0.1781 (alat units)  1.9136 (a.u.) for type    2

     Check: negative/imaginary core charge=   -0.000009    0.000000

     Initial potential from superposition of free atoms

     starting charge  223.98764, renormalised to  224.00000
     Starting wfcs are  160 randomized atomic wfcs
     Checking if some PAW data can be deallocated... 

     total cpu time spent up to now is       11.5 secs

     Self-consistent Calculation

     iteration #  1     ecut=    71.00 Ry     beta= 0.10
     Davidson diagonalization with overlap
     ethr =  1.00E-02,  avg # of iterations =  3.1

     Threshold (ethr) on eigenvalues was too large:
     Diagonalizing with lowered threshold

     Davidson diagonalization with overlap
     ethr =  7.90E-04,  avg # of iterations =  3.5

     total cpu time spent up to now is       70.5 secs

     total energy              =   -3971.39507533 Ry
     Harris-Foulkes estimate   =   -3971.57360357 Ry
     estimated scf accuracy    <       1.94447636 Ry

     total magnetization       =     4.60 Bohr mag/cell
     absolute magnetization    =     4.82 Bohr mag/cell

     iteration #  2     ecut=    71.00 Ry     beta= 0.10
     Davidson diagonalization with overlap
     ethr =  8.68E-04,  avg # of iterations =  1.0

     total cpu time spent up to now is       90.7 secs

     total energy              =   -3971.09212467 Ry
     Harris-Foulkes estimate   =   -3971.41790079 Ry
     estimated scf accuracy    <       1.25694573 Ry

     total magnetization       =     4.48 Bohr mag/cell
     absolute magnetization    =     4.66 Bohr mag/cell

     iteration #  3     ecut=    71.00 Ry     beta= 0.10
     Davidson diagonalization with overlap
     ethr =  5.61E-04,  avg # of iterations =  3.1

     total cpu time spent up to now is      123.3 secs

     total energy              =   -3971.38313985 Ry
     Harris-Foulkes estimate   =   -3971.43640204 Ry
     estimated scf accuracy    <       0.29553126 Ry

     total magnetization       =     3.69 Bohr mag/cell
     absolute magnetization    =     3.82 Bohr mag/cell

     iteration #  4     ecut=    71.00 Ry     beta= 0.10
     Davidson diagonalization with overlap
     ethr =  1.32E-04,  avg # of iterations =  1.7

     total cpu time spent up to now is      145.4 secs

     total energy              =   -3971.41887300 Ry
     Harris-Foulkes estimate   =   -3971.39436556 Ry
     estimated scf accuracy    <       0.19296753 Ry

     total magnetization       =     3.58 Bohr mag/cell
     absolute magnetization    =     3.74 Bohr mag/cell

     iteration #  5     ecut=    71.00 Ry     beta= 0.10
     Davidson diagonalization with overlap
     ethr =  8.61E-05,  avg # of iterations =  2.9

     total cpu time spent up to now is      180.7 secs

     total energy              =   -3971.49539620 Ry
     Harris-Foulkes estimate   =   -3971.45989011 Ry
     estimated scf accuracy    <       0.16566402 Ry

     total magnetization       =     2.56 Bohr mag/cell
     absolute magnetization    =     2.76 Bohr mag/cell

     iteration #  6     ecut=    71.00 Ry     beta= 0.10
     Davidson diagonalization with overlap
     ethr =  7.40E-05,  avg # of iterations =  2.2

     total cpu time spent up to now is      211.6 secs

     total energy              =   -3971.53697670 Ry
     Harris-Foulkes estimate   =   -3971.53711010 Ry
     estimated scf accuracy    <       0.00804149 Ry

     total magnetization       =     0.27 Bohr mag/cell
     absolute magnetization    =     0.43 Bohr mag/cell

     iteration #  7     ecut=    71.00 Ry     beta= 0.10
     Davidson diagonalization with overlap
     c_bands:  1 eigenvalues not converged
     c_bands:  1 eigenvalues not converged
     ethr =  3.59E-06,  avg # of iterations =  6.0

     total cpu time spent up to now is      260.4 secs

     total energy              =   -3971.53556649 Ry
     Harris-Foulkes estimate   =   -3971.53827095 Ry
     estimated scf accuracy    <       0.00679471 Ry

     total magnetization       =     0.17 Bohr mag/cell
     absolute magnetization    =     0.46 Bohr mag/cell

     iteration #  8     ecut=    71.00 Ry     beta= 0.10
     Davidson diagonalization with overlap
     ethr =  3.03E-06,  avg # of iterations =  4.3

     total cpu time spent up to now is      308.1 secs

     total energy              =   -3971.53871082 Ry
     Harris-Foulkes estimate   =   -3971.53981628 Ry
     estimated scf accuracy    <       0.00964968 Ry

     total magnetization       =     0.12 Bohr mag/cell
     absolute magnetization    =     0.33 Bohr mag/cell

     iteration #  9     ecut=    71.00 Ry     beta= 0.10
     Davidson diagonalization with overlap
     ethr =  3.03E-06,  avg # of iterations =  1.9

     total cpu time spent up to now is      332.3 secs

     total energy              =   -3971.53836446 Ry
     Harris-Foulkes estimate   =   -3971.53913377 Ry
     estimated scf accuracy    <       0.00288201 Ry

     total magnetization       =     0.09 Bohr mag/cell
     absolute magnetization    =     0.18 Bohr mag/cell

     iteration # 10     ecut=    71.00 Ry     beta= 0.10
     Davidson diagonalization with overlap
     ethr =  1.29E-06,  avg # of iterations =  2.9

     total cpu time spent up to now is      362.8 secs

     total energy              =   -3971.53877684 Ry
     Harris-Foulkes estimate   =   -3971.53877450 Ry
     estimated scf accuracy    <       0.00011131 Ry

     total magnetization       =     0.04 Bohr mag/cell
     absolute magnetization    =     0.13 Bohr mag/cell

     iteration # 11     ecut=    71.00 Ry     beta= 0.10
     Davidson diagonalization with overlap
     ethr =  4.97E-08,  avg # of iterations =  6.0

     total cpu time spent up to now is      410.4 secs

     total energy              =   -3971.53884769 Ry
     Harris-Foulkes estimate   =   -3971.53880409 Ry
     estimated scf accuracy    <       0.00017213 Ry

     total magnetization       =     0.04 Bohr mag/cell
     absolute magnetization    =     0.13 Bohr mag/cell

     iteration # 12     ecut=    71.00 Ry     beta= 0.10
     Davidson diagonalization with overlap
     ethr =  4.97E-08,  avg # of iterations =  5.9

     total cpu time spent up to now is      461.2 secs

     total energy              =   -3971.53871535 Ry
     Harris-Foulkes estimate   =   -3971.53891779 Ry
     estimated scf accuracy    <       0.00198747 Ry

     total magnetization       =     0.02 Bohr mag/cell
     absolute magnetization    =     0.10 Bohr mag/cell

     iteration # 13     ecut=    71.00 Ry     beta= 0.10
     Davidson diagonalization with overlap
     ethr =  4.97E-08,  avg # of iterations =  4.9

     total cpu time spent up to now is      509.6 secs

     total energy              =   -3971.53890511 Ry
     Harris-Foulkes estimate   =   -3971.53881585 Ry
     estimated scf accuracy    <       0.00027321 Ry

     total magnetization       =     0.08 Bohr mag/cell
     absolute magnetization    =     0.15 Bohr mag/cell

     iteration # 14     ecut=    71.00 Ry     beta= 0.10
     Davidson diagonalization with overlap
     ethr =  4.97E-08,  avg # of iterations =  4.7

     total cpu time spent up to now is      555.5 secs

     total energy              =   -3971.53902550 Ry
     Harris-Foulkes estimate   =   -3971.53902131 Ry
     estimated scf accuracy    <       0.00212777 Ry

     total magnetization       =     0.01 Bohr mag/cell
     absolute magnetization    =     0.04 Bohr mag/cell

     iteration # 15     ecut=    71.00 Ry     beta= 0.10
     Davidson diagonalization with overlap
     ethr =  4.97E-08,  avg # of iterations =  1.2

     total cpu time spent up to now is      576.8 secs

     total energy              =   -3971.53898787 Ry
     Harris-Foulkes estimate   =   -3971.53903141 Ry
     estimated scf accuracy    <       0.00206417 Ry

     total magnetization       =     0.00 Bohr mag/cell
     absolute magnetization    =     0.03 Bohr mag/cell

     iteration # 16     ecut=    71.00 Ry     beta= 0.10
     Davidson diagonalization with overlap
     ethr =  4.97E-08,  avg # of iterations =  2.0

     total cpu time spent up to now is      600.1 secs

     total energy              =   -3971.53896959 Ry
     Harris-Foulkes estimate   =   -3971.53899351 Ry
     estimated scf accuracy    <       0.00130580 Ry

     total magnetization       =     0.00 Bohr mag/cell
     absolute magnetization    =     0.03 Bohr mag/cell

     iteration # 17     ecut=    71.00 Ry     beta= 0.10
     Davidson diagonalization with overlap
     ethr =  4.97E-08,  avg # of iterations =  1.5

     total cpu time spent up to now is      621.7 secs

     total energy              =   -3971.53896315 Ry
     Harris-Foulkes estimate   =   -3971.53897330 Ry
     estimated scf accuracy    <       0.00088387 Ry

     total magnetization       =     0.00 Bohr mag/cell
     absolute magnetization    =     0.03 Bohr mag/cell

     iteration # 18     ecut=    71.00 Ry     beta= 0.10
     Davidson diagonalization with overlap
     ethr =  4.97E-08,  avg # of iterations =  1.0

     total cpu time spent up to now is      641.8 secs

     total energy              =   -3971.53894157 Ry
     Harris-Foulkes estimate   =   -3971.53896518 Ry
     estimated scf accuracy    <       0.00066201 Ry

     total magnetization       =     0.00 Bohr mag/cell
     absolute magnetization    =     0.03 Bohr mag/cell

     iteration # 19     ecut=    71.00 Ry     beta= 0.10
     Davidson diagonalization with overlap
     ethr =  4.97E-08,  avg # of iterations =  4.2

     total cpu time spent up to now is      672.7 secs

     total energy              =   -3971.53894505 Ry
     Harris-Foulkes estimate   =   -3971.53895158 Ry
     estimated scf accuracy    <       0.00015175 Ry

     total magnetization       =     0.00 Bohr mag/cell
     absolute magnetization    =     0.03 Bohr mag/cell

     iteration # 20     ecut=    71.00 Ry     beta= 0.10
     Davidson diagonalization with overlap
     ethr =  4.97E-08,  avg # of iterations =  1.9

     total cpu time spent up to now is      695.3 secs

     total energy              =   -3971.53894716 Ry
     Harris-Foulkes estimate   =   -3971.53894826 Ry
     estimated scf accuracy    <       0.00004084 Ry

     total magnetization       =     0.00 Bohr mag/cell
     absolute magnetization    =     0.03 Bohr mag/cell

     iteration # 21     ecut=    71.00 Ry     beta= 0.10
     Davidson diagonalization with overlap
     ethr =  1.82E-08,  avg # of iterations =  4.2

     total cpu time spent up to now is      727.3 secs

     total energy              =   -3971.53895158 Ry
     Harris-Foulkes estimate   =   -3971.53895097 Ry
     estimated scf accuracy    <       0.00000159 Ry

     total magnetization       =     0.00 Bohr mag/cell
     absolute magnetization    =     0.03 Bohr mag/cell

     iteration # 22     ecut=    71.00 Ry     beta= 0.10
     Davidson diagonalization with overlap
     ethr =  7.11E-10,  avg # of iterations =  5.4

     total cpu time spent up to now is      770.8 secs

     total energy              =   -3971.53895271 Ry
     Harris-Foulkes estimate   =   -3971.53895219 Ry
     estimated scf accuracy    <       0.00000177 Ry

     total magnetization       =     0.00 Bohr mag/cell
     absolute magnetization    =     0.03 Bohr mag/cell

     iteration # 23     ecut=    71.00 Ry     beta= 0.10
     Davidson diagonalization with overlap
     ethr =  7.11E-10,  avg # of iterations =  1.0

     total cpu time spent up to now is      790.9 secs

     total energy              =   -3971.53895313 Ry
     Harris-Foulkes estimate   =   -3971.53895273 Ry
     estimated scf accuracy    <       0.00000203 Ry

     total magnetization       =     0.00 Bohr mag/cell
     absolute magnetization    =     0.03 Bohr mag/cell

     iteration # 24     ecut=    71.00 Ry     beta= 0.10
     Davidson diagonalization with overlap
     ethr =  7.11E-10,  avg # of iterations =  1.0

     total cpu time spent up to now is      811.0 secs

     total energy              =   -3971.53895347 Ry
     Harris-Foulkes estimate   =   -3971.53895314 Ry
     estimated scf accuracy    <       0.00000181 Ry

     total magnetization       =     0.00 Bohr mag/cell
     absolute magnetization    =     0.03 Bohr mag/cell

     iteration # 25     ecut=    71.00 Ry     beta= 0.10
     Davidson diagonalization with overlap
     ethr =  7.11E-10,  avg # of iterations =  1.1

     total cpu time spent up to now is      831.5 secs

     total energy              =   -3971.53895361 Ry
     Harris-Foulkes estimate   =   -3971.53895357 Ry
     estimated scf accuracy    <       0.00000387 Ry

     total magnetization       =     0.00 Bohr mag/cell
     absolute magnetization    =     0.03 Bohr mag/cell

     iteration # 26     ecut=    71.00 Ry     beta= 0.10
     Davidson diagonalization with overlap
     ethr =  7.11E-10,  avg # of iterations =  1.1

     total cpu time spent up to now is      851.8 secs

     total energy              =   -3971.53895391 Ry
     Harris-Foulkes estimate   =   -3971.53895372 Ry
     estimated scf accuracy    <       0.00000121 Ry

     total magnetization       =     0.00 Bohr mag/cell
     absolute magnetization    =     0.03 Bohr mag/cell

     iteration # 27     ecut=    71.00 Ry     beta= 0.10
     Davidson diagonalization with overlap
     ethr =  5.38E-10,  avg # of iterations =  1.0
 
     Magnetic moment per site:
     atom:    1    charge:   12.2115    magn:   -0.0037    constr:    0.0000
     atom:    2    charge:   12.2109    magn:    0.0018    constr:    0.0000
     atom:    3    charge:   12.2104    magn:   -0.0018    constr:    0.0000
     atom:    4    charge:   12.2109    magn:    0.0018    constr:    0.0000
     atom:    5    charge:   12.2104    magn:   -0.0018    constr:    0.0000
     atom:    6    charge:   12.2109    magn:    0.0018    constr:    0.0000
     atom:    7    charge:   12.2106    magn:   -0.0017    constr:    0.0000
     atom:    8    charge:   12.2109    magn:    0.0018    constr:    0.0000
     atom:    9    charge:   12.2104    magn:   -0.0018    constr:    0.0000
     atom:   10    charge:   12.2109    magn:    0.0018    constr:    0.0000
     atom:   11    charge:   12.2106    magn:   -0.0017    constr:    0.0000
     atom:   12    charge:   12.2109    magn:    0.0018    constr:    0.0000
     atom:   13    charge:   12.2106    magn:   -0.0017    constr:    0.0000
     atom:   14    charge:   12.2109    magn:    0.0018    constr:    0.0000
     atom:   15    charge:   12.2107    magn:   -0.0005    constr:    0.0000
     atom:   16    charge:   12.2109    magn:    0.0018    constr:    0.0000

     total cpu time spent up to now is      871.8 secs

     End of self-consistent calculation

 ------ SPIN UP ------------


          k = 0.0557 0.0557 0.0557 ( 12407 PWs)   bands (ev):

   -52.0522 -51.8684 -51.8683 -51.8683 -51.8363 -51.8361 -51.8360 -51.8359
   -51.8357 -51.8357 -51.8324 -51.8324 -51.8324 -51.8180 -51.8160 -51.6836
   -23.7541 -23.7540 -23.7540 -23.7492 -23.7492 -23.7492 -23.4547 -23.4547
   -23.4439 -23.3524 -23.3474 -23.3474 -23.3473 -23.3115 -23.3115 -23.2909
   -23.2909 -23.2907 -23.2279 -23.2279 -23.1866 -23.1425 -23.1424 -23.1424
   -23.1248 -23.1248 -23.1247 -23.0995 -23.0995 -23.0992 -23.0940 -23.0940
   -23.0938 -23.0845 -23.0845 -23.0845 -23.0679 -23.0679 -23.0679 -22.8054
   -22.8054 -22.8054 -22.8041 -22.8004 -22.8004 -22.8004 -22.7926 -22.7926
    11.9588  15.3524  15.3524  15.3524  15.3736  15.3736  15.3737  15.4722
    15.4722  15.6328  15.6328  15.6329  16.0622  16.0622  16.0622  17.3114
    17.3617  17.3617  17.3617  17.3778  17.3778  17.3779  17.4184  17.4184
    17.5923  17.5923  17.6540  17.7550  17.7550  17.7551  18.2203  18.2203
    18.2204  18.9290  18.9290  18.9854  19.2812  19.2812  19.2812  19.4004
    19.4005  19.4005  19.5036  19.5036  19.5037  19.6152  19.6152  19.6152
    20.5176  20.5176  20.5178  20.5905  20.5905  20.5905  20.8154  20.8154
    20.8155  20.8310  20.8310  20.8310  21.0245  21.0245  21.0246  21.0394
    21.0394  21.0834  21.0834  21.0834  21.3994  21.3994

          k = 0.0557 0.0557 0.1671 ( 12434 PWs)   bands (ev):

   -52.0457 -51.9011 -51.8668 -51.8668 -51.8396 -51.8396 -51.8354 -51.8353
   -51.8348 -51.8314 -51.8309 -51.8309 -51.8191 -51.8169 -51.8051 -51.6882
   -23.7404 -23.7404 -23.7390 -23.7347 -23.7264 -23.7263 -23.4609 -23.4439
   -23.4274 -23.4134 -23.3968 -23.3967 -23.3941 -23.3925 -23.3425 -23.3424
   -23.2837 -23.2376 -23.2248 -23.2003 -23.1817 -23.1460 -23.1423 -23.1422
   -23.1232 -23.1106 -23.1057 -23.1055 -23.1041 -23.0902 -23.0900 -23.0854
   -23.0853 -23.0810 -23.0810 -23.0280 -23.0261 -23.0261 -23.0127 -22.8299
   -22.8204 -22.8204 -22.8187 -22.8143 -22.8053 -22.8053 -22.8020 -22.7971
    12.0963  15.0743  15.3835  15.3836  15.4485  15.4486  15.4646  15.4846
    15.5433  15.5528  15.6736  15.6736  16.0933  16.0934  16.3127  17.1805
    17.3015  17.3034  17.3331  17.3419  17.3566  17.4201  17.4201  17.4632
    17.4684  17.4684  17.7163  17.7164  17.8211  17.8293  18.1217  18.1217
    18.6567  18.8965  18.9212  19.0284  19.0284  19.0584  19.1095  19.2370
    19.2371  19.2787  19.6023  19.6023  19.7416  19.7416  19.7780  19.8971
    20.0224  20.0224  20.2289  20.3053  20.3053  20.3177  20.4442  20.7935
    20.7936  20.9400  20.9400  20.9430  21.0386  21.0386  21.0492  21.0779
    21.0783  21.0842  21.0842  21.1135  21.4033  21.4326

          k = 0.0557 0.0557 0.2786 ( 12451 PWs)   bands (ev):

   -52.0329 -51.9332 -51.8638 -51.8638 -51.8443 -51.8442 -51.8344 -51.8343
   -51.8328 -51.8304 -51.8303 -51.8295 -51.8211 -51.8188 -51.7765 -51.6974
   -23.7096 -23.7094 -23.7094 -23.7064 -23.6866 -23.6865 -23.4827 -23.4735
   -23.4651 -23.4650 -23.4647 -23.4254 -23.4231 -23.4146 -23.4145 -23.4041
   -23.2563 -23.2561 -23.2365 -23.2270 -23.1511 -23.1388 -23.1387 -23.1315
   -23.1235 -23.1127 -23.1125 -23.0876 -23.0875 -23.0853 -23.0852 -23.0685
   -23.0549 -23.0250 -23.0250 -22.9744 -22.9732 -22.9732 -22.9606 -22.8723
   -22.8448 -22.8448 -22.8444 -22.8421 -22.8206 -22.8203 -22.8203 -22.8127
    12.3663  14.4532  15.4590  15.4591  15.5719  15.5720  15.6802  15.6844
    15.6974  15.7033  15.7206  15.7206  16.1061  16.1061  16.3768  16.8777
    17.0034  17.0699  17.2408  17.3076  17.3097  17.3198  17.5506  17.5507
    17.6304  17.6305  17.7361  17.7362  18.0676  18.0677  18.1095  18.1306
    18.6871  18.6871  18.8733  18.8746  18.8747  18.9036  18.9094  18.9872
    19.1659  19.3903  19.4081  19.4082  19.6365  19.6365  19.8738  19.9080
    19.9081  19.9176  19.9529  19.9529  19.9573  20.1057  20.2373  20.7546
    20.8078  20.8078  20.9332  20.9332  21.0959  21.1150  21.1522  21.1602
    21.1602  21.3786  21.3805  21.4028  21.4105  21.4398

          k = 0.0557 0.0557 0.3900 ( 12443 PWs)   bands (ev):

   -52.0144 -51.9636 -51.8597 -51.8596 -51.8494 -51.8494 -51.8330 -51.8329
   -51.8307 -51.8306 -51.8301 -51.8270 -51.8239 -51.8213 -51.7510 -51.7111
   -23.6670 -23.6651 -23.6631 -23.6631 -23.6318 -23.6318 -23.5508 -23.5470
   -23.5365 -23.5365 -23.4913 -23.4913 -23.4649 -23.4473 -23.3928 -23.3725
   -23.3078 -23.2877 -23.2255 -23.2052 -23.1598 -23.1490 -23.1335 -23.1334
   -23.1200 -23.1198 -23.0859 -23.0858 -23.0851 -23.0850 -23.0743 -22.9975
   -22.9896 -22.9700 -22.9700 -22.9301 -22.9257 -22.9229 -22.9229 -22.9132
   -22.8826 -22.8824 -22.8784 -22.8783 -22.8478 -22.8450 -22.8450 -22.8381
    12.7578  13.8307  15.5618  15.5618  15.7240  15.7240  15.7309  15.7309
    15.8930  15.9016  15.9814  15.9936  16.0415  16.0416  16.2910  16.4959
    16.7034  16.7194  17.2217  17.2455  17.2679  17.2784  17.7478  17.7479
    17.8571  17.8571  17.9145  17.9145  18.1467  18.1468  18.3769  18.3770
    18.4742  18.4950  18.5132  18.5132  18.8211  18.8212  18.8627  18.9007
    18.9104  18.9170  19.0197  19.0198  19.3108  19.3855  19.3907  19.7100
    19.7554  20.1919  20.1919  20.2285  20.2285  20.4824  20.4830  20.6257
    20.6337  20.6337  20.7600  20.7601  21.1597  21.1723  21.2573  21.3097
    21.3136  21.3173  21.4200  21.4414  21.4482  21.4579

          k = 0.0557 0.0557-0.5014 ( 12408 PWs)   bands (ev):

   -51.9912 -51.9908 -51.8550 -51.8549 -51.8545 -51.8545 -51.8319 -51.8318
   -51.8314 -51.8314 -51.8273 -51.8267 -51.8243 -51.8239 -51.7292 -51.7288
   -23.6127 -23.6123 -23.6123 -23.6118 -23.6042 -23.6042 -23.6041 -23.6041
   -23.5653 -23.5653 -23.5652 -23.5652 -23.4598 -23.4596 -23.3541 -23.3537
   -23.3336 -23.3332 -23.1924 -23.1921 -23.1776 -23.1772 -23.1273 -23.1272
   -23.1269 -23.1267 -23.0853 -23.0852 -23.0849 -23.0848 -22.9992 -22.9989
   -22.9350 -22.9346 -22.9315 -22.9311 -22.9205 -22.9204 -22.9204 -22.9203
   -22.8833 -22.8829 -22.8795 -22.8795 -22.8794 -22.8794 -22.8720 -22.8717
    13.2539  13.2544  15.6628  15.6628  15.6630  15.6631  15.9009  15.9009
    15.9011  15.9012  16.1131  16.1134  16.1651  16.1655  16.3402  16.3407
    16.3434  16.3438  17.2347  17.2351  17.2469  17.2472  17.9985  17.9985
    17.9986  17.9987  18.1090  18.1091  18.1092  18.1093  18.3501  18.3501
    18.3503  18.3504  18.5324  18.5324  18.5327  18.5327  18.8718  18.8721
    18.9023  18.9027  18.9041  18.9043  18.9170  18.9172  19.4928  19.4932
    20.1420  20.1423  20.4249  20.4249  20.4249  20.4250  20.5208  20.5208
    20.5208  20.5209  20.8942  20.8945  21.0462  21.0465  21.2335  21.2339
    21.2411  21.2415  21.3878  21.3882  21.4309  21.4335

          k = 0.0557 0.1671 0.1671 ( 12435 PWs)   bands (ev):

   -52.0393 -51.8986 -51.8986 -51.8652 -51.8489 -51.8384 -51.8384 -51.8348
   -51.8300 -51.8300 -51.8238 -51.8206 -51.8175 -51.8055 -51.8055 -51.6927
   -23.7362 -23.7261 -23.7261 -23.7134 -23.7134 -23.6946 -23.4728 -23.4520
   -23.4390 -23.4388 -23.4378 -23.4280 -23.4186 -23.4023 -23.3768 -23.3012
   -23.2776 -23.2774 -23.2192 -23.1990 -23.1989 -23.1528 -23.1366 -23.1364
   -23.1218 -23.1185 -23.1184 -23.1129 -23.1003 -23.1001 -23.0931 -23.0763
   -23.0757 -23.0441 -23.0300 -23.0299 -22.9940 -22.9732 -22.9731 -22.8644
   -22.8448 -22.8307 -22.8307 -22.8182 -22.8182 -22.8099 -22.8000 -22.7930
    12.2318  15.1340  15.1340  15.3598  15.4967  15.4967  15.5582  15.5582
    15.5585  15.6151  15.6310  15.7247  16.1389  16.3472  16.3472  17.0603
    17.1937  17.3024  17.3024  17.3969  17.3970  17.4024  17.4401  17.4401
    17.4457  17.5479  17.5902  17.6556  17.8124  17.8447  18.0092  18.4680
    18.4681  18.8215  18.8711  18.8712  18.9004  18.9265  19.0907  19.1800
    19.4948  19.4949  19.5618  19.5619  19.5667  19.6966  19.8209  19.8511
    19.8511  19.9499  19.9500  20.0433  20.0433  20.1589  20.5053  20.5054
    20.7999  20.9272  20.9681  20.9681  21.0075  21.0425  21.0425  21.0497
    21.0552  21.2567  21.3641  21.3708  21.3708  21.4122

          k = 0.0557 0.1671 0.2786 ( 12440 PWs)   bands (ev):

   -52.0268 -51.9298 -51.8937 -51.8623 -51.8588 -51.8430 -51.8362 -51.8337
   -51.8295 -51.8283 -51.8231 -51.8190 -51.8179 -51.8063 -51.7778 -51.7015
   -23.7147 -23.6979 -23.6969 -23.6881 -23.6761 -23.6464 -23.5022 -23.5014
   -23.4850 -23.4796 -23.4792 -23.4685 -23.4330 -23.4179 -23.3710 -23.3521
   -23.2808 -23.2537 -23.2111 -23.2049 -23.1923 -23.1908 -23.1562 -23.1423
   -23.1383 -23.1275 -23.1191 -23.0982 -23.0974 -23.0789 -23.0639 -23.0504
   -23.0333 -23.0219 -22.9984 -22.9778 -22.9528 -22.9250 -22.9243 -22.9147
   -22.8777 -22.8511 -22.8504 -22.8438 -22.8301 -22.8278 -22.8047 -22.7992
    12.4973  14.5339  15.2297  15.3654  15.5724  15.6803  15.7102  15.7140
    15.7493  15.7677  15.7841  15.7911  16.1772  16.3497  16.4216  16.9072
    16.9276  17.0345  17.3201  17.3566  17.3832  17.3918  17.4322  17.5173
    17.5433  17.5860  17.6329  17.7821  17.9176  17.9965  18.0594  18.3338
    18.5621  18.6784  18.6870  18.7510  18.7721  18.8235  18.8756  19.0442
    19.1169  19.2967  19.3349  19.4631  19.5392  19.6194  19.6217  19.6799
    19.8017  19.9164  19.9443  20.0067  20.0386  20.2270  20.2271  20.6376
    20.7837  20.8395  20.8736  20.9374  20.9779  21.0235  21.0746  21.1056
    21.2944  21.3559  21.3592  21.3892  21.4389  21.4444

          k = 0.0557 0.1671 0.3900 ( 12434 PWs)   bands (ev):

   -52.0088 -51.9593 -51.8868 -51.8688 -51.8582 -51.8481 -51.8333 -51.8323
   -51.8299 -51.8264 -51.8259 -51.8210 -51.8134 -51.8078 -51.7532 -51.7147
   -23.6775 -23.6572 -23.6537 -23.6517 -23.6254 -23.5843 -23.5671 -23.5548
   -23.5446 -23.5397 -23.4985 -23.4927 -23.4863 -23.4326 -23.3881 -23.3335
   -23.3047 -23.2479 -23.2428 -23.1944 -23.1819 -23.1745 -23.1543 -23.1532
   -23.1437 -23.1371 -23.1277 -23.0984 -23.0976 -23.0535 -23.0381 -23.0208
   -22.9869 -22.9785 -22.9688 -22.9531 -22.9303 -22.9187 -22.9127 -22.8816
   -22.8813 -22.8809 -22.8807 -22.8778 -22.8543 -22.8500 -22.8199 -22.8170
    12.8816  13.9298  15.3208  15.3791  15.6737  15.8158  15.8378  15.8928
    15.9414  15.9914  16.0168  16.0562  16.1351  16.2555  16.3430  16.5486
    16.7046  16.7406  17.2649  17.3103  17.3228  17.3391  17.6240  17.6902
    17.7082  17.7476  17.7730  17.9220  18.0343  18.1922  18.3179  18.3789
    18.4234  18.4623  18.5198  18.5419  18.6924  18.7017  18.7303  18.7687
    18.7885  18.8479  18.9100  19.0608  19.1521  19.1576  19.5179  19.9418
    19.9682  20.1579  20.1599  20.2362  20.2419  20.2653  20.4689  20.5484
    20.5699  20.6694  20.7629  20.8181  20.9757  21.1006  21.1335  21.2130
    21.2515  21.2780  21.2870  21.3695  21.4356  21.4382

          k = 0.0557 0.1671-0.5014 ( 12410 PWs)   bands (ev):

   -51.9862 -51.9858 -51.8785 -51.8781 -51.8535 -51.8531 -51.8311 -51.8307
   -51.8300 -51.8296 -51.8236 -51.8233 -51.8102 -51.8098 -51.7322 -51.7318
   -23.6271 -23.6271 -23.6065 -23.6061 -23.6054 -23.6050 -23.5998 -23.5997
   -23.5646 -23.5645 -23.5116 -23.5116 -23.4938 -23.4936 -23.3501 -23.3497
   -23.2906 -23.2904 -23.2111 -23.2108 -23.1704 -23.1701 -23.1692 -23.1688
   -23.1463 -23.1459 -23.0981 -23.0977 -23.0508 -23.0507 -23.0450 -23.0446
   -22.9668 -22.9668 -22.9297 -22.9294 -22.9214 -22.9211 -22.9123 -22.9123
   -22.8889 -22.8885 -22.8778 -22.8778 -22.8453 -22.8453 -22.8446 -22.8444
    13.3673  13.3678  15.3719  15.3722  15.7687  15.7690  16.0046  16.0048
    16.0861  16.0863  16.1621  16.1625  16.2413  16.2417  16.3745  16.3749
    16.3880  16.3884  17.2728  17.2731  17.3043  17.3046  17.8714  17.8715
    17.8933  17.8935  17.9320  17.9321  18.0052  18.0055  18.3783  18.3784
    18.4334  18.4336  18.5120  18.5122  18.6380  18.6382  18.6804  18.6806
    18.7130  18.7131  18.7520  18.7521  18.8209  18.8212  19.7286  19.7288
    20.2563  20.2565  20.3062  20.3062  20.4645  20.4646  20.5253  20.5254
    20.5555  20.5557  20.5745  20.5746  20.9606  20.9609  21.1890  21.1894
    21.2078  21.2082  21.3481  21.3485  21.4327  21.4336

          k = 0.0557 0.2786 0.2786 ( 12431 PWs)   bands (ev):

   -52.0150 -51.9232 -51.9231 -51.8737 -51.8594 -51.8407 -51.8406 -51.8325
   -51.8280 -51.8279 -51.8260 -51.8199 -51.8070 -51.7805 -51.7805 -51.7097
   -23.7029 -23.6725 -23.6724 -23.6562 -23.6562 -23.5911 -23.5278 -23.5257
   -23.5256 -23.5083 -23.5074 -23.5062 -23.4677 -23.3994 -23.3310 -23.2821
   -23.2805 -23.2804 -23.2439 -23.2439 -23.2028 -23.1719 -23.1637 -23.1548
   -23.1547 -23.1332 -23.1331 -23.1179 -23.1177 -23.1094 -23.0424 -23.0092
   -22.9846 -22.9845 -22.9824 -22.9746 -22.9638 -22.9254 -22.9179 -22.8819
   -22.8818 -22.8625 -22.8624 -22.8498 -22.8498 -22.8444 -22.7992 -22.7937
    12.7534  14.6789  14.6789  15.2762  15.7893  15.7893  15.8660  15.8713
    15.8859  15.8859  15.8973  15.9455  16.2707  16.4326  16.4326  16.8530
    16.9397  17.0382  17.0382  17.3865  17.4599  17.4599  17.4804  17.5113
    17.5113  17.5297  17.6067  17.7681  17.9395  18.0023  18.0373  18.4373
    18.4374  18.5662  18.5662  18.5781  18.6086  18.6250  18.6830  18.8289
    19.0827  19.0827  19.1578  19.1578  19.3196  19.4104  19.4105  19.5447
    20.0155  20.0156  20.0948  20.1455  20.1910  20.1911  20.4633  20.5846
    20.5847  20.7780  20.9044  20.9044  20.9493  20.9687  20.9687  20.9876
    21.0724  21.2983  21.3021  21.3032  21.4350  21.4448

          k = 0.0557 0.2786 0.3900 ( 12398 PWs)   bands (ev):

   -51.9979 -51.9511 -51.9136 -51.8883 -51.8554 -51.8456 -51.8374 -51.8311
   -51.8297 -51.8284 -51.8259 -51.8215 -51.7978 -51.7847 -51.7575 -51.7219
   -23.6752 -23.6376 -23.6359 -23.6283 -23.6134 -23.5830 -23.5602 -23.5485
   -23.5479 -23.5362 -23.5251 -23.5227 -23.5134 -23.3713 -23.3628 -23.2920
   -23.2863 -23.2608 -23.2290 -23.2026 -23.1900 -23.1892 -23.1880 -23.1865
   -23.1784 -23.1667 -23.1424 -23.1182 -23.1163 -23.0740 -23.0454 -23.0234
   -22.9942 -22.9651 -22.9618 -22.9433 -22.9400 -22.9306 -22.8991 -22.8820
   -22.8793 -22.8791 -22.8691 -22.8606 -22.8457 -22.8455 -22.8040 -22.8002
    13.1225  14.1163  14.8569  15.1701  15.8851  15.9724  16.0271  16.0380
    16.0449  16.0879  16.1637  16.1674  16.2906  16.3544  16.3684  16.7168
    16.7186  16.7428  17.3153  17.3484  17.3954  17.4070  17.4313  17.5488
    17.5941  17.6393  17.7099  17.7368  18.1136  18.1407  18.1674  18.2102
    18.2923  18.4275  18.4298  18.5016  18.5234  18.5238  18.6488  18.6550
    18.7034  18.7747  18.7912  18.7981  18.9351  19.0074  19.7537  19.7775
    20.1797  20.2021  20.3034  20.3169  20.3283  20.3399  20.3430  20.4323
    20.5608  20.6454  20.7447  20.7991  20.8355  20.9592  20.9970  21.0346
    21.1146  21.1425  21.2098  21.2180  21.3346  21.4389

          k = 0.0557 0.2786-0.5014 ( 12420 PWs)   bands (ev):

   -51.9765 -51.9761 -51.9020 -51.9016 -51.8508 -51.8504 -51.8338 -51.8334
   -51.8298 -51.8294 -51.8238 -51.8234 -51.7906 -51.7902 -51.7381 -51.7377
   -23.6343 -23.6342 -23.5954 -23.5951 -23.5950 -23.5947 -23.5926 -23.5924
   -23.5642 -23.5641 -23.5356 -23.5355 -23.4453 -23.4453 -23.3352 -23.3348
   -23.2380 -23.2379 -23.2276 -23.2273 -23.2102 -23.2098 -23.1759 -23.1756
   -23.1682 -23.1679 -23.1228 -23.1228 -23.1186 -23.1183 -23.0174 -23.0174
   -23.0074 -23.0070 -22.9172 -22.9169 -22.9094 -22.9092 -22.9023 -22.9022
   -22.9015 -22.9011 -22.8773 -22.8772 -22.8194 -22.8193 -22.8181 -22.8180
    13.5855  13.5859  15.0295  15.0298  15.9629  15.9631  16.1929  16.1931
    16.2103  16.2107  16.2139  16.2142  16.4285  16.4289  16.4289  16.4293
    16.4668  16.4672  17.3475  17.3477  17.3814  17.3816  17.6610  17.6613
    17.6949  17.6951  17.6996  17.6999  17.9270  17.9271  18.4211  18.4212
    18.4237  18.4239  18.4259  18.4260  18.4566  18.4566  18.4901  18.4902
    18.6271  18.6271  18.6473  18.6474  18.7186  18.7189  20.0300  20.0301
    20.1417  20.1418  20.2194  20.2195  20.4336  20.4338  20.5526  20.5527
    20.5774  20.5776  20.6229  20.6230  20.7519  20.7521  21.1041  21.1044
    21.1231  21.1235  21.2758  21.2761  21.3159  21.3159

          k = 0.0557 0.3900 0.3900 ( 12413 PWs)   bands (ev):

   -51.9822 -51.9392 -51.9391 -51.9070 -51.8515 -51.8421 -51.8421 -51.8338
   -51.8295 -51.8266 -51.8266 -51.8228 -51.7844 -51.7642 -51.7642 -51.7326
   -23.6576 -23.6120 -23.6120 -23.5983 -23.5983 -23.5849 -23.5848 -23.5693
   -23.5630 -23.5628 -23.5537 -23.5365 -23.4497 -23.3456 -23.2853 -23.2852
   -23.2730 -23.2729 -23.2564 -23.2354 -23.2198 -23.2019 -23.2017 -23.1979
   -23.1810 -23.1426 -23.1424 -23.1314 -23.1282 -23.1281 -23.1220 -23.0161
   -22.9965 -22.9545 -22.9544 -22.9314 -22.9192 -22.9103 -22.8911 -22.8876
   -22.8860 -22.8860 -22.8782 -22.8781 -22.8188 -22.8186 -22.7979 -22.7950
    13.4662  14.3670  14.3671  14.9248  16.1295  16.1403  16.1671  16.1671
    16.1777  16.2984  16.2985  16.3444  16.3444  16.4099  16.4211  16.6704
    16.6937  17.0030  17.0030  17.3953  17.4216  17.4367  17.4903  17.4904
    17.5032  17.5032  17.5761  17.7530  17.8302  18.0420  18.1550  18.1863
    18.1864  18.3211  18.3708  18.3989  18.4422  18.4423  18.4697  18.4698
    18.5844  18.5844  18.5883  18.6989  18.7458  19.3383  19.3384  20.0581
    20.1306  20.2239  20.2959  20.2959  20.4663  20.4664  20.4928  20.5036
    20.6572  20.6573  20.6934  20.8062  20.8198  20.8549  20.8550  20.8815
    20.8815  21.1072  21.1102  21.1142  21.2319  21.3483

          k = 0.0557 0.3900-0.5014 ( 12416 PWs)   bands (ev):

   -51.9625 -51.9621 -51.9244 -51.9240 -51.8472 -51.8467 -51.8382 -51.8378
   -51.8281 -51.8277 -51.8248 -51.8244 -51.7733 -51.7729 -51.7469 -51.7465
   -23.6266 -23.6265 -23.5860 -23.5856 -23.5855 -23.5853 -23.5827 -23.5824
   -23.5745 -23.5745 -23.5661 -23.5659 -23.3693 -23.3693 -23.3126 -23.3121
   -23.2487 -23.2483 -23.2345 -23.2344 -23.2057 -23.2056 -23.2035 -23.2035
   -23.1823 -23.1823 -23.1650 -23.1649 -23.1398 -23.1397 -23.0708 -23.0708
   -22.9736 -22.9732 -22.9200 -22.9196 -22.9024 -22.9021 -22.8995 -22.8993
   -22.8954 -22.8953 -22.8807 -22.8806 -22.8028 -22.8028 -22.8015 -22.8014
    13.8909  13.8913  14.6483  14.6487  16.2007  16.2009  16.2581  16.2584
    16.2798  16.2801  16.4145  16.4147  16.4612  16.4615  16.5507  16.5510
    16.6958  16.6962  17.3596  17.3599  17.4170  17.4171  17.4191  17.4192
    17.4735  17.4738  17.5377  17.5380  17.9826  17.9827  18.1902  18.1904
    18.2556  18.2557  18.2746  18.2747  18.2768  18.2769  18.3357  18.3358
    18.6125  18.6126  18.6356  18.6358  18.9435  18.9436  19.7165  19.7165
    20.2168  20.2169  20.3510  20.3511  20.5151  20.5154  20.6138  20.6140
    20.6842  20.6844  20.6906  20.6908  20.6912  20.6914  20.9827  20.9830
    20.9944  20.9947  21.0106  21.0106  21.1932  21.1936

          k = 0.0557-0.5014-0.5014 ( 12420 PWs)   bands (ev):

   -51.9451 -51.9448 -51.9446 -51.9444 -51.8429 -51.8427 -51.8425 -51.8423
   -51.8265 -51.8262 -51.8261 -51.8258 -51.7588 -51.7586 -51.7584 -51.7582
   -23.6059 -23.6059 -23.6058 -23.6058 -23.5824 -23.5822 -23.5821 -23.5820
   -23.5722 -23.5721 -23.5720 -23.5718 -23.2873 -23.2873 -23.2872 -23.2872
   -23.2834 -23.2831 -23.2829 -23.2827 -23.2272 -23.2272 -23.2271 -23.2271
   -23.1562 -23.1562 -23.1561 -23.1561 -23.1263 -23.1262 -23.1261 -23.1261
   -22.9444 -22.9441 -22.9439 -22.9437 -22.8944 -22.8943 -22.8943 -22.8941
   -22.8894 -22.8893 -22.8892 -22.8891 -22.7966 -22.7966 -22.7965 -22.7965
    14.2567  14.2567  14.2571  14.2571  16.2887  16.2888  16.2890  16.2891
    16.3950  16.3950  16.3952  16.3953  16.5602  16.5602  16.5604  16.5604
    17.0156  17.0157  17.0160  17.0161  17.4009  17.4009  17.4011  17.4011
    17.4528  17.4529  17.4530  17.4530  18.0944  18.0944  18.0945  18.0945
    18.1537  18.1538  18.1538  18.1540  18.2448  18.2449  18.2449  18.2451
    18.5986  18.5988  18.5988  18.5989  19.3109  19.3109  19.3110  19.3111
    20.3207  20.3209  20.3210  20.3211  20.6725  20.6725  20.6726  20.6727
    20.7256  20.7256  20.7257  20.7258  20.8363  20.8364  20.8365  20.8366
    20.8413  20.8414  20.8415  20.8417  21.1642  21.1645

          k = 0.1671 0.1671 0.1671 ( 12443 PWs)   bands (ev):

   -52.0331 -51.8962 -51.8961 -51.8961 -51.8475 -51.8474 -51.8474 -51.8237
   -51.8231 -51.8231 -51.8230 -51.8167 -51.8058 -51.8058 -51.8058 -51.6969
   -23.7218 -23.7217 -23.7217 -23.6840 -23.6840 -23.6839 -23.4858 -23.4665
   -23.4665 -23.4663 -23.4621 -23.4621 -23.3824 -23.3824 -23.3706 -23.3145
   -23.3145 -23.3143 -23.2122 -23.2121 -23.2121 -23.1389 -23.1389 -23.1379
   -23.1379 -23.1377 -23.0959 -23.0959 -23.0958 -23.0845 -23.0845 -23.0843
   -23.0352 -23.0351 -23.0351 -23.0327 -22.9466 -22.9466 -22.9465 -22.8990
   -22.8505 -22.8505 -22.8505 -22.8137 -22.8137 -22.8137 -22.8026 -22.8026
    12.3654  15.2009  15.2009  15.2009  15.4765  15.4765  15.4766  15.6654
    15.6654  15.6654  15.6972  15.6972  16.4009  16.4009  16.4009  16.9587
    17.2800  17.2800  17.2800  17.3102  17.3102  17.4226  17.4227  17.4227
    17.5503  17.5503  17.5504  17.7061  17.7477  17.7477  18.2993  18.2993
    18.2994  18.7811  18.7811  18.7812  18.8037  18.8037  19.2742  19.2742
    19.2743  19.3160  19.4524  19.4524  19.4524  19.6965  19.6966  19.6966
    19.8564  19.8564  19.8564  20.0429  20.0429  20.0429  20.7439  20.7439
    20.7440  20.8459  20.8459  20.8460  20.9719  20.9719  21.0458  21.0458
    21.0458  21.3685  21.3685  21.3686  21.4135  21.4135

          k = 0.1671 0.1671 0.2786 ( 12432 PWs)   bands (ev):

   -52.0209 -51.9265 -51.8913 -51.8913 -51.8572 -51.8571 -51.8448 -51.8275
   -51.8219 -51.8176 -51.8175 -51.8166 -51.8066 -51.8065 -51.7791 -51.7055
   -23.7009 -23.7008 -23.6927 -23.6634 -23.6391 -23.6391 -23.5220 -23.5127
   -23.5126 -23.4917 -23.4830 -23.4604 -23.4407 -23.3740 -23.3740 -23.3421
   -23.3333 -23.2692 -23.2434 -23.2150 -23.2150 -23.1675 -23.1579 -23.1578
   -23.1507 -23.1476 -23.0996 -23.0712 -23.0711 -23.0628 -23.0466 -23.0466
   -23.0401 -23.0400 -22.9886 -22.9801 -22.9522 -22.9110 -22.9110 -22.9033
   -22.8777 -22.8777 -22.8630 -22.8408 -22.8218 -22.8173 -22.8173 -22.8035
    12.6270  14.6193  15.3104  15.3104  15.4847  15.4847  15.7015  15.8155
    15.8155  15.8282  15.8500  15.8684  16.4352  16.4352  16.4910  16.8646
    16.9119  17.1559  17.2662  17.3196  17.3196  17.3820  17.4834  17.5150
    17.5150  17.5682  17.7191  17.7192  17.8137  17.9992  18.1449  18.1449
    18.4935  18.5679  18.5679  18.6713  18.7065  18.7708  18.9700  18.9701
    18.9712  18.9712  19.2348  19.3841  19.3841  19.4121  19.4968  19.5034
    19.8339  19.9711  19.9711  20.1498  20.1498  20.3421  20.4686  20.7000
    20.7000  20.8208  20.9293  20.9716  20.9716  21.0095  21.0565  21.0724
    21.0731  21.0732  21.3489  21.3546  21.3765  21.4122

          k = 0.1671 0.1671 0.3900 ( 12433 PWs)   bands (ev):

   -52.0034 -51.9552 -51.8846 -51.8845 -51.8669 -51.8669 -51.8410 -51.8320
   -51.8204 -51.8174 -51.8132 -51.8131 -51.8079 -51.8079 -51.7552 -51.7181
   -23.6658 -23.6657 -23.6508 -23.6343 -23.5815 -23.5815 -23.5665 -23.5664
   -23.5605 -23.5325 -23.5043 -23.4983 -23.4437 -23.4437 -23.4095 -23.3222
   -23.2978 -23.2918 -23.2081 -23.2080 -23.2072 -23.1982 -23.1775 -23.1773
   -23.1673 -23.1486 -23.1180 -23.0604 -23.0603 -23.0454 -23.0453 -23.0173
   -22.9976 -22.9975 -22.9932 -22.9471 -22.9300 -22.9117 -22.9117 -22.8833
   -22.8805 -22.8771 -22.8771 -22.8663 -22.8498 -22.8291 -22.8291 -22.8151
    13.0052  14.0315  15.4186  15.4186  15.4978  15.4978  15.9981  15.9981
    16.0173  16.0210  16.0499  16.1436  16.3590  16.3590  16.4268  16.5711
    16.7091  16.7968  17.2627  17.3334  17.4124  17.4144  17.5234  17.5234
    17.6662  17.6662  17.9098  17.9099  18.0300  18.0300  18.1181  18.2942
    18.4162  18.4163  18.5080  18.5080  18.6051  18.6099  18.6345  18.6507
    18.6508  18.7272  18.8901  18.8901  18.9429  18.9442  19.7055  19.8025
    20.0723  20.1961  20.2676  20.2676  20.2822  20.2822  20.5476  20.5476
    20.5824  20.6065  20.7012  20.8105  20.8105  21.0359  21.1286  21.1728
    21.2584  21.2806  21.3743  21.3744  21.3863  21.4046

          k = 0.1671 0.1671-0.5014 ( 12424 PWs)   bands (ev):

   -51.9814 -51.9810 -51.8765 -51.8764 -51.8760 -51.8760 -51.8369 -51.8364
   -51.8190 -51.8186 -51.8103 -51.8102 -51.8098 -51.8098 -51.7350 -51.7346
   -23.6196 -23.6195 -23.6195 -23.6194 -23.5992 -23.5988 -23.5970 -23.5966
   -23.5149 -23.5148 -23.5148 -23.5147 -23.5061 -23.5059 -23.3699 -23.3694
   -23.2521 -23.2518 -23.2467 -23.2465 -23.1948 -23.1947 -23.1945 -23.1944
   -23.1361 -23.1358 -23.0906 -23.0905 -23.0522 -23.0520 -23.0518 -23.0517
   -22.9519 -22.9519 -22.9518 -22.9518 -22.9319 -22.9315 -22.9118 -22.9115
   -22.8863 -22.8859 -22.8492 -22.8492 -22.8492 -22.8492 -22.8365 -22.8364
    13.4816  13.4821  15.4838  15.4838  15.4840  15.4841  16.1921  16.1922
    16.1923  16.1924  16.2593  16.2596  16.2707  16.2711  16.3957  16.3961
    16.4479  16.4482  17.2891  17.2894  17.3720  17.3722  17.8439  17.8439
    17.8442  17.8442  17.8569  17.8569  17.8571  17.8571  18.3875  18.3875
    18.3876  18.3876  18.5042  18.5044  18.5305  18.5305  18.5306  18.5306
    18.5993  18.5993  18.6171  18.6173  18.6743  18.6746  19.9394  19.9395
    20.1696  20.1697  20.3466  20.3469  20.4009  20.4009  20.4009  20.4010
    20.5729  20.5729  20.5730  20.5730  21.1006  21.1009  21.1500  21.1504
    21.2015  21.2019  21.3131  21.3135  21.3960  21.3964

          k = 0.1671 0.2786 0.2786 ( 12439 PWs)   bands (ev):

   -52.0094 -51.9200 -51.9199 -51.8867 -51.8716 -51.8540 -51.8539 -51.8328
   -51.8168 -51.8167 -51.8152 -51.8072 -51.8069 -51.7816 -51.7816 -51.7133
   -23.6886 -23.6737 -23.6737 -23.6253 -23.6253 -23.5875 -23.5420 -23.5348
   -23.5317 -23.5315 -23.4961 -23.4756 -23.4361 -23.4138 -23.3606 -23.3054
   -23.3053 -23.2899 -23.2715 -23.2714 -23.2340 -23.1931 -23.1930 -23.1881
   -23.1254 -23.0963 -23.0962 -23.0840 -23.0839 -23.0483 -23.0470 -23.0335
   -23.0092 -23.0062 -22.9862 -22.9861 -22.9558 -22.9113 -22.8915 -22.8803
   -22.8803 -22.8746 -22.8745 -22.8420 -22.8419 -22.8337 -22.8124 -22.8040
    12.8804  14.7733  14.7733  15.4000  15.4478  15.7146  15.7146  15.9524
    15.9760  16.0019  16.0141  16.0142  16.5368  16.5368  16.5464  16.8252
    17.0066  17.0066  17.0924  17.2638  17.3353  17.4650  17.4650  17.5780
    17.6143  17.6151  17.6151  17.6797  17.9095  17.9670  17.9695  18.2968
    18.2968  18.4506  18.4934  18.4934  18.5609  18.5948  18.6972  18.7519
    18.8267  18.8267  19.0129  19.0129  19.0828  19.1519  19.1520  19.7174
    20.0913  20.0913  20.1391  20.2933  20.3753  20.3753  20.5583  20.5800
    20.8108  20.8108  20.8112  20.8113  20.8283  20.9522  20.9978  20.9978
    21.0216  21.3074  21.3089  21.3114  21.3189  21.3922

          k = 0.1671 0.2786 0.3900 ( 12410 PWs)   bands (ev):

   -51.9928 -51.9471 -51.9106 -51.8858 -51.8802 -51.8633 -51.8495 -51.8385
   -51.8159 -51.8148 -51.8128 -51.8082 -51.7982 -51.7855 -51.7594 -51.7250
   -23.6621 -23.6432 -23.6342 -23.6065 -23.5784 -23.5766 -23.5675 -23.5629
   -23.5374 -23.5281 -23.5240 -23.5164 -23.4654 -23.4089 -23.3778 -23.3305
   -23.3240 -23.2609 -23.2438 -23.2402 -23.2374 -23.2302 -23.2167 -23.2158
   -23.1462 -23.1204 -23.0987 -23.0777 -23.0721 -23.0560 -23.0446 -23.0263
   -22.9957 -22.9784 -22.9669 -22.9509 -22.9372 -22.9268 -22.9033 -22.8885
   -22.8781 -22.8727 -22.8595 -22.8476 -22.8474 -22.8445 -22.8157 -22.8086
    13.2452  14.2231  14.9633  15.2942  15.5938  15.7249  16.0371  16.1178
    16.1515  16.1950  16.2150  16.2783  16.4669  16.4789  16.5385  16.7171
    16.7476  16.8123  17.2716  17.3258  17.3690  17.4053  17.4924  17.5062
    17.5935  17.7018  17.7266  17.8465  17.8721  18.0424  18.0874  18.1423
    18.2269  18.3165  18.3675  18.4069  18.4478  18.4853  18.4999  18.5200
    18.6026  18.6051  18.6220  18.6316  18.7350  18.8017  19.4069  19.9662
    20.1467  20.2794  20.3688  20.3740  20.3775  20.4292  20.4464  20.5247
    20.6770  20.6839  20.6960  20.8410  20.8419  20.9480  21.0593  21.1086
    21.1673  21.2154  21.2316  21.3239  21.3880  21.3887

          k = 0.1671 0.2786-0.5014 ( 12430 PWs)   bands (ev):

   -51.9719 -51.9715 -51.8993 -51.8989 -51.8724 -51.8720 -51.8444 -51.8440
   -51.8153 -51.8149 -51.8103 -51.8099 -51.7912 -51.7908 -51.7407 -51.7403
   -23.6240 -23.6239 -23.6060 -23.6059 -23.5851 -23.5848 -23.5847 -23.5843
   -23.5317 -23.5316 -23.5218 -23.5216 -23.4527 -23.4526 -23.3706 -23.3702
   -23.2856 -23.2854 -23.2419 -23.2416 -23.2330 -23.2327 -23.1958 -23.1956
   -23.1528 -23.1528 -23.1124 -23.1121 -23.0635 -23.0632 -23.0094 -23.0091
   -22.9958 -22.9957 -22.9322 -22.9321 -22.9245 -22.9241 -22.9041 -22.9039
   -22.8948 -22.8944 -22.8577 -22.8577 -22.8275 -22.8275 -22.8224 -22.8223
    13.7016  13.7021  15.1473  15.1476  15.6930  15.6933  16.3108  16.3112
    16.3238  16.3240  16.3876  16.3878  16.4209  16.4213  16.4569  16.4572
    16.5529  16.5532  17.3518  17.3521  17.4433  17.4435  17.6216  17.6219
    17.6494  17.6498  17.7357  17.7359  17.8775  17.8777  18.2095  18.2097
    18.3405  18.3407  18.3484  18.3485  18.3820  18.3822  18.4105  18.4105
    18.4754  18.4755  18.4887  18.4888  18.5623  18.5625  19.7450  19.7451
    20.2354  20.2355  20.3831  20.3832  20.4975  20.4977  20.5568  20.5569
    20.6253  20.6255  20.6355  20.6357  21.0334  21.0337  21.0891  21.0895
    21.1420  21.1424  21.2493  21.2497  21.3644  21.3646

          k = 0.1671 0.3900 0.3900 ( 12417 PWs)   bands (ev):

   -51.9774 -51.9355 -51.9355 -51.9041 -51.8741 -51.8582 -51.8582 -51.8453
   -51.8134 -51.8126 -51.8125 -51.8090 -51.7852 -51.7658 -51.7658 -51.7353
   -23.6441 -23.6119 -23.6119 -23.5769 -23.5768 -23.5744 -23.5712 -23.5712
   -23.5644 -23.5437 -23.5416 -23.4963 -23.4561 -23.3872 -23.3311 -23.3099
   -23.3099 -23.3041 -23.3040 -23.2637 -23.2607 -23.2606 -23.2534 -23.1940
   -23.1492 -23.1073 -23.0935 -23.0934 -23.0856 -23.0855 -23.0666 -22.9964
   -22.9949 -22.9514 -22.9513 -22.9458 -22.9383 -22.9109 -22.8989 -22.8989
   -22.8818 -22.8743 -22.8743 -22.8704 -22.8255 -22.8254 -22.8104 -22.8060
    13.5874  14.4807  14.4807  15.0498  15.7995  16.0370  16.0370  16.2360
    16.2867  16.4493  16.4493  16.4513  16.4557  16.4557  16.6847  16.6865
    16.7755  17.0030  17.0030  17.2830  17.3974  17.4706  17.5095  17.5096
    17.5472  17.5472  17.7034  17.7456  17.7906  17.7953  18.0926  18.1373
    18.1373  18.1787  18.2793  18.2793  18.3328  18.3335  18.3335  18.3716
    18.3857  18.4300  18.4300  18.5505  18.5534  19.0247  19.0247  19.7192
    20.2559  20.4089  20.5086  20.5086  20.5439  20.5616  20.5616  20.5913
    20.7403  20.8358  20.8460  20.8460  20.8838  20.8839  20.9201  20.9202
    21.0843  21.1313  21.1380  21.1398  21.2327  21.3378

          k = 0.1671 0.3900-0.5014 ( 12410 PWs)   bands (ev):

   -51.9583 -51.9578 -51.9211 -51.9207 -51.8668 -51.8664 -51.8523 -51.8519
   -51.8129 -51.8125 -51.8105 -51.8102 -51.7746 -51.7742 -51.7492 -51.7488
   -23.6144 -23.6143 -23.5900 -23.5899 -23.5762 -23.5758 -23.5670 -23.5668
   -23.5635 -23.5635 -23.5330 -23.5328 -23.3812 -23.3812 -23.3530 -23.3527
   -23.3030 -23.3029 -23.2855 -23.2851 -23.2710 -23.2709 -23.2264 -23.2264
   -23.1437 -23.1435 -23.0976 -23.0974 -23.0757 -23.0756 -23.0428 -23.0427
   -22.9713 -22.9710 -22.9155 -22.9154 -22.9130 -22.9126 -22.9084 -22.9081
   -22.9014 -22.9012 -22.8711 -22.8710 -22.8136 -22.8136 -22.8114 -22.8114
    14.0093  14.0098  14.7691  14.7695  15.9642  15.9645  16.3612  16.3616
    16.3878  16.3882  16.3904  16.3907  16.6232  16.6233  16.6832  16.6835
    16.7235  16.7239  17.3598  17.3601  17.4177  17.4181  17.4392  17.4394
    17.4410  17.4411  17.6095  17.6098  17.9426  17.9427  17.9779  17.9781
    18.1240  18.1241  18.1930  18.1931  18.2148  18.2148  18.2636  18.2637
    18.4416  18.4417  18.4802  18.4804  18.6795  18.6796  19.3352  19.3353
    20.4529  20.4530  20.5553  20.5553  20.6655  20.6657  20.7146  20.7148
    20.7297  20.7298  20.7377  20.7379  20.8325  20.8327  21.0031  21.0034
    21.0262  21.0265  21.1766  21.1770  21.2179  21.2181

          k = 0.1671-0.5014-0.5014 ( 12416 PWs)   bands (ev):

   -51.9412 -51.9409 -51.9408 -51.9405 -51.8600 -51.8597 -51.8596 -51.8594
   -51.8115 -51.8112 -51.8111 -51.8108 -51.7606 -51.7603 -51.7602 -51.7600
   -23.5930 -23.5930 -23.5929 -23.5929 -23.5781 -23.5779 -23.5778 -23.5777
   -23.5487 -23.5485 -23.5485 -23.5483 -23.3235 -23.3232 -23.3231 -23.3229
   -23.3045 -23.3044 -23.3043 -23.3043 -23.2977 -23.2977 -23.2975 -23.2975
   -23.0923 -23.0923 -23.0922 -23.0921 -23.0869 -23.0869 -23.0868 -23.0868
   -22.9392 -22.9389 -22.9387 -22.9385 -22.9050 -22.9050 -22.9049 -22.9048
   -22.8889 -22.8888 -22.8887 -22.8886 -22.8083 -22.8083 -22.8081 -22.8081
    14.3771  14.3771  14.3775  14.3776  16.2275  16.2275  16.2278  16.2278
    16.3962  16.3963  16.3965  16.3966  16.7569  16.7569  16.7571  16.7571
    17.0364  17.0365  17.0367  17.0368  17.3529  17.3530  17.3532  17.3532
    17.5153  17.5154  17.5155  17.5155  17.9614  17.9616  17.9616  17.9618
    18.0555  18.0555  18.0556  18.0556  18.1785  18.1785  18.1785  18.1787
    18.4353  18.4354  18.4354  18.4355  18.9721  18.9721  18.9722  18.9723
    20.6144  20.6146  20.6146  20.6147  20.7420  20.7421  20.7422  20.7423
    20.8816  20.8817  20.8819  20.8820  20.8840  20.8841  20.8842  20.8843
    20.9135  20.9135  20.9135  20.9136  21.1558  21.1562

          k = 0.2786 0.2786 0.2786 ( 12407 PWs)   bands (ev):

   -51.9985 -51.9138 -51.9137 -51.9137 -51.8677 -51.8677 -51.8677 -51.8402
   -51.8118 -51.8070 -51.8070 -51.8070 -51.7839 -51.7838 -51.7838 -51.7205
   -23.6609 -23.6608 -23.6608 -23.5812 -23.5812 -23.5812 -23.5514 -23.5466
   -23.5466 -23.5465 -23.4736 -23.4736 -23.4359 -23.4359 -23.3497 -23.3497
   -23.3496 -23.2939 -23.2939 -23.2939 -23.2428 -23.2300 -23.2300 -23.2298
   -23.0641 -23.0545 -23.0545 -23.0543 -23.0522 -23.0522 -23.0510 -23.0510
   -23.0509 -22.9907 -22.9907 -22.9907 -22.9323 -22.9035 -22.9035 -22.9035
   -22.8634 -22.8634 -22.8633 -22.8383 -22.8383 -22.8383 -22.8240 -22.8240
    13.1283  14.9455  14.9455  14.9455  15.6401  15.6401  15.6401  16.1127
    16.1127  16.1731  16.1731  16.1731  16.6906  16.6906  16.6906  16.8361
    16.9887  16.9887  16.9887  17.2853  17.3248  17.3248  17.5264  17.5264
    17.5264  17.7588  17.7588  17.7589  17.7807  17.7807  18.1265  18.1265
    18.1265  18.3459  18.3459  18.3459  18.4659  18.4659  18.4659  18.5379
    18.5379  18.7183  18.7183  18.7183  18.8358  18.8358  18.8358  19.9647
    20.1308  20.2603  20.2603  20.2603  20.5291  20.5291  20.5292  20.7174
    20.7174  20.7174  20.9228  20.9228  20.9868  20.9868  20.9868  21.1298
    21.1298  21.1300  21.3143  21.3143  21.3150  21.3203

          k = 0.2786 0.2786 0.3900 ( 12419 PWs)   bands (ev):

   -51.9826 -51.9394 -51.9048 -51.9048 -51.8812 -51.8812 -51.8621 -51.8479
   -51.8094 -51.8072 -51.7989 -51.7988 -51.7874 -51.7874 -51.7632 -51.7314
   -23.6364 -23.6363 -23.6200 -23.5736 -23.5724 -23.5723 -23.5587 -23.5448
   -23.5272 -23.5271 -23.5061 -23.5057 -23.4410 -23.4061 -23.4060 -23.3884
   -23.3494 -23.2995 -23.2995 -23.2811 -23.2785 -23.2627 -23.2626 -23.1945
   -23.1309 -23.0978 -23.0631 -23.0618 -23.0307 -23.0305 -23.0071 -23.0070
   -22.9993 -22.9992 -22.9851 -22.9382 -22.9325 -22.9325 -22.9144 -22.9000
   -22.8765 -22.8536 -22.8522 -22.8521 -22.8418 -22.8389 -22.8389 -22.8216
    13.4834  14.4247  15.1611  15.1611  15.5339  15.5340  15.9803  16.2743
    16.3202  16.3523  16.3523  16.4327  16.6762  16.6784  16.6784  16.7225
    16.8278  16.8500  17.1845  17.1845  17.3491  17.4624  17.5740  17.5974
    17.6014  17.6393  17.6393  17.8467  17.8467  17.9603  17.9603  17.9668
    18.1520  18.1520  18.2251  18.2251  18.2558  18.2984  18.3197  18.3273
    18.4040  18.4205  18.4205  18.4598  18.5333  18.5334  19.0115  19.6932
    20.2445  20.4283  20.4786  20.4787  20.5953  20.5953  20.6504  20.6504
    20.7821  20.8379  20.8539  20.8842  20.8842  20.9021  21.0505  21.0525
    21.2315  21.2328  21.3192  21.3192  21.3214  21.3254

          k = 0.2786 0.2786-0.5014 ( 12410 PWs)   bands (ev):

   -51.9629 -51.9625 -51.8941 -51.8939 -51.8936 -51.8935 -51.8556 -51.8552
   -51.8082 -51.8078 -51.7927 -51.7925 -51.7922 -51.7921 -51.7458 -51.7454
   -23.6048 -23.6048 -23.6047 -23.6047 -23.5679 -23.5675 -23.5660 -23.5657
   -23.5306 -23.5305 -23.4672 -23.4671 -23.4670 -23.4669 -23.3993 -23.3989
   -23.3357 -23.3355 -23.2876 -23.2876 -23.2874 -23.2873 -23.2041 -23.2041
   -23.1460 -23.1458 -23.0659 -23.0656 -23.0123 -23.0122 -23.0120 -23.0119
   -22.9673 -22.9672 -22.9671 -22.9671 -22.9261 -22.9257 -22.9035 -22.9033
   -22.8923 -22.8919 -22.8436 -22.8436 -22.8436 -22.8435 -22.8278 -22.8278
    13.9250  13.9254  15.3713  15.3714  15.3717  15.3717  16.3954  16.3958
    16.4802  16.4806  16.5296  16.5299  16.5319  16.5319  16.5321  16.5321
    16.6892  16.6895  17.3987  17.3991  17.5066  17.5068  17.5405  17.5405
    17.5409  17.5409  17.7916  17.7916  17.7918  17.7918  17.9373  17.9374
    18.1553  18.1555  18.2394  18.2394  18.2395  18.2396  18.2717  18.2717
    18.2718  18.2718  18.3194  18.3195  18.3652  18.3655  19.3064  19.3065
    20.5448  20.5448  20.6110  20.6112  20.6171  20.6171  20.6171  20.6171
    20.6996  20.6996  20.6998  20.6998  21.0806  21.0810  21.1380  21.1383
    21.1990  21.1993  21.2004  21.2008  21.3254  21.3257

          k = 0.2786 0.3900 0.3900 ( 12418 PWs)   bands (ev):

   -51.9681 -51.9283 -51.9283 -51.8985 -51.8965 -51.8746 -51.8746 -51.8574
   -51.8052 -51.8002 -51.8001 -51.7904 -51.7868 -51.7691 -51.7690 -51.7408
   -23.6174 -23.5994 -23.5994 -23.5709 -23.5637 -23.5635 -23.5502 -23.5327
   -23.5327 -23.5179 -23.5121 -23.4683 -23.4443 -23.4365 -23.4029 -23.3541
   -23.3541 -23.3388 -23.3387 -23.3272 -23.3155 -23.3154 -23.3043 -23.1962
   -23.1449 -23.0505 -23.0504 -23.0377 -23.0340 -23.0339 -23.0051 -22.9951
   -22.9715 -22.9671 -22.9606 -22.9478 -22.9477 -22.9174 -22.9173 -22.9080
   -22.8729 -22.8729 -22.8693 -22.8588 -22.8380 -22.8379 -22.8351 -22.8274
    13.8220  14.6967  14.6967  15.2913  15.4169  15.8706  15.8706  16.4147
    16.4944  16.5318  16.6167  16.6167  16.6553  16.6695  16.6695  16.9039
    16.9163  16.9966  16.9966  17.1181  17.4292  17.5327  17.5330  17.5622
    17.5623  17.6272  17.6272  17.7287  17.7318  17.8241  17.8809  18.0518
    18.0530  18.0530  18.0630  18.0630  18.0757  18.0757  18.0862  18.2047
    18.2047  18.2570  18.2622  18.2844  18.3498  18.6407  18.6407  19.2610
    20.5590  20.6098  20.6099  20.6356  20.6734  20.7617  20.8305  20.8393
    20.8394  20.8708  20.8708  20.8884  20.9638  20.9638  21.0325  21.1675
    21.1981  21.1982  21.2017  21.2323  21.3042  21.3154

          k = 0.2786 0.3900-0.5014 ( 12402 PWs)   bands (ev):

   -51.9499 -51.9495 -51.9147 -51.9142 -51.8865 -51.8860 -51.8667 -51.8663
   -51.8024 -51.8020 -51.7948 -51.7944 -51.7771 -51.7767 -51.7536 -51.7532
   -23.5907 -23.5907 -23.5804 -23.5802 -23.5547 -23.5543 -23.5435 -23.5435
   -23.5408 -23.5406 -23.4881 -23.4880 -23.4039 -23.4039 -23.4017 -23.4013
   -23.3670 -23.3668 -23.3369 -23.3366 -23.3334 -23.3332 -23.2672 -23.2672
   -23.0966 -23.0965 -23.0353 -23.0351 -23.0158 -23.0156 -23.0066 -23.0065
   -22.9672 -22.9669 -22.9413 -22.9411 -22.9155 -22.9151 -22.9089 -22.9088
   -22.9037 -22.9033 -22.8664 -22.8663 -22.8350 -22.8350 -22.8301 -22.8301
    14.2371  14.2375  15.0006  15.0010  15.6745  15.6749  16.2692  16.2696
    16.5553  16.5557  16.6028  16.6030  16.7765  16.7768  16.8064  16.8066
    16.8630  16.8633  17.3545  17.3549  17.3800  17.3803  17.4785  17.4786
    17.4876  17.4878  17.6905  17.6907  17.7573  17.7574  17.8705  17.8706
    17.9604  17.9606  17.9782  17.9784  18.0937  18.0938  18.1410  18.1411
    18.1835  18.1837  18.2608  18.2610  18.3249  18.3249  18.8935  18.8936
    20.7418  20.7420  20.7519  20.7519  20.7837  20.7839  20.8092  20.8095
    20.8402  20.8403  20.8949  20.8949  21.0644  21.0648  21.0664  21.0666
    21.1406  21.1408  21.1446  21.1449  21.2341  21.2344

          k = 0.2786-0.5014-0.5014 ( 12412 PWs)   bands (ev):

   -51.9337 -51.9334 -51.9333 -51.9330 -51.8773 -51.8770 -51.8769 -51.8766
   -51.7981 -51.7978 -51.7977 -51.7974 -51.7642 -51.7639 -51.7638 -51.7635
   -23.5678 -23.5677 -23.5676 -23.5676 -23.5593 -23.5592 -23.5591 -23.5589
   -23.5138 -23.5137 -23.5136 -23.5135 -23.3773 -23.3771 -23.3770 -23.3768
   -23.3653 -23.3653 -23.3652 -23.3652 -23.3358 -23.3358 -23.3357 -23.3356
   -23.0499 -23.0499 -23.0498 -23.0497 -23.0215 -23.0214 -23.0213 -23.0213
   -22.9301 -22.9299 -22.9297 -22.9296 -22.9214 -22.9214 -22.9213 -22.9212
   -22.8928 -22.8927 -22.8926 -22.8925 -22.8313 -22.8313 -22.8312 -22.8312
    14.6087  14.6087  14.6091  14.6091  16.0037  16.0038  16.0041  16.0041
    16.6013  16.6014  16.6016  16.6017  16.9962  16.9962  16.9963  16.9964
    17.0753  17.0754  17.0757  17.0758  17.3027  17.3028  17.3030  17.3031
    17.5925  17.5925  17.5926  17.5926  17.7813  17.7814  17.7815  17.7817
    17.9705  17.9706  17.9706  17.9707  17.9838  17.9838  17.9839  17.9839
    18.1963  18.1965  18.1965  18.1966  18.5491  18.5491  18.5491  18.5492
    20.8215  20.8216  20.8217  20.8218  20.9403  20.9405  20.9406  20.9408
    20.9468  20.9470  20.9470  20.9471  20.9982  20.9983  20.9984  20.9985
    21.1368  21.1370  21.1372  21.1374  21.2607  21.2607

          k = 0.3900 0.3900 0.3900 ( 12406 PWs)   bands (ev):

   -51.9546 -51.9181 -51.9180 -51.9180 -51.8905 -51.8905 -51.8905 -51.8694
   -51.7986 -51.7896 -51.7895 -51.7895 -51.7741 -51.7740 -51.7740 -51.7491
   -23.5782 -23.5782 -23.5782 -23.5532 -23.5532 -23.5531 -23.5300 -23.4859
   -23.4859 -23.4859 -23.4832 -23.4832 -23.4694 -23.4694 -23.3863 -23.3862
   -23.3862 -23.3841 -23.3841 -23.3840 -23.3614 -23.3614 -23.3613 -23.2552
   -23.0964 -23.0092 -23.0092 -23.0091 -22.9914 -22.9914 -22.9913 -22.9741
   -22.9741 -22.9489 -22.9489 -22.9489 -22.9420 -22.9419 -22.9419 -22.9118
   -22.8713 -22.8712 -22.8712 -22.8589 -22.8589 -22.8532 -22.8532 -22.8531
    14.1534  14.9906  14.9906  14.9906  15.6306  15.6306  15.6307  16.4234
    16.6468  16.6468  16.7774  16.7774  16.7774  16.9499  16.9499  16.9499
    16.9880  16.9880  16.9880  17.0897  17.4875  17.4875  17.5978  17.5978
    17.6506  17.6506  17.6506  17.6993  17.6993  17.6993  17.7728  17.7728
    17.7729  17.9405  17.9405  17.9405  17.9422  17.9422  17.9422  18.0004
    18.0004  18.0005  18.1673  18.1673  18.2776  18.2776  18.2777  18.8280
    20.7463  20.7463  20.7463  20.9052  20.9385  20.9385  20.9385  20.9556
    20.9556  20.9734  20.9734  20.9735  21.0101  21.0101  21.0102  21.1948
    21.1948  21.2274  21.2274  21.2275  21.2486  21.2486

          k = 0.3900 0.3900-0.5014 ( 12422 PWs)   bands (ev):

   -51.9379 -51.9375 -51.9055 -51.9054 -51.9050 -51.9050 -51.8808 -51.8804
   -51.7936 -51.7932 -51.7811 -51.7810 -51.7806 -51.7806 -51.7604 -51.7600
   -23.5584 -23.5584 -23.5583 -23.5583 -23.5288 -23.5283 -23.5231 -23.5230
   -23.5074 -23.5072 -23.4390 -23.4386 -23.4350 -23.4349 -23.4348 -23.4348
   -23.4181 -23.4180 -23.3895 -23.3894 -23.3893 -23.3892 -23.3196 -23.3195
   -23.0509 -23.0508 -22.9845 -22.9843 -22.9727 -22.9726 -22.9725 -22.9725
   -22.9623 -22.9622 -22.9621 -22.9620 -22.9232 -22.9230 -22.9181 -22.9177
   -22.9002 -22.8998 -22.8656 -22.8655 -22.8655 -22.8655 -22.8533 -22.8532
    14.5549  14.5553  15.3206  15.3207  15.3210  15.3211  16.0321  16.0326
    16.7890  16.7894  16.8733  16.8736  16.8984  16.8984  16.8986  16.8986
    17.0712  17.0715  17.3287  17.3287  17.3291  17.3291  17.5207  17.5208
    17.5647  17.5650  17.6551  17.6554  17.6623  17.6625  17.7803  17.7803
    17.7805  17.7805  17.9197  17.9198  17.9199  17.9200  17.9781  17.9782
    17.9782  17.9782  18.0425  18.0427  18.0579  18.0582  18.4732  18.4732
    20.8574  20.8576  20.8867  20.8867  20.8869  20.8869  21.0183  21.0183
    21.0183  21.0183  21.0797  21.0800  21.1014  21.1017  21.1644  21.1646
    21.2151  21.2154  21.2177  21.2177  21.2180  21.2180

          k = 0.3900-0.5014-0.5014 ( 12436 PWs)   bands (ev):

   -51.9230 -51.9227 -51.9225 -51.9223 -51.8941 -51.8938 -51.8936 -51.8934
   -51.7866 -51.7863 -51.7862 -51.7860 -51.7697 -51.7694 -51.7693 -51.7690
   -23.5310 -23.5310 -23.5309 -23.5309 -23.5273 -23.5271 -23.5270 -23.5268
   -23.4709 -23.4708 -23.4707 -23.4706 -23.4328 -23.4326 -23.4325 -23.4324
   -23.4279 -23.4279 -23.4278 -23.4278 -23.3772 -23.3771 -23.3771 -23.3770
   -23.0094 -23.0093 -23.0093 -23.0091 -22.9616 -22.9616 -22.9615 -22.9615
   -22.9446 -22.9446 -22.9445 -22.9444 -22.9194 -22.9192 -22.9191 -22.9189
   -22.8999 -22.8998 -22.8997 -22.8995 -22.8651 -22.8651 -22.8650 -22.8650
    14.9310  14.9311  14.9314  14.9315  15.6879  15.6879  15.6883  15.6883
    16.8822  16.8823  16.8825  16.8826  17.1277  17.1278  17.1280  17.1281
    17.2450  17.2450  17.2452  17.2453  17.2471  17.2472  17.2474  17.2475
    17.6843  17.6843  17.6844  17.6844  17.7094  17.7094  17.7094  17.7095
    17.7152  17.7153  17.7154  17.7155  17.8900  17.8900  17.8901  17.8901
    17.9617  17.9619  17.9619  17.9620  18.1301  18.1301  18.1301  18.1303
    20.9303  20.9304  20.9305  20.9307  21.0032  21.0034  21.0035  21.0037
    21.1053  21.1055  21.1057  21.1059  21.1858  21.1859  21.1860  21.1860
    21.1978  21.1979  21.1981  21.1983  21.2324  21.2325

          k =-0.5014-0.5014-0.5014 ( 12400 PWs)   bands (ev):

   -51.9098 -51.9093 -51.9093 -51.9092 -51.9092 -51.9090 -51.9090 -51.9087
   -51.7774 -51.7769 -51.7769 -51.7768 -51.7768 -51.7766 -51.7766 -51.7763
   -23.4838 -23.4838 -23.4838 -23.4838 -23.4838 -23.4837 -23.4837 -23.4836
   -23.4836 -23.4835 -23.4835 -23.4834 -23.4834 -23.4832 -23.4831 -23.4831
   -23.4239 -23.4239 -23.4239 -23.4237 -23.4237 -23.4237 -23.4237 -23.4236
   -22.9739 -22.9739 -22.9739 -22.9736 -22.9736 -22.9736 -22.9736 -22.9735
   -22.9093 -22.9093 -22.9093 -22.9093 -22.9093 -22.9092 -22.9091 -22.9091
   -22.9091 -22.9090 -22.9090 -22.9089 -22.9089 -22.9086 -22.9086 -22.9086
    15.3088  15.3089  15.3089  15.3089  15.3093  15.3093  15.3093  15.3094
    17.1871  17.1871  17.1872  17.1872  17.1872  17.1872  17.1873  17.1873
    17.1874  17.1874  17.1875  17.1875  17.1875  17.1875  17.1876  17.1876
    17.7679  17.7679  17.7679  17.7681  17.7681  17.7681  17.7681  17.7682
    17.7861  17.7861  17.7861  17.7862  17.7862  17.7863  17.7863  17.7863
    17.7864  17.7865  17.7865  17.7865  17.7865  17.7867  17.7867  17.7867
    21.0600  21.0600  21.0603  21.0603  21.0603  21.0603  21.0603  21.0604
    21.0604  21.0605  21.0605  21.0605  21.0606  21.0606  21.0608  21.0608
    21.4429  21.4430  21.4432  21.4432  21.4433  21.4433

 ------ SPIN DOWN ----------


          k = 0.0557 0.0557 0.0557 ( 12407 PWs)   bands (ev):

   -52.0522 -51.8686 -51.8683 -51.8683 -51.8372 -51.8360 -51.8359 -51.8357
   -51.8357 -51.8354 -51.8325 -51.8324 -51.8324 -51.8180 -51.8160 -51.6836
   -23.7542 -23.7542 -23.7540 -23.7494 -23.7492 -23.7492 -23.4548 -23.4548
   -23.4439 -23.3525 -23.3475 -23.3475 -23.3475 -23.3116 -23.3116 -23.2910
   -23.2910 -23.2908 -23.2280 -23.2280 -23.1867 -23.1426 -23.1426 -23.1425
   -23.1248 -23.1248 -23.1248 -23.0995 -23.0995 -23.0995 -23.0941 -23.0941
   -23.0939 -23.0846 -23.0846 -23.0845 -23.0681 -23.0679 -23.0679 -22.8056
   -22.8055 -22.8055 -22.8042 -22.8006 -22.8006 -22.8004 -22.7927 -22.7927
    11.9590  15.3525  15.3525  15.3525  15.3737  15.3737  15.3738  15.4719
    15.4719  15.6330  15.6330  15.6330  16.0623  16.0623  16.0623  17.3117
    17.3619  17.3619  17.3620  17.3781  17.3781  17.3781  17.4186  17.4186
    17.5926  17.5926  17.6543  17.7547  17.7547  17.7548  18.2200  18.2200
    18.2201  18.9293  18.9293  18.9857  19.2813  19.2815  19.2815  19.4007
    19.4007  19.4007  19.5038  19.5038  19.5039  19.6154  19.6154  19.6155
    20.5179  20.5179  20.5180  20.5905  20.5905  20.5905  20.8156  20.8157
    20.8157  20.8312  20.8312  20.8312  21.0242  21.0242  21.0243  21.0388
    21.0388  21.0832  21.0832  21.0832  21.3988  21.3990

          k = 0.0557 0.0557 0.1671 ( 12434 PWs)   bands (ev):

   -52.0457 -51.9012 -51.8670 -51.8667 -51.8398 -51.8395 -51.8357 -51.8353
   -51.8347 -51.8315 -51.8310 -51.8309 -51.8191 -51.8170 -51.8051 -51.6882
   -23.7405 -23.7404 -23.7391 -23.7348 -23.7265 -23.7264 -23.4610 -23.4440
   -23.4275 -23.4135 -23.3969 -23.3968 -23.3942 -23.3926 -23.3426 -23.3425
   -23.2838 -23.2377 -23.2249 -23.2004 -23.1818 -23.1461 -23.1423 -23.1423
   -23.1233 -23.1106 -23.1057 -23.1057 -23.1042 -23.0903 -23.0902 -23.0855
   -23.0854 -23.0811 -23.0810 -23.0281 -23.0263 -23.0261 -23.0128 -22.8300
   -22.8205 -22.8204 -22.8188 -22.8144 -22.8054 -22.8053 -22.8021 -22.7972
    12.0966  15.0745  15.3837  15.3837  15.4486  15.4487  15.4647  15.4847
    15.5431  15.5526  15.6737  15.6738  16.0934  16.0934  16.3127  17.1807
    17.3012  17.3037  17.3333  17.3422  17.3568  17.4203  17.4204  17.4634
    17.4686  17.4687  17.7160  17.7161  17.8214  17.8295  18.1214  18.1215
    18.6564  18.8967  18.9214  19.0286  19.0287  19.0586  19.1097  19.2373
    19.2373  19.2788  19.6024  19.6024  19.7418  19.7418  19.7783  19.8973
    20.0223  20.0224  20.2292  20.3053  20.3054  20.3179  20.4444  20.7937
    20.7938  20.9397  20.9398  20.9424  21.0383  21.0384  21.0489  21.0773
    21.0780  21.0844  21.0845  21.1137  21.4027  21.4320

          k = 0.0557 0.0557 0.2786 ( 12451 PWs)   bands (ev):

   -52.0329 -51.9333 -51.8640 -51.8637 -51.8444 -51.8442 -51.8346 -51.8342
   -51.8328 -51.8304 -51.8303 -51.8296 -51.8211 -51.8188 -51.7766 -51.6975
   -23.7097 -23.7095 -23.7094 -23.7065 -23.6867 -23.6866 -23.4828 -23.4736
   -23.4652 -23.4651 -23.4648 -23.4255 -23.4232 -23.4146 -23.4146 -23.4042
   -23.2564 -23.2562 -23.2366 -23.2271 -23.1512 -23.1389 -23.1389 -23.1316
   -23.1236 -23.1127 -23.1127 -23.0877 -23.0876 -23.0854 -23.0853 -23.0686
   -23.0550 -23.0251 -23.0251 -22.9745 -22.9734 -22.9732 -22.9607 -22.8724
   -22.8450 -22.8449 -22.8445 -22.8422 -22.8207 -22.8204 -22.8203 -22.8128
    12.3665  14.4535  15.4592  15.4592  15.5720  15.5721  15.6803  15.6842
    15.6976  15.7031  15.7207  15.7208  16.1061  16.1062  16.3767  16.8774
    17.0036  17.0701  17.2411  17.3078  17.3099  17.3201  17.5509  17.5509
    17.6307  17.6308  17.7359  17.7360  18.0674  18.0675  18.1097  18.1309
    18.6873  18.6874  18.8735  18.8749  18.8749  18.9036  18.9097  18.9874
    19.1661  19.3901  19.4080  19.4081  19.6365  19.6365  19.8740  19.9081
    19.9081  19.9178  19.9530  19.9530  19.9575  20.1059  20.2376  20.7540
    20.8075  20.8076  20.9330  20.9330  21.0956  21.1147  21.1516  21.1604
    21.1604  21.3782  21.3800  21.4030  21.4099  21.4400

          k = 0.0557 0.0557 0.3900 ( 12443 PWs)   bands (ev):

   -52.0145 -51.9636 -51.8598 -51.8596 -51.8496 -51.8493 -51.8332 -51.8329
   -51.8307 -51.8306 -51.8301 -51.8271 -51.8238 -51.8213 -51.7510 -51.7111
   -23.6670 -23.6652 -23.6632 -23.6631 -23.6319 -23.6318 -23.5509 -23.5471
   -23.5366 -23.5365 -23.4914 -23.4914 -23.4650 -23.4474 -23.3929 -23.3726
   -23.3079 -23.2878 -23.2256 -23.2053 -23.1599 -23.1491 -23.1335 -23.1335
   -23.1200 -23.1200 -23.0860 -23.0859 -23.0851 -23.0850 -23.0744 -22.9976
   -22.9897 -22.9701 -22.9700 -22.9302 -22.9258 -22.9230 -22.9229 -22.9133
   -22.8827 -22.8825 -22.8785 -22.8784 -22.8479 -22.8452 -22.8451 -22.8382
    12.7581  13.8310  15.5620  15.5620  15.7241  15.7242  15.7310  15.7310
    15.8928  15.9014  15.9815  15.9938  16.0416  16.0417  16.2908  16.4956
    16.7035  16.7196  17.2220  17.2457  17.2681  17.2787  17.7481  17.7481
    17.8573  17.8574  17.9143  17.9144  18.1466  18.1467  18.3771  18.3771
    18.4744  18.4952  18.5134  18.5135  18.8210  18.8210  18.8629  18.9009
    18.9107  18.9172  19.0197  19.0197  19.3110  19.3857  19.3910  19.7102
    19.7550  20.1918  20.1919  20.2284  20.2285  20.4824  20.4827  20.6259
    20.6335  20.6335  20.7599  20.7599  21.1593  21.1720  21.2567  21.3092
    21.3132  21.3175  21.4195  21.4409  21.4476  21.4574

          k = 0.0557 0.0557-0.5014 ( 12408 PWs)   bands (ev):

   -51.9913 -51.9907 -51.8554 -51.8548 -51.8545 -51.8543 -51.8323 -51.8318
   -51.8314 -51.8313 -51.8274 -51.8266 -51.8245 -51.8239 -51.7294 -51.7288
   -23.6129 -23.6124 -23.6123 -23.6118 -23.6043 -23.6043 -23.6042 -23.6041
   -23.5655 -23.5655 -23.5653 -23.5652 -23.4600 -23.4596 -23.3543 -23.3537
   -23.3337 -23.3333 -23.1926 -23.1921 -23.1778 -23.1773 -23.1274 -23.1274
   -23.1268 -23.1268 -23.0855 -23.0854 -23.0849 -23.0849 -22.9994 -22.9990
   -22.9352 -22.9346 -22.9317 -22.9311 -22.9207 -22.9206 -22.9203 -22.9203
   -22.8835 -22.8829 -22.8797 -22.8795 -22.8795 -22.8794 -22.8721 -22.8717
    13.2542  13.2546  15.6629  15.6630  15.6632  15.6632  15.9010  15.9010
    15.9012  15.9012  16.1129  16.1132  16.1648  16.1652  16.3404  16.3408
    16.3435  16.3440  17.2349  17.2354  17.2470  17.2475  17.9986  17.9987
    17.9990  17.9990  18.1091  18.1093  18.1095  18.1095  18.3499  18.3500
    18.3503  18.3504  18.5322  18.5323  18.5326  18.5326  18.8720  18.8724
    18.9025  18.9030  18.9044  18.9046  18.9173  18.9175  19.4930  19.4934
    20.1414  20.1419  20.4247  20.4248  20.4248  20.4249  20.5206  20.5206
    20.5207  20.5208  20.8944  20.8948  21.0463  21.0468  21.2330  21.2335
    21.2406  21.2411  21.3872  21.3877  21.4300  21.4305

          k = 0.0557 0.1671 0.1671 ( 12435 PWs)   bands (ev):

   -52.0393 -51.8987 -51.8985 -51.8653 -51.8489 -51.8386 -51.8383 -51.8348
   -51.8301 -51.8300 -51.8238 -51.8205 -51.8176 -51.8056 -51.8054 -51.6927
   -23.7363 -23.7262 -23.7261 -23.7135 -23.7134 -23.6947 -23.4729 -23.4521
   -23.4391 -23.4389 -23.4379 -23.4281 -23.4187 -23.4024 -23.3769 -23.3012
   -23.2777 -23.2775 -23.2193 -23.1992 -23.1990 -23.1529 -23.1367 -23.1365
   -23.1219 -23.1185 -23.1185 -23.1130 -23.1003 -23.1003 -23.0932 -23.0764
   -23.0758 -23.0442 -23.0302 -23.0300 -22.9941 -22.9733 -22.9732 -22.8645
   -22.8449 -22.8308 -22.8307 -22.8183 -22.8183 -22.8100 -22.8001 -22.7931
    12.2320  15.1342  15.1342  15.3599  15.4968  15.4968  15.5583  15.5583
    15.5586  15.6148  15.6307  15.7249  16.1389  16.3472  16.3472  17.0605
    17.1939  17.3021  17.3021  17.3972  17.3972  17.4027  17.4403  17.4404
    17.4460  17.5481  17.5904  17.6554  17.8126  17.8449  18.0090  18.4678
    18.4679  18.8217  18.8714  18.8715  18.9006  18.9268  19.0909  19.1803
    19.4950  19.4951  19.5618  19.5619  19.5666  19.6967  19.8210  19.8511
    19.8511  19.9501  19.9502  20.0434  20.0435  20.1591  20.5054  20.5056
    20.7996  20.9266  20.9678  20.9678  21.0077  21.0422  21.0422  21.0492
    21.0550  21.2569  21.3635  21.3710  21.3711  21.4106

          k = 0.0557 0.1671 0.2786 ( 12440 PWs)   bands (ev):

   -52.0269 -51.9299 -51.8938 -51.8623 -51.8588 -51.8430 -51.8363 -51.8337
   -51.8295 -51.8283 -51.8231 -51.8190 -51.8179 -51.8063 -51.7779 -51.7016
   -23.7148 -23.6980 -23.6970 -23.6882 -23.6762 -23.6465 -23.5022 -23.5014
   -23.4851 -23.4797 -23.4793 -23.4686 -23.4331 -23.4180 -23.3711 -23.3522
   -23.2809 -23.2538 -23.2112 -23.2050 -23.1924 -23.1909 -23.1563 -23.1424
   -23.1384 -23.1276 -23.1192 -23.0983 -23.0974 -23.0790 -23.0640 -23.0505
   -23.0334 -23.0220 -22.9985 -22.9779 -22.9529 -22.9251 -22.9244 -22.9148
   -22.8778 -22.8512 -22.8505 -22.8439 -22.8302 -22.8279 -22.8048 -22.7993
    12.4976  14.5342  15.2299  15.3656  15.5726  15.6804  15.7103  15.7141
    15.7491  15.7678  15.7838  15.7913  16.1773  16.3497  16.4215  16.9069
    16.9278  17.0348  17.3203  17.3569  17.3829  17.3921  17.4325  17.5175
    17.5436  17.5863  17.6327  17.7824  17.9175  17.9968  18.0596  18.3337
[...]
    20.7296  20.7297  20.7373  20.7376  20.8326  20.8329  21.0029  21.0032
    21.0257  21.0262  21.1760  21.1765  21.2177  21.2180

          k = 0.1671-0.5014-0.5014 ( 12416 PWs)   bands (ev):

   -51.9415 -51.9409 -51.9407 -51.9404 -51.8604 -51.8597 -51.8596 -51.8593
   -51.8118 -51.8112 -51.8110 -51.8107 -51.7609 -51.7603 -51.7602 -51.7599
   -23.5931 -23.5931 -23.5930 -23.5930 -23.5783 -23.5780 -23.5779 -23.5777
   -23.5488 -23.5486 -23.5485 -23.5483 -23.3238 -23.3233 -23.3231 -23.3229
   -23.3046 -23.3046 -23.3044 -23.3043 -23.2977 -23.2977 -23.2976 -23.2976
   -23.0924 -23.0924 -23.0923 -23.0921 -23.0870 -23.0870 -23.0869 -23.0868
   -22.9395 -22.9389 -22.9388 -22.9385 -22.9052 -22.9051 -22.9050 -22.9048
   -22.8891 -22.8889 -22.8888 -22.8886 -22.8084 -22.8084 -22.8082 -22.8082
    14.3774  14.3774  14.3778  14.3778  16.2277  16.2278  16.2280  16.2281
    16.3959  16.3961  16.3963  16.3964  16.7571  16.7571  16.7573  16.7573
    17.0361  17.0363  17.0365  17.0367  17.3529  17.3530  17.3531  17.3532
    17.5154  17.5155  17.5156  17.5156  17.9616  17.9619  17.9619  17.9621
    18.0557  18.0557  18.0558  18.0558  18.1785  18.1787  18.1787  18.1787
    18.4353  18.4356  18.4356  18.4357  18.9723  18.9723  18.9724  18.9725
    20.6144  20.6147  20.6148  20.6149  20.7415  20.7418  20.7419  20.7420
    20.8811  20.8814  20.8816  20.8818  20.8838  20.8839  20.8840  20.8842
    20.9136  20.9136  20.9137  20.9139  21.1551  21.1556

          k = 0.2786 0.2786 0.2786 ( 12407 PWs)   bands (ev):

   -51.9985 -51.9140 -51.9136 -51.9136 -51.8679 -51.8676 -51.8676 -51.8402
   -51.8119 -51.8072 -51.8069 -51.8069 -51.7841 -51.7838 -51.7838 -51.7206
   -23.6610 -23.6610 -23.6608 -23.5813 -23.5813 -23.5813 -23.5515 -23.5468
   -23.5466 -23.5466 -23.4737 -23.4737 -23.4360 -23.4360 -23.3498 -23.3498
   -23.3496 -23.2940 -23.2940 -23.2939 -23.2429 -23.2301 -23.2300 -23.2300
   -23.0642 -23.0546 -23.0546 -23.0546 -23.0523 -23.0523 -23.0511 -23.0511
   -23.0510 -22.9909 -22.9909 -22.9907 -22.9324 -22.9036 -22.9036 -22.9036
   -22.8636 -22.8634 -22.8634 -22.8385 -22.8385 -22.8383 -22.8241 -22.8241
    13.1285  14.9457  14.9457  14.9458  15.6403  15.6403  15.6403  16.1125
    16.1125  16.1732  16.1732  16.1732  16.6905  16.6905  16.6906  16.8364
    16.9885  16.9885  16.9885  17.2856  17.3250  17.3250  17.5266  17.5266
    17.5267  17.7590  17.7590  17.7590  17.7808  17.7808  18.1265  18.1265
    18.1266  18.3460  18.3462  18.3462  18.4658  18.4658  18.4658  18.5381
    18.5381  18.7185  18.7185  18.7185  18.8359  18.8359  18.8361  19.9649
    20.1311  20.2600  20.2600  20.2601  20.5292  20.5292  20.5294  20.7173
    20.7173  20.7173  20.9222  20.9222  20.9865  20.9865  20.9865  21.1300
    21.1300  21.1302  21.3138  21.3138  21.3145  21.3198

          k = 0.2786 0.2786 0.3900 ( 12419 PWs)   bands (ev):

   -51.9827 -51.9394 -51.9050 -51.9048 -51.8813 -51.8811 -51.8622 -51.8479
   -51.8095 -51.8072 -51.7990 -51.7988 -51.7875 -51.7873 -51.7633 -51.7314
   -23.6365 -23.6364 -23.6201 -23.5737 -23.5725 -23.5724 -23.5588 -23.5449
   -23.5272 -23.5272 -23.5062 -23.5058 -23.4411 -23.4062 -23.4061 -23.3885
   -23.3495 -23.2996 -23.2995 -23.2812 -23.2786 -23.2628 -23.2628 -23.1946
   -23.1310 -23.0979 -23.0632 -23.0619 -23.0307 -23.0307 -23.0072 -23.0071
   -22.9994 -22.9993 -22.9852 -22.9383 -22.9326 -22.9326 -22.9145 -22.9001
   -22.8766 -22.8537 -22.8523 -22.8522 -22.8419 -22.8391 -22.8390 -22.8217
    13.4837  14.4250  15.1614  15.1614  15.5342  15.5342  15.9805  16.2740
    16.3200  16.3523  16.3524  16.4328  16.6761  16.6783  16.6784  16.7223
    16.8280  16.8502  17.1843  17.1843  17.3493  17.4627  17.5741  17.5976
    17.6015  17.6395  17.6396  17.8468  17.8468  17.9604  17.9604  17.9669
    18.1519  18.1519  18.2252  18.2253  18.2559  18.2987  18.3199  18.3273
    18.4042  18.4207  18.4207  18.4600  18.5335  18.5335  19.0117  19.6935
    20.2447  20.4280  20.4783  20.4784  20.5953  20.5954  20.6503  20.6503
    20.7816  20.8380  20.8541  20.8839  20.8839  20.9019  21.0500  21.0521
    21.2311  21.2325  21.3186  21.3187  21.3207  21.3249

          k = 0.2786 0.2786-0.5014 ( 12410 PWs)   bands (ev):

   -51.9630 -51.9624 -51.8945 -51.8939 -51.8935 -51.8934 -51.8557 -51.8551
   -51.8083 -51.8077 -51.7930 -51.7925 -51.7921 -51.7920 -51.7460 -51.7454
   -23.6049 -23.6049 -23.6048 -23.6047 -23.5681 -23.5675 -23.5661 -23.5657
   -23.5307 -23.5305 -23.4674 -23.4672 -23.4670 -23.4669 -23.3995 -23.3989
   -23.3359 -23.3356 -23.2878 -23.2877 -23.2874 -23.2874 -23.2042 -23.2042
   -23.1461 -23.1459 -23.0661 -23.0657 -23.0124 -23.0124 -23.0120 -23.0120
   -22.9676 -22.9675 -22.9671 -22.9670 -22.9263 -22.9257 -22.9036 -22.9033
   -22.8925 -22.8919 -22.8438 -22.8437 -22.8437 -22.8435 -22.8279 -22.8279
    13.9252  13.9257  15.3716  15.3716  15.3719  15.3719  16.3956  16.3960
    16.4800  16.4804  16.5294  16.5297  16.5318  16.5319  16.5320  16.5321
    16.6894  16.6897  17.3989  17.3994  17.5067  17.5069  17.5403  17.5405
    17.5408  17.5409  17.7917  17.7918  17.7921  17.7921  17.9375  17.9377
    18.1553  18.1556  18.2393  18.2396  18.2397  18.2398  18.2717  18.2718
    18.2720  18.2720  18.3196  18.3197  18.3653  18.3657  19.3066  19.3068
    20.5450  20.5451  20.6105  20.6108  20.6170  20.6171  20.6171  20.6171
    20.6992  20.6993  20.6995  20.6996  21.0804  21.0808  21.1375  21.1380
    21.1991  21.1995  21.1998  21.2003  21.3248  21.3253

          k = 0.2786 0.3900 0.3900 ( 12418 PWs)   bands (ev):

   -51.9681 -51.9285 -51.9282 -51.8986 -51.8965 -51.8747 -51.8745 -51.8574
   -51.8053 -51.8003 -51.8001 -51.7904 -51.7869 -51.7692 -51.7690 -51.7409
   -23.6175 -23.5995 -23.5995 -23.5710 -23.5638 -23.5636 -23.5503 -23.5328
   -23.5328 -23.5180 -23.5122 -23.4684 -23.4443 -23.4366 -23.4030 -23.3542
   -23.3541 -23.3389 -23.3387 -23.3273 -23.3156 -23.3155 -23.3044 -23.1963
   -23.1450 -23.0506 -23.0505 -23.0378 -23.0341 -23.0340 -23.0052 -22.9952
   -22.9716 -22.9672 -22.9607 -22.9479 -22.9478 -22.9175 -22.9174 -22.9081
   -22.8730 -22.8730 -22.8694 -22.8589 -22.8382 -22.8380 -22.8352 -22.8275
    13.8223  14.6970  14.6970  15.2916  15.4172  15.8708  15.8708  16.4145
    16.4944  16.5316  16.6168  16.6168  16.6555  16.6693  16.6693  16.9039
    16.9165  16.9964  16.9965  17.1179  17.4294  17.5329  17.5331  17.5625
    17.5625  17.6273  17.6273  17.7285  17.7320  17.8242  17.8810  18.0521
    18.0532  18.0533  18.0629  18.0630  18.0759  18.0759  18.0864  18.2048
    18.2049  18.2572  18.2624  18.2846  18.3499  18.6409  18.6410  19.2613
    20.5592  20.6094  20.6095  20.6353  20.6733  20.7617  20.8300  20.8394
    20.8395  20.8707  20.8707  20.8880  20.9633  20.9634  21.0319  21.1670
    21.1981  21.1982  21.2015  21.2318  21.3040  21.3150

          k = 0.2786 0.3900-0.5014 ( 12402 PWs)   bands (ev):

   -51.9500 -51.9494 -51.9148 -51.9142 -51.8866 -51.8860 -51.8668 -51.8662
   -51.8025 -51.8019 -51.7949 -51.7943 -51.7772 -51.7766 -51.7538 -51.7532
   -23.5908 -23.5907 -23.5805 -23.5803 -23.5549 -23.5543 -23.5436 -23.5435
   -23.5410 -23.5406 -23.4883 -23.4880 -23.4041 -23.4039 -23.4018 -23.4013
   -23.3671 -23.3669 -23.3370 -23.3366 -23.3335 -23.3333 -23.2673 -23.2673
   -23.0968 -23.0966 -23.0354 -23.0352 -23.0159 -23.0157 -23.0067 -23.0066
   -22.9674 -22.9669 -22.9414 -22.9412 -22.9157 -22.9152 -22.9091 -22.9088
   -22.9039 -22.9033 -22.8665 -22.8664 -22.8351 -22.8351 -22.8302 -22.8302
    14.2374  14.2378  15.0009  15.0013  15.6748  15.6751  16.2694  16.2698
    16.5551  16.5555  16.6027  16.6030  16.7763  16.7767  16.8065  16.8066
    16.8631  16.8634  17.3543  17.3547  17.3799  17.3803  17.4786  17.4787
    17.4877  17.4880  17.6906  17.6909  17.7575  17.7576  17.8707  17.8709
    17.9604  17.9606  17.9783  17.9786  18.0938  18.0939  18.1412  18.1413
    18.1836  18.1838  18.2610  18.2612  18.3251  18.3251  18.8937  18.8938
    20.7413  20.7416  20.7519  20.7520  20.7833  20.7836  20.8088  20.8092
    20.8402  20.8403  20.8951  20.8952  21.0640  21.0644  21.0662  21.0665
    21.1407  21.1410  21.1440  21.1444  21.2335  21.2340

          k = 0.2786-0.5014-0.5014 ( 12412 PWs)   bands (ev):

   -51.9340 -51.9334 -51.9332 -51.9329 -51.8776 -51.8770 -51.8768 -51.8765
   -51.7984 -51.7978 -51.7977 -51.7974 -51.7645 -51.7639 -51.7638 -51.7635
   -23.5678 -23.5678 -23.5677 -23.5677 -23.5596 -23.5592 -23.5591 -23.5589
   -23.5140 -23.5138 -23.5137 -23.5135 -23.3776 -23.3771 -23.3770 -23.3768
   -23.3654 -23.3654 -23.3653 -23.3652 -23.3359 -23.3359 -23.3358 -23.3356
   -23.0501 -23.0500 -23.0500 -23.0497 -23.0216 -23.0215 -23.0214 -23.0214
   -22.9305 -22.9299 -22.9298 -22.9295 -22.9216 -22.9215 -22.9214 -22.9212
   -22.8931 -22.8928 -22.8927 -22.8925 -22.8314 -22.8314 -22.8313 -22.8312
    14.6089  14.6090  14.6094  14.6094  16.0040  16.0040  16.0043  16.0044
    16.6011  16.6013  16.6015  16.6016  16.9963  16.9963  16.9965  16.9965
    17.0751  17.0753  17.0755  17.0756  17.3026  17.3028  17.3029  17.3031
    17.5926  17.5926  17.5927  17.5928  17.7814  17.7817  17.7818  17.7820
    17.9706  17.9706  17.9707  17.9707  17.9840  17.9840  17.9841  17.9841
    18.1964  18.1966  18.1967  18.1968  18.5493  18.5493  18.5493  18.5495
    20.8209  20.8212  20.8213  20.8215  20.9398  20.9401  20.9402  20.9404
    20.9469  20.9471  20.9472  20.9473  20.9981  20.9982  20.9983  20.9985
    21.1361  21.1365  21.1367  21.1369  21.2609  21.2610

          k = 0.3900 0.3900 0.3900 ( 12406 PWs)   bands (ev):

   -51.9547 -51.9183 -51.9180 -51.9180 -51.8907 -51.8904 -51.8904 -51.8694
   -51.7986 -51.7898 -51.7895 -51.7895 -51.7742 -51.7740 -51.7739 -51.7492
   -23.5783 -23.5783 -23.5782 -23.5534 -23.5532 -23.5532 -23.5301 -23.4860
   -23.4860 -23.4860 -23.4833 -23.4833 -23.4695 -23.4695 -23.3864 -23.3864
   -23.3862 -23.3842 -23.3842 -23.3840 -23.3615 -23.3614 -23.3614 -23.2553
   -23.0965 -23.0093 -23.0093 -23.0092 -22.9915 -22.9914 -22.9914 -22.9742
   -22.9742 -22.9491 -22.9491 -22.9489 -22.9420 -22.9420 -22.9420 -22.9119
   -22.8714 -22.8714 -22.8713 -22.8590 -22.8590 -22.8534 -22.8532 -22.8532
    14.1536  14.9909  14.9909  14.9909  15.6309  15.6309  15.6309  16.4237
    16.6466  16.6466  16.7773  16.7773  16.7774  16.9497  16.9497  16.9497
    16.9879  16.9879  16.9879  17.0900  17.4877  17.4877  17.5978  17.5978
    17.6508  17.6508  17.6509  17.6991  17.6991  17.6992  17.7730  17.7730
    17.7731  17.9406  17.9407  17.9407  17.9423  17.9423  17.9424  18.0006
    18.0007  18.0007  18.1675  18.1675  18.2778  18.2778  18.2779  18.8282
    20.7459  20.7459  20.7460  20.9054  20.9384  20.9385  20.9385  20.9551
    20.9551  20.9730  20.9730  20.9731  21.0102  21.0102  21.0103  21.1943
    21.1943  21.2268  21.2269  21.2270  21.2481  21.2481

          k = 0.3900 0.3900-0.5014 ( 12422 PWs)   bands (ev):

   -51.9380 -51.9374 -51.9059 -51.9053 -51.9050 -51.9048 -51.8809 -51.8803
   -51.7937 -51.7931 -51.7815 -51.7809 -51.7806 -51.7805 -51.7605 -51.7600
   -23.5586 -23.5585 -23.5584 -23.5583 -23.5289 -23.5283 -23.5232 -23.5231
   -23.5076 -23.5073 -23.4392 -23.4386 -23.4353 -23.4351 -23.4348 -23.4347
   -23.4183 -23.4181 -23.3896 -23.3895 -23.3893 -23.3893 -23.3197 -23.3196
   -23.0511 -23.0509 -22.9846 -22.9844 -22.9730 -22.9728 -22.9725 -22.9724
   -22.9624 -22.9623 -22.9621 -22.9620 -22.9233 -22.9231 -22.9183 -22.9177
   -22.9004 -22.8998 -22.8657 -22.8656 -22.8656 -22.8655 -22.8534 -22.8533
    14.5552  14.5556  15.3209  15.3209  15.3213  15.3213  16.0324  16.0328
    16.7888  16.7892  16.8731  16.8735  16.8982  16.8983  16.8985  16.8985
    17.0713  17.0716  17.3285  17.3287  17.3290  17.3291  17.5208  17.5209
    17.5649  17.5653  17.6550  17.6553  17.6625  17.6627  17.7804  17.7805
    17.7808  17.7808  17.9197  17.9200  17.9202  17.9203  17.9781  17.9783
    17.9785  17.9785  18.0427  18.0429  18.0580  18.0584  18.4734  18.4735
    20.8569  20.8572  20.8862  20.8863  20.8866  20.8866  21.0183  21.0183
    21.0184  21.0184  21.0792  21.0796  21.1008  21.1013  21.1643  21.1646
    21.2145  21.2150  21.2171  21.2171  21.2176  21.2176

          k = 0.3900-0.5014-0.5014 ( 12436 PWs)   bands (ev):

   -51.9233 -51.9226 -51.9225 -51.9222 -51.8944 -51.8937 -51.8936 -51.8933
   -51.7870 -51.7863 -51.7862 -51.7859 -51.7700 -51.7694 -51.7692 -51.7689
   -23.5311 -23.5311 -23.5310 -23.5310 -23.5275 -23.5272 -23.5271 -23.5268
   -23.4711 -23.4709 -23.4708 -23.4706 -23.4331 -23.4327 -23.4326 -23.4324
   -23.4280 -23.4280 -23.4279 -23.4279 -23.3773 -23.3773 -23.3772 -23.3770
   -23.0095 -23.0094 -23.0094 -23.0092 -22.9617 -22.9617 -22.9616 -22.9616
   -22.9448 -22.9447 -22.9446 -22.9444 -22.9197 -22.9193 -22.9192 -22.9189
   -22.9002 -22.8998 -22.8998 -22.8995 -22.8652 -22.8652 -22.8651 -22.8651
    14.9313  14.9313  14.9317  14.9318  15.6882  15.6882  15.6886  15.6886
    16.8820  16.8821  16.8824  16.8825  17.1275  17.1276  17.1279  17.1280
    17.2450  17.2451  17.2453  17.2454  17.2469  17.2471  17.2473  17.2474
    17.6845  17.6845  17.6846  17.6846  17.7094  17.7095  17.7095  17.7096
    17.7153  17.7156  17.7156  17.7158  17.8902  17.8902  17.8903  17.8903
    17.9618  17.9621  17.9621  17.9622  18.1304  18.1304  18.1304  18.1305
    20.9297  20.9300  20.9301  20.9303  21.0026  21.0030  21.0031  21.0033
    21.1047  21.1051  21.1052  21.1055  21.1858  21.1859  21.1859  21.1861
    21.1971  21.1975  21.1976  21.1979  21.2325  21.2326

          k =-0.5014-0.5014-0.5014 ( 12400 PWs)   bands (ev):

   -51.9106 -51.9093 -51.9093 -51.9092 -51.9091 -51.9090 -51.9090 -51.9085
   -51.7781 -51.7769 -51.7769 -51.7768 -51.7767 -51.7766 -51.7766 -51.7762
   -23.4844 -23.4844 -23.4844 -23.4838 -23.4837 -23.4836 -23.4836 -23.4836
   -23.4836 -23.4835 -23.4835 -23.4834 -23.4834 -23.4831 -23.4831 -23.4831
   -23.4242 -23.4242 -23.4242 -23.4237 -23.4237 -23.4236 -23.4236 -23.4236
   -22.9742 -22.9742 -22.9742 -22.9737 -22.9737 -22.9735 -22.9735 -22.9735
   -22.9099 -22.9099 -22.9099 -22.9092 -22.9092 -22.9091 -22.9091 -22.9091
   -22.9091 -22.9090 -22.9090 -22.9089 -22.9089 -22.9086 -22.9086 -22.9086
    15.3091  15.3091  15.3092  15.3092  15.3096  15.3096  15.3096  15.3096
    17.1867  17.1867  17.1871  17.1871  17.1871  17.1871  17.1871  17.1871
    17.1873  17.1874  17.1874  17.1874  17.1874  17.1874  17.1875  17.1875
    17.7680  17.7680  17.7680  17.7684  17.7684  17.7685  17.7685  17.7685
    17.7860  17.7860  17.7860  17.7865  17.7865  17.7865  17.7865  17.7865
    17.7867  17.7867  17.7867  17.7867  17.7868  17.7870  17.7870  17.7870
    21.0591  21.0591  21.0598  21.0598  21.0599  21.0599  21.0599  21.0599
    21.0601  21.0601  21.0601  21.0601  21.0602  21.0602  21.0605  21.0605
    21.4427  21.4429  21.4431  21.4433  21.4433  21.4434

     the Fermi energy is    19.8245 ev

!    total energy              =   -3971.53895429 Ry
     Harris-Foulkes estimate   =   -3971.53895393 Ry
     estimated scf accuracy    <       0.00000086 Ry

     total all-electron energy =    -33628.061834 Ry

     The total energy is the sum of the following terms:

     one-electron contribution =    -871.95723023 Ry
     hartree contribution      =     575.63216726 Ry
     xc contribution           =    -356.73298169 Ry
     ewald contribution        =   -2130.51463565 Ry
     one-center paw contrib.   =   -1187.98419515 Ry
     smearing contrib. (-TS)   =       0.01792117 Ry

     total magnetization       =     0.00 Bohr mag/cell
     absolute magnetization    =     0.03 Bohr mag/cell

     convergence has been achieved in  27 iterations

     Forces acting on atoms (cartesian axes, Ry/au):

     atom    1 type  1   force =     0.00000000    0.00000000    0.00000000
     atom    2 type  2   force =     0.00000735    0.00000735    0.00000735
     atom    3 type  1   force =     0.00000000    0.00000000    0.00000000
     atom    4 type  2   force =     0.00000735    0.00000735   -0.00000735
     atom    5 type  1   force =     0.00000000    0.00000000    0.00000000
     atom    6 type  2   force =     0.00000735   -0.00000735    0.00000735
     atom    7 type  1   force =     0.00000000    0.00000000    0.00000000
     atom    8 type  2   force =     0.00000735   -0.00000735   -0.00000735
     atom    9 type  1   force =     0.00000000    0.00000000   -0.00000000
     atom   10 type  2   force =    -0.00000735    0.00000735    0.00000735
     atom   11 type  1   force =     0.00000000    0.00000000    0.00000000
     atom   12 type  2   force =    -0.00000735    0.00000735   -0.00000735
     atom   13 type  1   force =     0.00000000    0.00000000   -0.00000000
     atom   14 type  2   force =    -0.00000735   -0.00000735    0.00000735
     atom   15 type  1   force =     0.00000000    0.00000000    0.00000000
     atom   16 type  2   force =    -0.00000735   -0.00000735   -0.00000735

     Total force =     0.000036     Total SCF correction =     0.001071
     SCF correction compared to forces is large: reduce conv_thr to get better values


     Computing stress (Cartesian axis) and pressure

          total   stress  (Ry/bohr**3)                   (kbar)     P=   26.17
   0.00017793   0.00000000   0.00000000         26.17      0.00      0.00
   0.00000000   0.00017793   0.00000000          0.00     26.17      0.00
   0.00000000   0.00000000   0.00017793          0.00      0.00     26.17


     Writing output data file YeMLkEVGjEeKkNwJ.save/
 
     init_run     :      9.44s CPU      9.80s WALL (       1 calls)
     electrons    :    839.49s CPU    860.30s WALL (       1 calls)
     forces       :      3.18s CPU      3.35s WALL (       1 calls)
     stress       :     12.05s CPU     12.12s WALL (       1 calls)

     Called by init_run:
     wfcinit      :      8.73s CPU      9.04s WALL (       1 calls)
     potinit      :      0.34s CPU      0.36s WALL (       1 calls)
     hinit0       :      0.14s CPU      0.15s WALL (       1 calls)

     Called by electrons:
     c_bands      :    750.57s CPU    767.32s WALL (      28 calls)
     sum_band     :     78.00s CPU     81.32s WALL (      28 calls)
     v_of_rho     :      0.85s CPU      0.89s WALL (      28 calls)
     newd         :      1.90s CPU      2.26s WALL (      28 calls)
     PAW_pot      :      8.08s CPU      8.37s WALL (      28 calls)
     mix_rho      :      0.29s CPU      0.31s WALL (      28 calls)

     Called by c_bands:
     init_us_2    :      5.10s CPU      5.17s WALL (    4130 calls)
     cegterg      :    720.42s CPU    736.88s WALL (    1960 calls)

     Called by sum_band:
     sum_band:bec :      0.85s CPU      0.86s WALL (    1960 calls)
     addusdens    :      3.47s CPU      3.93s WALL (      28 calls)

     Called by *egterg:
     h_psi        :    314.28s CPU    325.86s WALL (    7666 calls)
     s_psi        :     30.30s CPU     30.43s WALL (    7666 calls)
     g_psi        :      1.67s CPU      1.68s WALL (    5636 calls)
     cdiaghg      :    281.98s CPU    282.79s WALL (    7526 calls)

     Called by h_psi:
     h_psi:pot    :    312.44s CPU    323.99s WALL (    7666 calls)
     h_psi:calbec :     33.10s CPU     35.73s WALL (    7666 calls)
     vloc_psi     :    249.52s CPU    258.32s WALL (    7666 calls)
     add_vuspsi   :     29.75s CPU     29.89s WALL (    7666 calls)

     General routines
     calbec       :     49.15s CPU     53.06s WALL (    9976 calls)
     fft          :      0.69s CPU      0.74s WALL (     742 calls)
     ffts         :      0.06s CPU      0.07s WALL (     112 calls)
     fftw         :    283.50s CPU    293.23s WALL ( 1506584 calls)
     interpolate  :      0.09s CPU      0.09s WALL (      56 calls)
 
     Parallel routines
     fft_scatt_xy :     23.25s CPU     24.03s WALL ( 1507438 calls)
     fft_scatt_yz :    139.01s CPU    144.23s WALL ( 1507438 calls)
 
     PWSCF        : 14m28.71s CPU    14m59.31s WALL

 
   This run was terminated on:   5:56:58  15Jun2020            

=------------------------------------------------------------------------------=
   JOB DONE.
=------------------------------------------------------------------------------=
