
     Program PWSCF v.6.3 starts on 15Jun2020 at  5:27:37 

     This program is part of the open-source Quantum ESPRESSO suite
     for quantum simulation of materials; please cite
         "P. Giannozzi et al., J. Phys.:Condens. Matter 21 395502 (2009);
         "P. Giannozzi et al., J. Phys.:Condens. Matter 29 465901 (2017);
          URL http://www.quantum-espresso.org", 
     in publications or presentations arising from this work. More details at
     http://www.quantum-espresso.org/quote

     Parallel version (MPI & OpenMP), running on      20 processor cores
     Number of MPI processes:                20
     Threads/MPI process:                     1

     MPI processes distributed on     1 nodes
     R & G space division:  proc/nbgrp/npool/nimage =      20
     Reading input from wd/eos/eos_006.in
Warning: card &IONS ignored
Warning: card ION_DYNAMICS = 'BFGS', ignored
Warning: card / ignored
Warning: card &CELL ignored
Warning: card CELL_DYNAMICS = 'BFGS', ignored
Warning: card CELL_FACTOR = 2.0, ignored
Warning: card PRESS = 0.0, ignored
Warning: card / ignored

     Current dimensions of program PWSCF are:
     Max number of different atomic species (ntypx) = 10
     Max number of k-points (npk) =  40000
     Max angular momentum in pseudopotentials (lmaxx) =  3
     Message from routine read_upf::
     Pseudo file /rds/homes/b/bxp912/pp/Cr.pbe-spn-kjpaw_psl.1.0.0.UPF has been successfully fixed on the fly.
To avoid this message in the future you can permanently fix 
 your pseudo files following instructions given in: 
https://gitlab.com/QEF/q-e/blob/master/upftools/how_to_fix_upf.md
               file Cr.pbe-spn-kjpaw_psl.1.0.0.UPF: wavefunction(s)  3S 3P 3D renormalized
     Message from routine read_upf::
     Pseudo file /rds/homes/b/bxp912/pp/Cr.pbe-spn-kjpaw_psl.1.0.0.UPF has been successfully fixed on the fly.
To avoid this message in the future you can permanently fix 
 your pseudo files following instructions given in: 
https://gitlab.com/QEF/q-e/blob/master/upftools/how_to_fix_upf.md
               file Cr.pbe-spn-kjpaw_psl.1.0.0.UPF: wavefunction(s)  3S 3P 3D renormalized

     Subspace diagonalization in iterative solution of the eigenvalue problem:
     a serial algorithm will be used

     Found symmetry operation: I + (  0.0000  0.0000  0.5000)
     This is a supercell, fractional translations are disabled
 
     Parallelization info
     --------------------
     sticks:   dense  smooth     PW     G-vecs:    dense   smooth      PW
     Min         195     129     36                 9185     4919     738
     Max         196     131     37                 9188     4923     741
     Sum        3909    2585    725               183731    98385   14771
 


     bravais-lattice index     =            0
     lattice parameter (alat)  =      10.7442  a.u.
     unit-cell volume          =    1219.1462 (a.u.)^3
     number of atoms/cell      =           16
     number of atomic types    =            2
     number of electrons       =       224.00
     number of Kohn-Sham states=          134
     kinetic-energy cutoff     =      71.0000  Ry
     charge density cutoff     =     430.0000  Ry
     convergence threshold     =      1.0E-06
     mixing beta               =       0.1000
     number of iterations used =           10  plain     mixing
     Exchange-correlation      = SLA PW PBX PBC ( 1  4  3  4 0 0)

     celldm(1)=  10.744199  celldm(2)=   0.000000  celldm(3)=   0.000000
     celldm(4)=   0.000000  celldm(5)=   0.000000  celldm(6)=   0.000000

     crystal axes: (cart. coord. in units of alat)
               a(1) = (   0.994286   0.000000   0.000000 )  
               a(2) = (   0.000000   0.994286   0.000000 )  
               a(3) = (   0.000000   0.000000   0.994286 )  

     reciprocal axes: (cart. coord. in units 2 pi/alat)
               b(1) = (  1.005747  0.000000  0.000000 )  
               b(2) = (  0.000000  1.005747  0.000000 )  
               b(3) = (  0.000000  0.000000  1.005747 )  


     PseudoPot. # 1 for Cr read from file:
     /rds/homes/b/bxp912/pp/Cr.pbe-spn-kjpaw_psl.1.0.0.UPF
     MD5 check sum: cb1c17117da000fe5e03c4f1a6841d9c
     Pseudo is Projector augmented-wave + core cor, Zval = 14.0
     Generated using "atomic" code by A. Dal Corso v.5.1
     Shape of augmentation charge: PSQ
     Using radial grid of 1183 points,  6 beta functions with: 
                l(1) =   0
                l(2) =   0
                l(3) =   1
                l(4) =   1
                l(5) =   2
                l(6) =   2
     Q(r) pseudized with 0 coefficients 


     PseudoPot. # 2 for Cr read from file:
     /rds/homes/b/bxp912/pp/Cr.pbe-spn-kjpaw_psl.1.0.0.UPF
     MD5 check sum: cb1c17117da000fe5e03c4f1a6841d9c
     Pseudo is Projector augmented-wave + core cor, Zval = 14.0
     Generated using "atomic" code by A. Dal Corso v.5.1
     Shape of augmentation charge: PSQ
     Using radial grid of 1183 points,  6 beta functions with: 
                l(1) =   0
                l(2) =   0
                l(3) =   1
                l(4) =   1
                l(5) =   2
                l(6) =   2
     Q(r) pseudized with 0 coefficients 


     atomic species   valence    mass     pseudopotential
        Cr1           14.00    55.84500     Cr( 1.00)
        Cr2           14.00    55.84500     Cr( 1.00)

     Starting magnetic structure 
     atomic species   magnetization
        Cr1          0.100
        Cr2          0.100

     48 Sym. Ops., with inversion, found



   Cartesian axes

     site n.     atom                  positions (alat units)
         1           Cr1 tau(   1) = (   0.0000000   0.0000000   0.0000000  )
         2           Cr2 tau(   2) = (   0.2485718   0.2485718   0.2485714  )
         3           Cr1 tau(   3) = (   0.0000000   0.0000000   0.4971419  )
         4           Cr2 tau(   4) = (   0.2485718   0.2485718   0.7457133  )
         5           Cr1 tau(   5) = (   0.0000000   0.4971428   0.0000000  )
         6           Cr2 tau(   6) = (   0.2485718   0.7457136   0.2485714  )
         7           Cr1 tau(   7) = (   0.0000000   0.4971428   0.4971419  )
         8           Cr2 tau(   8) = (   0.2485718   0.7457136   0.7457133  )
         9           Cr1 tau(   9) = (   0.4971428   0.0000000   0.0000000  )
        10           Cr2 tau(  10) = (   0.7457136   0.2485718   0.2485714  )
        11           Cr1 tau(  11) = (   0.4971428   0.0000000   0.4971419  )
        12           Cr2 tau(  12) = (   0.7457136   0.2485718   0.7457133  )
        13           Cr1 tau(  13) = (   0.4971428   0.4971428   0.0000000  )
        14           Cr2 tau(  14) = (   0.7457136   0.7457136   0.2485714  )
        15           Cr1 tau(  15) = (   0.4971428   0.4971428   0.4971419  )
        16           Cr2 tau(  16) = (   0.7457136   0.7457136   0.7457133  )

     number of k points=    35  Marzari-Vanderbilt smearing, width (Ry)=  0.0400
                       cart. coord. in units 2pi/alat
        k(    1) = (   0.0558748   0.0558748   0.0558748), wk =   0.0109739
        k(    2) = (   0.0558748   0.0558748   0.1676245), wk =   0.0329218
        k(    3) = (   0.0558748   0.0558748   0.2793742), wk =   0.0329218
        k(    4) = (   0.0558748   0.0558748   0.3911239), wk =   0.0329218
        k(    5) = (   0.0558748   0.0558748  -0.5028736), wk =   0.0164609
        k(    6) = (   0.0558748   0.1676245   0.1676245), wk =   0.0329218
        k(    7) = (   0.0558748   0.1676245   0.2793742), wk =   0.0658436
        k(    8) = (   0.0558748   0.1676245   0.3911239), wk =   0.0658436
        k(    9) = (   0.0558748   0.1676245  -0.5028736), wk =   0.0329218
        k(   10) = (   0.0558748   0.2793742   0.2793742), wk =   0.0329218
        k(   11) = (   0.0558748   0.2793742   0.3911239), wk =   0.0658436
        k(   12) = (   0.0558748   0.2793742  -0.5028736), wk =   0.0329218
        k(   13) = (   0.0558748   0.3911239   0.3911239), wk =   0.0329218
        k(   14) = (   0.0558748   0.3911239  -0.5028736), wk =   0.0329218
        k(   15) = (   0.0558748  -0.5028736  -0.5028736), wk =   0.0082305
        k(   16) = (   0.1676245   0.1676245   0.1676245), wk =   0.0109739
        k(   17) = (   0.1676245   0.1676245   0.2793742), wk =   0.0329218
        k(   18) = (   0.1676245   0.1676245   0.3911239), wk =   0.0329218
        k(   19) = (   0.1676245   0.1676245  -0.5028736), wk =   0.0164609
        k(   20) = (   0.1676245   0.2793742   0.2793742), wk =   0.0329218
        k(   21) = (   0.1676245   0.2793742   0.3911239), wk =   0.0658436
        k(   22) = (   0.1676245   0.2793742  -0.5028736), wk =   0.0329218
        k(   23) = (   0.1676245   0.3911239   0.3911239), wk =   0.0329218
        k(   24) = (   0.1676245   0.3911239  -0.5028736), wk =   0.0329218
        k(   25) = (   0.1676245  -0.5028736  -0.5028736), wk =   0.0082305
        k(   26) = (   0.2793742   0.2793742   0.2793742), wk =   0.0109739
        k(   27) = (   0.2793742   0.2793742   0.3911239), wk =   0.0329218
        k(   28) = (   0.2793742   0.2793742  -0.5028736), wk =   0.0164609
        k(   29) = (   0.2793742   0.3911239   0.3911239), wk =   0.0329218
        k(   30) = (   0.2793742   0.3911239  -0.5028736), wk =   0.0329218
        k(   31) = (   0.2793742  -0.5028736  -0.5028736), wk =   0.0082305
        k(   32) = (   0.3911239   0.3911239   0.3911239), wk =   0.0109739
        k(   33) = (   0.3911239   0.3911239  -0.5028736), wk =   0.0164609
        k(   34) = (   0.3911239  -0.5028736  -0.5028736), wk =   0.0082305
        k(   35) = (  -0.5028736  -0.5028736  -0.5028736), wk =   0.0013717

     Dense  grid:   183731 G-vectors     FFT dimensions: (  72,  72,  72)

     Smooth grid:    98385 G-vectors     FFT dimensions: (  60,  60,  60)

     Estimated max dynamical RAM per process >     140.67 MB

     Estimated total dynamical RAM >       2.75 GB
     Generating pointlists ...
     new r_m :   0.1776 (alat units)  1.9081 (a.u.) for type    1
     new r_m :   0.1776 (alat units)  1.9081 (a.u.) for type    2

     Check: negative/imaginary core charge=   -0.000009    0.000000

     Initial potential from superposition of free atoms

     starting charge  223.98764, renormalised to  224.00000
     Starting wfcs are  160 randomized atomic wfcs
     Checking if some PAW data can be deallocated... 

     total cpu time spent up to now is       11.6 secs

     Self-consistent Calculation

     iteration #  1     ecut=    71.00 Ry     beta= 0.10
     Davidson diagonalization with overlap
     ethr =  1.00E-02,  avg # of iterations =  3.1

     Threshold (ethr) on eigenvalues was too large:
     Diagonalizing with lowered threshold

     Davidson diagonalization with overlap
     ethr =  7.92E-04,  avg # of iterations =  3.5

     total cpu time spent up to now is       71.1 secs

     total energy              =   -3971.39132686 Ry
     Harris-Foulkes estimate   =   -3971.56823908 Ry
     estimated scf accuracy    <       1.93898000 Ry

     total magnetization       =     4.57 Bohr mag/cell
     absolute magnetization    =     4.76 Bohr mag/cell

     iteration #  2     ecut=    71.00 Ry     beta= 0.10
     Davidson diagonalization with overlap
     ethr =  8.66E-04,  avg # of iterations =  1.0

     total cpu time spent up to now is       91.4 secs

     total energy              =   -3971.09005081 Ry
     Harris-Foulkes estimate   =   -3971.41413945 Ry
     estimated scf accuracy    <       1.25645501 Ry

     total magnetization       =     4.44 Bohr mag/cell
     absolute magnetization    =     4.60 Bohr mag/cell

     iteration #  3     ecut=    71.00 Ry     beta= 0.10
     Davidson diagonalization with overlap
     ethr =  5.61E-04,  avg # of iterations =  3.1

     total cpu time spent up to now is      126.2 secs

     total energy              =   -3971.37917929 Ry
     Harris-Foulkes estimate   =   -3971.43291982 Ry
     estimated scf accuracy    <       0.29306374 Ry

     total magnetization       =     3.64 Bohr mag/cell
     absolute magnetization    =     3.77 Bohr mag/cell

     iteration #  4     ecut=    71.00 Ry     beta= 0.10
     Davidson diagonalization with overlap
     ethr =  1.31E-04,  avg # of iterations =  1.7

     total cpu time spent up to now is      152.4 secs

     total energy              =   -3971.41864359 Ry
     Harris-Foulkes estimate   =   -3971.39063316 Ry
     estimated scf accuracy    <       0.19086634 Ry

     total magnetization       =     3.53 Bohr mag/cell
     absolute magnetization    =     3.68 Bohr mag/cell

     iteration #  5     ecut=    71.00 Ry     beta= 0.10
     Davidson diagonalization with overlap
     ethr =  8.52E-05,  avg # of iterations =  2.9

     total cpu time spent up to now is      186.1 secs

     total energy              =   -3971.49213744 Ry
     Harris-Foulkes estimate   =   -3971.46013418 Ry
     estimated scf accuracy    <       0.16475633 Ry

     total magnetization       =     2.49 Bohr mag/cell
     absolute magnetization    =     2.69 Bohr mag/cell

     iteration #  6     ecut=    71.00 Ry     beta= 0.10
     Davidson diagonalization with overlap
     ethr =  7.36E-05,  avg # of iterations =  2.2

     total cpu time spent up to now is      218.2 secs

     total energy              =   -3971.53303252 Ry
     Harris-Foulkes estimate   =   -3971.53316006 Ry
     estimated scf accuracy    <       0.00753997 Ry

     total magnetization       =     0.26 Bohr mag/cell
     absolute magnetization    =     0.42 Bohr mag/cell

     iteration #  7     ecut=    71.00 Ry     beta= 0.10
     Davidson diagonalization with overlap
     c_bands:  1 eigenvalues not converged
     c_bands:  1 eigenvalues not converged
     ethr =  3.37E-06,  avg # of iterations =  6.4

     total cpu time spent up to now is      263.7 secs

     total energy              =   -3971.53181240 Ry
     Harris-Foulkes estimate   =   -3971.53436817 Ry
     estimated scf accuracy    <       0.00646421 Ry

     total magnetization       =     0.17 Bohr mag/cell
     absolute magnetization    =     0.45 Bohr mag/cell

     iteration #  8     ecut=    71.00 Ry     beta= 0.10
     Davidson diagonalization with overlap
     ethr =  2.89E-06,  avg # of iterations =  4.0

     total cpu time spent up to now is      310.2 secs

     total energy              =   -3971.53447099 Ry
     Harris-Foulkes estimate   =   -3971.53615170 Ry
     estimated scf accuracy    <       0.01050242 Ry

     total magnetization       =     0.11 Bohr mag/cell
     absolute magnetization    =     0.31 Bohr mag/cell

     iteration #  9     ecut=    71.00 Ry     beta= 0.10
     Davidson diagonalization with overlap
     ethr =  2.89E-06,  avg # of iterations =  2.0

     total cpu time spent up to now is      335.6 secs

     total energy              =   -3971.53454697 Ry
     Harris-Foulkes estimate   =   -3971.53506341 Ry
     estimated scf accuracy    <       0.00225915 Ry

     total magnetization       =     0.09 Bohr mag/cell
     absolute magnetization    =     0.16 Bohr mag/cell

     iteration # 10     ecut=    71.00 Ry     beta= 0.10
     Davidson diagonalization with overlap
     ethr =  1.01E-06,  avg # of iterations =  2.9

     total cpu time spent up to now is      366.1 secs

     total energy              =   -3971.53486752 Ry
     Harris-Foulkes estimate   =   -3971.53486362 Ry
     estimated scf accuracy    <       0.00011089 Ry

     total magnetization       =     0.04 Bohr mag/cell
     absolute magnetization    =     0.12 Bohr mag/cell

     iteration # 11     ecut=    71.00 Ry     beta= 0.10
     Davidson diagonalization with overlap
     ethr =  4.95E-08,  avg # of iterations =  5.7

     total cpu time spent up to now is      410.8 secs

     total energy              =   -3971.53491994 Ry
     Harris-Foulkes estimate   =   -3971.53489009 Ry
     estimated scf accuracy    <       0.00016519 Ry

     total magnetization       =     0.04 Bohr mag/cell
     absolute magnetization    =     0.12 Bohr mag/cell

     iteration # 12     ecut=    71.00 Ry     beta= 0.10
     Davidson diagonalization with overlap
     ethr =  4.95E-08,  avg # of iterations =  5.2

     total cpu time spent up to now is      454.5 secs

     total energy              =   -3971.53489479 Ry
     Harris-Foulkes estimate   =   -3971.53496816 Ry
     estimated scf accuracy    <       0.00152642 Ry

     total magnetization       =     0.02 Bohr mag/cell
     absolute magnetization    =     0.10 Bohr mag/cell

     iteration # 13     ecut=    71.00 Ry     beta= 0.10
     Davidson diagonalization with overlap
     ethr =  4.95E-08,  avg # of iterations =  3.8

     total cpu time spent up to now is      488.8 secs

     total energy              =   -3971.53502409 Ry
     Harris-Foulkes estimate   =   -3971.53492624 Ry
     estimated scf accuracy    <       0.00071572 Ry

     total magnetization       =     0.06 Bohr mag/cell
     absolute magnetization    =     0.13 Bohr mag/cell

     iteration # 14     ecut=    71.00 Ry     beta= 0.10
     Davidson diagonalization with overlap
     ethr =  4.95E-08,  avg # of iterations =  4.0

     total cpu time spent up to now is      522.7 secs

     total energy              =   -3971.53517132 Ry
     Harris-Foulkes estimate   =   -3971.53507038 Ry
     estimated scf accuracy    <       0.00200170 Ry

     total magnetization       =     0.01 Bohr mag/cell
     absolute magnetization    =     0.07 Bohr mag/cell

     iteration # 15     ecut=    71.00 Ry     beta= 0.10
     Davidson diagonalization with overlap
     ethr =  4.95E-08,  avg # of iterations =  4.3

     total cpu time spent up to now is      558.7 secs

     total energy              =   -3971.53520048 Ry
     Harris-Foulkes estimate   =   -3971.53519626 Ry
     estimated scf accuracy    <       0.00401017 Ry

     total magnetization       =     0.00 Bohr mag/cell
     absolute magnetization    =     0.03 Bohr mag/cell

     iteration # 16     ecut=    71.00 Ry     beta= 0.10
     Davidson diagonalization with overlap
     ethr =  4.95E-08,  avg # of iterations =  1.0

     total cpu time spent up to now is      578.9 secs

     total energy              =   -3971.53503447 Ry
     Harris-Foulkes estimate   =   -3971.53520197 Ry
     estimated scf accuracy    <       0.00407576 Ry

     total magnetization       =     0.00 Bohr mag/cell
     absolute magnetization    =     0.02 Bohr mag/cell

     iteration # 17     ecut=    71.00 Ry     beta= 0.10
     Davidson diagonalization with overlap
     ethr =  4.95E-08,  avg # of iterations =  4.0

     total cpu time spent up to now is      613.0 secs

     total energy              =   -3971.53507454 Ry
     Harris-Foulkes estimate   =   -3971.53507000 Ry
     estimated scf accuracy    <       0.00123563 Ry

     total magnetization       =     0.00 Bohr mag/cell
     absolute magnetization    =     0.02 Bohr mag/cell

     iteration # 18     ecut=    71.00 Ry     beta= 0.10
     Davidson diagonalization with overlap
     ethr =  4.95E-08,  avg # of iterations =  1.0

     total cpu time spent up to now is      633.1 secs

     total energy              =   -3971.53504275 Ry
     Harris-Foulkes estimate   =   -3971.53507530 Ry
     estimated scf accuracy    <       0.00124381 Ry

     total magnetization       =     0.00 Bohr mag/cell
     absolute magnetization    =     0.02 Bohr mag/cell

     iteration # 19     ecut=    71.00 Ry     beta= 0.10
     Davidson diagonalization with overlap
     ethr =  4.95E-08,  avg # of iterations =  1.1

     total cpu time spent up to now is      653.3 secs

     total energy              =   -3971.53505355 Ry
     Harris-Foulkes estimate   =   -3971.53504698 Ry
     estimated scf accuracy    <       0.00072815 Ry

     total magnetization       =     0.00 Bohr mag/cell
     absolute magnetization    =     0.02 Bohr mag/cell

     iteration # 20     ecut=    71.00 Ry     beta= 0.10
     Davidson diagonalization with overlap
     ethr =  4.95E-08,  avg # of iterations =  1.0

     total cpu time spent up to now is      673.4 secs

     total energy              =   -3971.53506661 Ry
     Harris-Foulkes estimate   =   -3971.53505415 Ry
     estimated scf accuracy    <       0.00081003 Ry

     total magnetization       =     0.00 Bohr mag/cell
     absolute magnetization    =     0.02 Bohr mag/cell

     iteration # 21     ecut=    71.00 Ry     beta= 0.10
     Davidson diagonalization with overlap
     ethr =  4.95E-08,  avg # of iterations =  1.0

     total cpu time spent up to now is      693.5 secs

     total energy              =   -3971.53496764 Ry
     Harris-Foulkes estimate   =   -3971.53506754 Ry
     estimated scf accuracy    <       0.00101049 Ry

     total magnetization       =     0.00 Bohr mag/cell
     absolute magnetization    =     0.02 Bohr mag/cell

     iteration # 22     ecut=    71.00 Ry     beta= 0.10
     Davidson diagonalization with overlap
     ethr =  4.95E-08,  avg # of iterations =  4.6

     total cpu time spent up to now is      733.2 secs

     total energy              =   -3971.53502647 Ry
     Harris-Foulkes estimate   =   -3971.53502790 Ry
     estimated scf accuracy    <       0.00003968 Ry

     total magnetization       =     0.00 Bohr mag/cell
     absolute magnetization    =     0.02 Bohr mag/cell

     iteration # 23     ecut=    71.00 Ry     beta= 0.10
     Davidson diagonalization with overlap
     ethr =  1.77E-08,  avg # of iterations =  1.1

     total cpu time spent up to now is      754.0 secs

     total energy              =   -3971.53502555 Ry
     Harris-Foulkes estimate   =   -3971.53502697 Ry
     estimated scf accuracy    <       0.00001528 Ry

     total magnetization       =     0.00 Bohr mag/cell
     absolute magnetization    =     0.02 Bohr mag/cell

     iteration # 24     ecut=    71.00 Ry     beta= 0.10
     Davidson diagonalization with overlap
     ethr =  6.82E-09,  avg # of iterations =  3.5

     total cpu time spent up to now is      784.1 secs

     total energy              =   -3971.53502754 Ry
     Harris-Foulkes estimate   =   -3971.53502742 Ry
     estimated scf accuracy    <       0.00000591 Ry

     total magnetization       =    -0.00 Bohr mag/cell
     absolute magnetization    =     0.02 Bohr mag/cell

     iteration # 25     ecut=    71.00 Ry     beta= 0.10
     Davidson diagonalization with overlap
     ethr =  2.64E-09,  avg # of iterations =  1.2

     total cpu time spent up to now is      804.8 secs

     total energy              =   -3971.53502772 Ry
     Harris-Foulkes estimate   =   -3971.53502770 Ry
     estimated scf accuracy    <       0.00000247 Ry

     total magnetization       =     0.00 Bohr mag/cell
     absolute magnetization    =     0.02 Bohr mag/cell

     iteration # 26     ecut=    71.00 Ry     beta= 0.10
     Davidson diagonalization with overlap
     ethr =  1.10E-09,  avg # of iterations =  3.7
 
     Magnetic moment per site:
     atom:    1    charge:   12.2040    magn:   -0.0011    constr:    0.0000
     atom:    2    charge:   12.2046    magn:    0.0013    constr:    0.0000
     atom:    3    charge:   12.2048    magn:   -0.0012    constr:    0.0000
     atom:    4    charge:   12.2046    magn:    0.0013    constr:    0.0000
     atom:    5    charge:   12.2048    magn:   -0.0012    constr:    0.0000
     atom:    6    charge:   12.2046    magn:    0.0013    constr:    0.0000
     atom:    7    charge:   12.2045    magn:   -0.0016    constr:    0.0000
     atom:    8    charge:   12.2046    magn:    0.0013    constr:    0.0000
     atom:    9    charge:   12.2048    magn:   -0.0012    constr:    0.0000
     atom:   10    charge:   12.2046    magn:    0.0013    constr:    0.0000
     atom:   11    charge:   12.2045    magn:   -0.0016    constr:    0.0000
     atom:   12    charge:   12.2046    magn:    0.0013    constr:    0.0000
     atom:   13    charge:   12.2045    magn:   -0.0016    constr:    0.0000
     atom:   14    charge:   12.2046    magn:    0.0013    constr:    0.0000
     atom:   15    charge:   12.2050    magn:   -0.0008    constr:    0.0000
     atom:   16    charge:   12.2046    magn:    0.0013    constr:    0.0000

     total cpu time spent up to now is      834.3 secs

     End of self-consistent calculation

 ------ SPIN UP ------------


          k = 0.0559 0.0559 0.0559 ( 12308 PWs)   bands (ev):

   -51.8562 -51.6662 -51.6661 -51.6661 -51.6329 -51.6328 -51.6327 -51.6322
   -51.6322 -51.6322 -51.6291 -51.6290 -51.6290 -51.6135 -51.6121 -51.4752
   -23.5686 -23.5686 -23.5686 -23.5640 -23.5640 -23.5640 -23.2603 -23.2603
   -23.2490 -23.1560 -23.1514 -23.1514 -23.1514 -23.1145 -23.1145 -23.0932
   -23.0932 -23.0931 -23.0286 -23.0286 -22.9862 -22.9402 -22.9402 -22.9401
   -22.9220 -22.9220 -22.9220 -22.8957 -22.8957 -22.8956 -22.8902 -22.8902
   -22.8901 -22.8805 -22.8805 -22.8805 -22.8636 -22.8636 -22.8636 -22.5945
   -22.5945 -22.5945 -22.5927 -22.5890 -22.5890 -22.5890 -22.5810 -22.5810
    12.1282  15.5083  15.5083  15.5083  15.5293  15.5293  15.5293  15.6169
    15.6169  15.8173  15.8173  15.8173  16.2435  16.2435  16.2435  17.4863
    17.5307  17.5307  17.5307  17.5470  17.5470  17.5470  17.5949  17.5949
    17.7722  17.7722  17.8355  17.9235  17.9235  17.9236  18.3944  18.3944
    18.3944  19.1171  19.1171  19.1742  19.4737  19.4737  19.4737  19.5942
    19.5942  19.5942  19.6988  19.6988  19.6988  19.8117  19.8117  19.8117
    20.7241  20.7241  20.7242  20.8057  20.8057  20.8058  21.0254  21.0254
    21.0254  21.0511  21.0512  21.0512  21.2378  21.2378  21.2378  21.2507
    21.2507  21.2987  21.2987  21.2987  21.6167  21.6168

          k = 0.0559 0.0559 0.1676 ( 12315 PWs)   bands (ev):

   -51.8495 -51.7000 -51.6645 -51.6645 -51.6363 -51.6362 -51.6321 -51.6320
   -51.6312 -51.6280 -51.6274 -51.6273 -51.6147 -51.6131 -51.6008 -51.4800
   -23.5549 -23.5549 -23.5533 -23.5491 -23.5405 -23.5405 -23.2668 -23.2494
   -23.2325 -23.2189 -23.2019 -23.2019 -23.1993 -23.1973 -23.1460 -23.1460
   -23.0859 -23.0385 -23.0253 -22.9994 -22.9802 -22.9445 -22.9398 -22.9398
   -22.9209 -22.9070 -22.9020 -22.9020 -22.9008 -22.8861 -22.8861 -22.8813
   -22.8813 -22.8770 -22.8770 -22.8224 -22.8205 -22.8204 -22.8069 -22.6195
   -22.6098 -22.6097 -22.6078 -22.6036 -22.5942 -22.5942 -22.5908 -22.5857
    12.2668  15.2596  15.5409  15.5409  15.6052  15.6052  15.6217  15.6415
    15.6888  15.6991  15.8572  15.8573  16.2740  16.2740  16.4891  17.3533
    17.4649  17.4773  17.5092  17.5109  17.5257  17.5897  17.5897  17.6387
    17.6387  17.6409  17.8854  17.8855  18.0054  18.0131  18.2958  18.2959
    18.8367  19.0841  19.1091  19.2177  19.2178  19.2480  19.2999  19.4289
    19.4289  19.4701  19.7979  19.7980  19.9393  19.9393  19.9765  20.0971
    20.2307  20.2307  20.4320  20.5192  20.5193  20.5313  20.6610  21.0035
    21.0036  21.1521  21.1521  21.1529  21.2523  21.2523  21.2628  21.2898
    21.2923  21.2978  21.2978  21.3272  21.6207  21.6504

          k = 0.0559 0.0559 0.2794 ( 12341 PWs)   bands (ev):

   -51.8363 -51.7332 -51.6614 -51.6614 -51.6411 -51.6411 -51.6310 -51.6309
   -51.6291 -51.6268 -51.6268 -51.6261 -51.6169 -51.6150 -51.5712 -51.4895
   -23.5234 -23.5231 -23.5231 -23.5200 -23.4995 -23.4994 -23.2903 -23.2808
   -23.2720 -23.2720 -23.2709 -23.2312 -23.2280 -23.2201 -23.2201 -23.2085
   -23.0576 -23.0565 -23.0366 -23.0274 -22.9496 -22.9362 -22.9361 -22.9287
   -22.9205 -22.9093 -22.9092 -22.8833 -22.8833 -22.8812 -22.8811 -22.8647
   -22.8509 -22.8198 -22.8197 -22.7677 -22.7664 -22.7664 -22.7533 -22.6628
   -22.6349 -22.6349 -22.6346 -22.6321 -22.6098 -22.6095 -22.6095 -22.6016
    12.5389  14.6374  15.6192  15.6192  15.7307  15.7307  15.8313  15.8396
    15.8525  15.8566  15.9016  15.9017  16.2839  16.2839  16.5472  17.0366
    17.1750  17.2436  17.4127  17.4765  17.4837  17.4890  17.7218  17.7218
    17.8027  17.8027  17.9082  17.9083  18.2437  18.2438  18.2980  18.3189
    18.8722  18.8722  19.0606  19.0620  19.0620  19.0897  19.0972  19.1760
    19.3568  19.5800  19.6093  19.6094  19.8426  19.8426  20.0833  20.1071
    20.1071  20.1285  20.1527  20.1528  20.1572  20.3082  20.4414  20.9617
    21.0180  21.0180  21.1453  21.1453  21.3100  21.3294  21.3652  21.3749
    21.3749  21.5960  21.5978  21.6201  21.6280  21.6579

          k = 0.0559 0.0559 0.3911 ( 12332 PWs)   bands (ev):

   -51.8172 -51.7646 -51.6571 -51.6571 -51.6465 -51.6464 -51.6296 -51.6295
   -51.6271 -51.6271 -51.6263 -51.6235 -51.6197 -51.6175 -51.5449 -51.5036
   -23.4795 -23.4776 -23.4755 -23.4755 -23.4433 -23.4433 -23.3600 -23.3562
   -23.3453 -23.3453 -23.2989 -23.2989 -23.2711 -23.2536 -23.1968 -23.1762
   -23.1096 -23.0890 -23.0258 -23.0049 -22.9581 -22.9470 -22.9308 -22.9307
   -22.9167 -22.9167 -22.8818 -22.8818 -22.8810 -22.8809 -22.8709 -22.7917
   -22.7837 -22.7631 -22.7631 -22.7223 -22.7178 -22.7147 -22.7147 -22.7046
   -22.6738 -22.6735 -22.6692 -22.6692 -22.6377 -22.6351 -22.6351 -22.6275
    12.9332  14.0124  15.7261  15.7261  15.8930  15.8931  15.9000  15.9001
    16.0419  16.0548  16.1440  16.1559  16.2140  16.2140  16.4551  16.6508
    16.8728  16.8896  17.3921  17.4166  17.4370  17.4477  17.9214  17.9214
    18.0321  18.0321  18.0926  18.0927  18.3268  18.3269  18.5592  18.5592
    18.6676  18.6883  18.6963  18.6963  19.0150  19.0151  19.0499  19.0883
    19.0982  19.1046  19.2177  19.2177  19.5033  19.5897  19.5955  19.9070
    19.9487  20.3943  20.3944  20.4314  20.4314  20.6861  20.6894  20.8344
    20.8415  20.8415  20.9698  20.9698  21.3744  21.3872  21.4720  21.5261
    21.5301  21.5342  21.6377  21.6595  21.6663  21.6762

          k = 0.0559 0.0559-0.5029 ( 12312 PWs)   bands (ev):

   -51.7931 -51.7928 -51.6523 -51.6522 -51.6517 -51.6517 -51.6285 -51.6284
   -51.6279 -51.6279 -51.6233 -51.6228 -51.6206 -51.6204 -51.5223 -51.5220
   -23.4237 -23.4234 -23.4233 -23.4229 -23.4149 -23.4149 -23.4148 -23.4147
   -23.3751 -23.3751 -23.3749 -23.3749 -23.2661 -23.2659 -23.1570 -23.1567
   -23.1362 -23.1359 -22.9915 -22.9912 -22.9764 -22.9761 -22.9243 -22.9242
   -22.9239 -22.9239 -22.8813 -22.8812 -22.8809 -22.8809 -22.7935 -22.7933
   -22.7276 -22.7273 -22.7239 -22.7236 -22.7126 -22.7125 -22.7123 -22.7123
   -22.6741 -22.6737 -22.6704 -22.6703 -22.6701 -22.6701 -22.6624 -22.6622
    13.4324  13.4329  15.8327  15.8327  15.8329  15.8329  16.0677  16.0677
    16.0679  16.0679  16.2714  16.2718  16.3166  16.3171  16.5066  16.5070
    16.5094  16.5097  17.4043  17.4046  17.4167  17.4170  18.1751  18.1751
    18.1753  18.1753  18.2878  18.2879  18.2881  18.2881  18.5360  18.5360
    18.5363  18.5364  18.7220  18.7221  18.7223  18.7224  19.0592  19.0594
    19.0900  19.0903  19.1031  19.1032  19.1158  19.1159  19.6874  19.6877
    20.3403  20.3406  20.6301  20.6301  20.6302  20.6302  20.7273  20.7273
    20.7274  20.7274  21.1062  21.1063  21.2600  21.2602  21.4491  21.4494
    21.4568  21.4571  21.6047  21.6050  21.6486  21.6489

          k = 0.0559 0.1676 0.1676 ( 12328 PWs)   bands (ev):

   -51.8429 -51.6974 -51.6974 -51.6629 -51.6459 -51.6350 -51.6350 -51.6314
   -51.6265 -51.6264 -51.6200 -51.6163 -51.6136 -51.6012 -51.6011 -51.4846
   -23.5505 -23.5402 -23.5402 -23.5272 -23.5272 -23.5079 -23.2791 -23.2586
   -23.2450 -23.2450 -23.2429 -23.2339 -23.2244 -23.2065 -23.1814 -23.1037
   -23.0795 -23.0794 -23.0194 -22.9980 -22.9979 -22.9507 -22.9340 -22.9339
   -22.9188 -22.9152 -22.9152 -22.9102 -22.8968 -22.8967 -22.8895 -22.8723
   -22.8716 -22.8393 -22.8246 -22.8245 -22.7876 -22.7664 -22.7664 -22.6545
   -22.6348 -22.6202 -22.6202 -22.6076 -22.6076 -22.5988 -22.5886 -22.5815
    12.4033  15.3187  15.3187  15.5192  15.6552  15.6552  15.7156  15.7160
    15.7160  15.7616  15.7783  15.9080  16.3193  16.5232  16.5232  17.2312
    17.3664  17.4668  17.4668  17.5665  17.5665  17.5783  17.6102  17.6102
    17.6156  17.7266  17.7619  17.8245  17.9979  18.0290  18.1827  18.6473
    18.6474  19.0082  19.0585  19.0586  19.0881  19.1152  19.2811  19.3712
    19.6897  19.6898  19.7560  19.7560  19.7689  19.8927  20.0192  20.0583
    20.0584  20.1503  20.1503  20.2552  20.2553  20.3747  20.7119  20.7120
    21.0099  21.1369  21.1804  21.1804  21.2202  21.2559  21.2560  21.2612
    21.2693  21.4725  21.5808  21.5879  21.5879  21.6298

          k = 0.0559 0.1676 0.2794 ( 12347 PWs)   bands (ev):

   -51.8300 -51.7297 -51.6923 -51.6598 -51.6562 -51.6398 -51.6327 -51.6303
   -51.6259 -51.6247 -51.6190 -51.6150 -51.6139 -51.6020 -51.5726 -51.4937
   -23.5285 -23.5113 -23.5102 -23.5012 -23.4889 -23.4585 -23.3099 -23.3095
   -23.2917 -23.2869 -23.2864 -23.2754 -23.2391 -23.2227 -23.1746 -23.1561
   -23.0828 -23.0542 -23.0113 -23.0049 -22.9910 -22.9897 -22.9543 -22.9399
   -22.9356 -22.9247 -22.9160 -22.8947 -22.8938 -22.8750 -22.8591 -22.8462
   -22.8279 -22.8168 -22.7922 -22.7710 -22.7456 -22.7169 -22.7162 -22.7066
   -22.6685 -22.6411 -22.6405 -22.6338 -22.6196 -22.6172 -22.5937 -22.5879
    12.6707  14.7178  15.4125  15.5282  15.7337  15.8402  15.8687  15.8748
    15.8974  15.9277  15.9340  15.9724  16.3557  16.5230  16.5918  17.0675
    17.0972  17.2064  17.4939  17.5261  17.5516  17.5619  17.6086  17.6883
    17.7143  17.7579  17.8034  17.9562  18.0916  18.1845  18.2468  18.5135
    18.7458  18.8619  18.8733  18.9368  18.9582  19.0109  19.0629  19.2400
    19.3071  19.4972  19.5279  19.6679  19.7439  19.8284  19.8294  19.8739
    20.0003  20.1149  20.1432  20.2068  20.2396  20.4305  20.4309  20.8454
    20.9913  21.0501  21.0849  21.1494  21.1907  21.2365  21.2882  21.3179
    21.5108  21.5729  21.5762  21.6068  21.6570  21.6624

          k = 0.0559 0.1676 0.3911 ( 12324 PWs)   bands (ev):

   -51.8114 -51.7602 -51.6852 -51.6665 -51.6556 -51.6451 -51.6296 -51.6288
   -51.6263 -51.6225 -51.6222 -51.6171 -51.6092 -51.6035 -51.5471 -51.5073
   -23.4902 -23.4693 -23.4658 -23.4639 -23.4367 -23.3946 -23.3767 -23.3643
   -23.3537 -23.3486 -23.3063 -23.2996 -23.2934 -23.2388 -23.1922 -23.1361
   -23.1064 -23.0488 -23.0429 -22.9938 -22.9806 -22.9731 -22.9520 -22.9509
   -22.9415 -22.9346 -22.9255 -22.8948 -22.8940 -22.8485 -22.8329 -22.8155
   -22.7809 -22.7720 -22.7622 -22.7458 -22.7223 -22.7105 -22.7043 -22.6724
   -22.6724 -22.6717 -22.6715 -22.6686 -22.6443 -22.6401 -22.6091 -22.6059
    13.0577  14.1116  15.4997  15.5467  15.8390  15.9927  16.0010  16.0537
    16.0921  16.1447  16.1806  16.2192  16.3087  16.4240  16.5066  16.7056
    16.8732  16.9111  17.4361  17.4799  17.4956  17.5092  17.7990  17.8633
    17.8812  17.9227  17.9473  18.0983  18.2115  18.3711  18.5099  18.5706
    18.6080  18.6472  18.7090  18.7267  18.8773  18.8868  18.9159  18.9623
    18.9744  19.0348  19.1071  19.2611  19.3530  19.3600  19.7130  20.1384
    20.1684  20.3608  20.3620  20.4390  20.4445  20.4683  20.6745  20.7527
    20.7780  20.8776  20.9724  21.0285  21.1884  21.3144  21.3477  21.4270
    21.4676  21.4940  21.5030  21.5872  21.6529  21.6558

          k = 0.0559 0.1676-0.5029 ( 12326 PWs)   bands (ev):

   -51.7880 -51.7876 -51.6766 -51.6762 -51.6507 -51.6503 -51.6276 -51.6273
   -51.6262 -51.6258 -51.6198 -51.6195 -51.6060 -51.6057 -51.5254 -51.5250
   -23.4384 -23.4384 -23.4174 -23.4171 -23.4162 -23.4158 -23.4104 -23.4103
   -23.3743 -23.3742 -23.3199 -23.3199 -23.3009 -23.3008 -23.1531 -23.1527
   -23.0921 -23.0919 -23.0109 -23.0107 -22.9691 -22.9688 -22.9675 -22.9672
   -22.9439 -22.9436 -22.8946 -22.8943 -22.8466 -22.8464 -22.8399 -22.8396
   -22.7600 -22.7600 -22.7221 -22.7218 -22.7136 -22.7133 -22.7040 -22.7039
   -22.6799 -22.6795 -22.6686 -22.6685 -22.6353 -22.6353 -22.6344 -22.6343
    13.5463  13.5468  15.5453  15.5456  15.9396  15.9398  16.1724  16.1726
    16.2503  16.2505  16.3186  16.3189  16.3966  16.3970  16.5418  16.5422
    16.5542  16.5545  17.4429  17.4432  17.4752  17.4754  18.0469  18.0471
    18.0702  18.0705  18.1077  18.1078  18.1869  18.1872  18.5599  18.5600
    18.6202  18.6204  18.7016  18.7017  18.8295  18.8297  18.8653  18.8653
    18.9100  18.9101  18.9483  18.9485  19.0075  19.0077  19.9262  19.9263
    20.4565  20.4568  20.5099  20.5099  20.6701  20.6701  20.7316  20.7317
    20.7632  20.7633  20.7816  20.7817  21.1734  21.1736  21.4039  21.4042
    21.4230  21.4233  21.5643  21.5647  21.6505  21.6508

          k = 0.0559 0.2794 0.2794 ( 12306 PWs)   bands (ev):

   -51.8178 -51.7228 -51.7228 -51.6716 -51.6568 -51.6373 -51.6373 -51.6291
   -51.6243 -51.6243 -51.6221 -51.6159 -51.6027 -51.5754 -51.5753 -51.5022
   -23.5159 -23.4851 -23.4851 -23.4685 -23.4685 -23.4015 -23.3366 -23.3340
   -23.3340 -23.3163 -23.3147 -23.3141 -23.2746 -23.2035 -23.1333 -23.0841
   -23.0823 -23.0822 -23.0441 -23.0440 -23.0028 -22.9705 -22.9616 -22.9528
   -22.9527 -22.9307 -22.9306 -22.9148 -22.9147 -22.9063 -22.8370 -22.8038
   -22.7778 -22.7777 -22.7759 -22.7679 -22.7568 -22.7173 -22.7099 -22.6726
   -22.6726 -22.6529 -22.6529 -22.6399 -22.6399 -22.6343 -22.5879 -22.5822
    12.9286  14.8619  14.8620  15.4429  15.9526  15.9527  16.0157  16.0303
    16.0479  16.0479  16.0781  16.0978  16.4492  16.6000  16.6000  17.0216
    17.1105  17.2034  17.2034  17.5612  17.6306  17.6306  17.6571  17.6828
    17.6828  17.6993  17.7784  17.9407  18.1275  18.1791  18.2247  18.6189
    18.6189  18.7499  18.7499  18.7642  18.7987  18.8091  18.8696  19.0157
    19.2816  19.2817  19.3596  19.3597  19.5257  19.6042  19.6043  19.7402
    20.2142  20.2142  20.2952  20.3471  20.3942  20.3943  20.6688  20.7925
    20.7926  20.9857  21.1156  21.1156  21.1614  21.1808  21.1808  21.2004
    21.2842  21.5145  21.5182  21.5188  21.6531  21.6630

          k = 0.0559 0.2794 0.3911 ( 12308 PWs)   bands (ev):

   -51.8001 -51.7516 -51.7130 -51.6867 -51.6527 -51.6424 -51.6340 -51.6276
   -51.6260 -51.6248 -51.6222 -51.6176 -51.5932 -51.5796 -51.5516 -51.5147
   -23.4877 -23.4493 -23.4475 -23.4398 -23.4245 -23.3929 -23.3698 -23.3579
   -23.3570 -23.3448 -23.3330 -23.3313 -23.3217 -23.1747 -23.1671 -23.0935
   -23.0877 -23.0623 -23.0288 -23.0024 -22.9889 -22.9885 -22.9866 -22.9855
   -22.9772 -22.9651 -22.9403 -22.9151 -22.9135 -22.8700 -22.8409 -22.8176
   -22.7880 -22.7581 -22.7549 -22.7360 -22.7322 -22.7227 -22.6904 -22.6729
   -22.6701 -22.6700 -22.6596 -22.6510 -22.6356 -22.6354 -22.5926 -22.5889
    13.2999  14.2982  15.0376  15.3418  16.0524  16.1502  16.1792  16.2031
    16.2051  16.2540  16.3231  16.3283  16.4658  16.5185  16.5295  16.8812
    16.8850  16.9133  17.4870  17.5213  17.5661  17.5815  17.6027  17.7207
    17.7665  17.8125  17.8833  17.9101  18.3034  18.3244  18.3458  18.3998
    18.4729  18.6114  18.6132  18.6872  18.7066  18.7090  18.8398  18.8416
    18.8986  18.9608  18.9890  18.9943  19.1338  19.1963  19.9517  19.9759
    20.3825  20.4025  20.5079  20.5207  20.5316  20.5431  20.5469  20.6387
    20.7685  20.8513  20.9537  21.0088  21.0459  21.1717  21.2094  21.2474
    21.3293  21.3554  21.4248  21.4330  21.5509  21.6567

          k = 0.0559 0.2794-0.5029 ( 12330 PWs)   bands (ev):

   -51.7779 -51.7776 -51.7009 -51.7005 -51.6479 -51.6475 -51.6302 -51.6298
   -51.6262 -51.6259 -51.6200 -51.6197 -51.5857 -51.5854 -51.5315 -51.5311
   -23.4457 -23.4456 -23.4059 -23.4057 -23.4056 -23.4053 -23.4029 -23.4028
   -23.3738 -23.3737 -23.3439 -23.3438 -23.2518 -23.2518 -23.1377 -23.1374
   -23.0382 -23.0381 -23.0278 -23.0276 -23.0094 -23.0091 -22.9744 -22.9742
   -22.9667 -22.9665 -22.9204 -22.9204 -22.9157 -22.9155 -22.8119 -22.8119
   -22.8015 -22.8011 -22.7092 -22.7090 -22.7010 -22.7008 -22.6935 -22.6934
   -22.6927 -22.6924 -22.6680 -22.6680 -22.6087 -22.6086 -22.6072 -22.6071
    13.7653  13.7658  15.2063  15.2066  16.1355  16.1357  16.3626  16.3628
    16.3660  16.3664  16.3758  16.3760  16.5880  16.5884  16.5978  16.5981
    16.6339  16.6342  17.5187  17.5189  17.5536  17.5537  17.8353  17.8356
    17.8687  17.8690  17.8774  17.8778  18.1026  18.1027  18.6099  18.6099
    18.6111  18.6112  18.6194  18.6195  18.6386  18.6386  18.6829  18.6831
    18.8114  18.8115  18.8384  18.8385  18.9042  18.9044  20.2314  20.2315
    20.3444  20.3444  20.4223  20.4223  20.6367  20.6369  20.7591  20.7592
    20.7840  20.7842  20.8301  20.8302  20.9622  20.9624  21.3177  21.3180
    21.3370  21.3373  21.4909  21.4912  21.5328  21.5328

          k = 0.0559 0.3911 0.3911 ( 12315 PWs)   bands (ev):

   -51.7839 -51.7394 -51.7393 -51.7061 -51.6486 -51.6389 -51.6388 -51.6302
   -51.6259 -51.6229 -51.6229 -51.6190 -51.5793 -51.5585 -51.5584 -51.5258
   -23.4696 -23.4230 -23.4230 -23.4089 -23.4089 -23.3947 -23.3947 -23.3792
   -23.3725 -23.3724 -23.3625 -23.3454 -23.2564 -23.1481 -23.0874 -23.0873
   -23.0739 -23.0738 -23.0576 -23.0355 -23.0192 -23.0013 -23.0013 -22.9970
   -22.9802 -22.9403 -22.9402 -22.9288 -22.9257 -22.9256 -22.9197 -22.8105
   -22.7902 -22.7471 -22.7470 -22.7236 -22.7110 -22.7019 -22.6822 -22.6787
   -22.6770 -22.6770 -22.6690 -22.6689 -22.6079 -22.6079 -22.5868 -22.5837
    13.6453  14.5483  14.5483  15.1007  16.2943  16.3069  16.3367  16.3367
    16.3376  16.4658  16.4659  16.5044  16.5044  16.5693  16.5963  16.8416
    16.8624  17.1708  17.1709  17.5687  17.5961  17.6074  17.6624  17.6624
    17.6757  17.6757  17.7483  17.9316  18.0045  18.2302  18.3433  18.3650
    18.3650  18.5068  18.5517  18.5848  18.6345  18.6345  18.6609  18.6609
    18.7700  18.7701  18.7722  18.8844  18.9396  19.5312  19.5313  20.2598
    20.3331  20.4268  20.5004  20.5005  20.6706  20.6707  20.6981  20.7093
    20.8661  20.8662  20.9004  21.0173  21.0296  21.0653  21.0653  21.0920
    21.0920  21.3208  21.3226  21.3277  21.4463  21.5647

          k = 0.0559 0.3911-0.5029 ( 12320 PWs)   bands (ev):

   -51.7635 -51.7631 -51.7241 -51.7237 -51.6441 -51.6437 -51.6348 -51.6344
   -51.6244 -51.6241 -51.6210 -51.6207 -51.5678 -51.5675 -51.5406 -51.5403
   -23.4375 -23.4374 -23.3963 -23.3960 -23.3957 -23.3955 -23.3929 -23.3927
   -23.3838 -23.3837 -23.3758 -23.3756 -23.1737 -23.1737 -23.1143 -23.1140
   -23.0488 -23.0485 -23.0351 -23.0350 -23.0053 -23.0052 -23.0033 -23.0033
   -22.9811 -22.9811 -22.9637 -22.9636 -22.9377 -22.9376 -22.8668 -22.8667
   -22.7667 -22.7663 -22.7118 -22.7114 -22.6939 -22.6937 -22.6909 -22.6907
   -22.6867 -22.6866 -22.6713 -22.6712 -22.5915 -22.5914 -22.5902 -22.5902
    14.0714  14.0719  14.8277  14.8281  16.3748  16.3750  16.4146  16.4150
    16.4396  16.4398  16.5860  16.5862  16.6325  16.6328  16.7196  16.7199
    16.8595  16.8598  17.5328  17.5331  17.5894  17.5895  17.5921  17.5921
    17.6458  17.6461  17.7103  17.7106  18.1588  18.1589  18.3796  18.3797
    18.4351  18.4351  18.4620  18.4620  18.4660  18.4661  18.5228  18.5228
    18.8013  18.8013  18.8210  18.8211  19.1317  19.1317  19.9140  19.9140
    20.4201  20.4201  20.5563  20.5564  20.7227  20.7228  20.8199  20.8200
    20.8923  20.8924  20.8983  20.8985  20.8991  20.8993  21.1946  21.1949
    21.2063  21.2066  21.2239  21.2239  21.4070  21.4073

          k = 0.0559-0.5029-0.5029 ( 12356 PWs)   bands (ev):

   -51.7453 -51.7452 -51.7449 -51.7449 -51.6396 -51.6395 -51.6392 -51.6392
   -51.6226 -51.6225 -51.6223 -51.6222 -51.5528 -51.5527 -51.5525 -51.5524
   -23.4164 -23.4163 -23.4163 -23.4163 -23.3925 -23.3925 -23.3923 -23.3923
   -23.3821 -23.3821 -23.3819 -23.3819 -23.0895 -23.0895 -23.0895 -23.0894
   -23.0845 -23.0844 -23.0841 -23.0840 -23.0274 -23.0274 -23.0274 -23.0274
   -22.9545 -22.9545 -22.9545 -22.9545 -22.9237 -22.9237 -22.9236 -22.9236
   -22.7366 -22.7365 -22.7363 -22.7362 -22.6856 -22.6856 -22.6855 -22.6855
   -22.6803 -22.6803 -22.6802 -22.6801 -22.5852 -22.5851 -22.5851 -22.5851
    14.4372  14.4373  14.4376  14.4377  16.4467  16.4467  16.4470  16.4470
    16.5688  16.5688  16.5690  16.5691  16.7314  16.7314  16.7316  16.7316
    17.1840  17.1840  17.1843  17.1844  17.5733  17.5733  17.5735  17.5735
    17.6254  17.6254  17.6255  17.6256  18.2719  18.2719  18.2720  18.2720
    18.3407  18.3408  18.3408  18.3408  18.4320  18.4321  18.4321  18.4321
    18.7852  18.7852  18.7853  18.7853  19.5035  19.5035  19.5036  19.5036
    20.5258  20.5258  20.5259  20.5259  20.8814  20.8814  20.8815  20.8815
    20.9340  20.9340  20.9341  20.9341  21.0463  21.0463  21.0465  21.0465
    21.0511  21.0512  21.0514  21.0514  21.3775  21.3778

          k = 0.1676 0.1676 0.1676 ( 12323 PWs)   bands (ev):

   -51.8365 -51.6949 -51.6948 -51.6948 -51.6445 -51.6444 -51.6444 -51.6196
   -51.6193 -51.6193 -51.6192 -51.6126 -51.6015 -51.6015 -51.6015 -51.4890
   -23.5354 -23.5354 -23.5354 -23.4969 -23.4969 -23.4969 -23.2935 -23.2733
   -23.2733 -23.2733 -23.2680 -23.2680 -23.1872 -23.1872 -23.1738 -23.1171
   -23.1171 -23.1171 -23.0115 -23.0115 -23.0115 -22.9372 -22.9372 -22.9353
   -22.9353 -22.9352 -22.8923 -22.8923 -22.8923 -22.8805 -22.8805 -22.8804
   -22.8298 -22.8298 -22.8298 -22.8279 -22.7391 -22.7390 -22.7390 -22.6904
   -22.6407 -22.6407 -22.6407 -22.6028 -22.6028 -22.6028 -22.5913 -22.5913
    12.5380  15.3852  15.3853  15.3853  15.6371  15.6371  15.6371  15.8236
    15.8236  15.8236  15.8452  15.8452  16.5773  16.5773  16.5773  17.1279
    17.4444  17.4444  17.4445  17.4837  17.4837  17.5925  17.5925  17.5925
    17.7218  17.7218  17.7218  17.8930  17.9298  17.9298  18.4771  18.4771
    18.4771  18.9680  18.9681  18.9681  18.9901  18.9901  19.4665  19.4665
    19.4665  19.5089  19.6539  19.6539  19.6539  19.8917  19.8917  19.8917
    20.0684  20.0685  20.0685  20.2442  20.2442  20.2442  20.9536  20.9536
    20.9538  21.0565  21.0565  21.0565  21.1823  21.1823  21.2593  21.2593
    21.2593  21.5853  21.5853  21.5853  21.6310  21.6311

          k = 0.1676 0.1676 0.2794 ( 12313 PWs)   bands (ev):

   -51.8239 -51.7262 -51.6899 -51.6898 -51.6545 -51.6544 -51.6416 -51.6237
   -51.6180 -51.6135 -51.6135 -51.6125 -51.6023 -51.6022 -51.5739 -51.4978
   -23.5141 -23.5141 -23.5057 -23.4757 -23.4509 -23.4509 -23.3307 -23.3207
   -23.3207 -23.2991 -23.2894 -23.2674 -23.2460 -23.1784 -23.1784 -23.1458
   -23.1357 -23.0701 -23.0443 -23.0145 -23.0145 -22.9658 -22.9559 -22.9558
   -22.9491 -22.9455 -22.8958 -22.8669 -22.8668 -22.8589 -22.8418 -22.8418
   -22.8349 -22.8349 -22.7825 -22.7734 -22.7447 -22.7026 -22.7026 -22.6948
   -22.6685 -22.6685 -22.6533 -22.6307 -22.6109 -22.6065 -22.6065 -22.5923
    12.8014  14.8032  15.4934  15.4934  15.6486  15.6486  15.8643  15.9751
    15.9751  15.9775  16.0008  16.0287  16.6099  16.6099  16.6622  17.0327
    17.0723  17.3304  17.4380  17.4867  17.4868  17.5517  17.6545  17.6859
    17.6859  17.7469  17.8927  17.8927  18.0012  18.1851  18.3220  18.3220
    18.6746  18.7528  18.7528  18.8567  18.8917  18.9568  19.1587  19.1588
    19.1666  19.1666  19.4347  19.5902  19.5903  19.6187  19.6919  19.6984
    20.0297  20.1696  20.1696  20.3521  20.3521  20.5472  20.6751  20.9086
    20.9086  21.0290  21.1409  21.1839  21.1839  21.2227  21.2681  21.2860
    21.2870  21.2870  21.5658  21.5714  21.5934  21.6296

          k = 0.1676 0.1676 0.3911 ( 12305 PWs)   bands (ev):

   -51.8058 -51.7559 -51.6829 -51.6828 -51.6646 -51.6645 -51.6377 -51.6283
   -51.6164 -51.6133 -51.6091 -51.6090 -51.6036 -51.6036 -51.5492 -51.5109
   -23.4781 -23.4781 -23.4626 -23.4459 -23.3917 -23.3917 -23.3761 -23.3760
   -23.3702 -23.3415 -23.3120 -23.3053 -23.2501 -23.2501 -23.2140 -23.1245
   -23.1003 -23.0931 -23.0074 -23.0074 -23.0066 -22.9973 -22.9758 -22.9757
   -22.9661 -22.9468 -22.9151 -22.8558 -22.8558 -22.8403 -22.8402 -22.8119
   -22.7914 -22.7914 -22.7873 -22.7399 -22.7220 -22.7031 -22.7031 -22.6741
   -22.6715 -22.6679 -22.6679 -22.6567 -22.6396 -22.6185 -22.6185 -22.6041
    13.1820  14.2136  15.5983  15.5983  15.6665  15.6665  16.1601  16.1601
    16.1722  16.1831  16.2048  16.3068  16.5289  16.5289  16.5922  16.7278
    16.8766  16.9694  17.4334  17.5031  17.5836  17.5891  17.6968  17.6968
    17.8389  17.8389  18.0860  18.0860  18.2069  18.2069  18.3087  18.4840
    18.6012  18.6012  18.6971  18.6971  18.7883  18.7942  18.8188  18.8359
    18.8359  18.9125  19.0883  19.0884  19.1402  19.1450  19.9031  20.0012
    20.2706  20.3995  20.4710  20.4710  20.4849  20.4849  20.7542  20.7542
    20.7905  20.8116  20.9108  21.0205  21.0205  21.2488  21.3428  21.3863
    21.4741  21.4966  21.5919  21.5919  21.6034  21.6222

          k = 0.1676 0.1676-0.5029 ( 12324 PWs)   bands (ev):

   -51.7830 -51.7826 -51.6746 -51.6745 -51.6740 -51.6740 -51.6334 -51.6330
   -51.6149 -51.6146 -51.6061 -51.6060 -51.6055 -51.6055 -51.5283 -51.5279
   -23.4306 -23.4306 -23.4305 -23.4305 -23.4099 -23.4096 -23.4076 -23.4072
   -23.3233 -23.3233 -23.3230 -23.3230 -23.3136 -23.3135 -23.1733 -23.1729
   -23.0529 -23.0527 -23.0469 -23.0468 -22.9936 -22.9936 -22.9933 -22.9933
   -22.9339 -22.9337 -22.8873 -22.8872 -22.8473 -22.8473 -22.8470 -22.8470
   -22.7448 -22.7448 -22.7444 -22.7444 -22.7244 -22.7241 -22.7033 -22.7031
   -22.6772 -22.6768 -22.6394 -22.6393 -22.6393 -22.6392 -22.6260 -22.6259
    13.6612  13.6617  15.6582  15.6582  15.6585  15.6585  16.3575  16.3575
    16.3577  16.3577  16.4191  16.4195  16.4244  16.4248  16.5650  16.5654
    16.6138  16.6141  17.4591  17.4594  17.5440  17.5442  18.0224  18.0224
    18.0228  18.0228  18.0318  18.0318  18.0321  18.0321  18.5708  18.5708
    18.5710  18.5710  18.6995  18.6996  18.7207  18.7208  18.7208  18.7209
    18.7833  18.7833  18.8109  18.8111  18.8587  18.8590  20.1398  20.1399
    20.3728  20.3729  20.5483  20.5485  20.6057  20.6057  20.6058  20.6058
    20.7795  20.7795  20.7796  20.7796  21.3150  21.3152  21.3644  21.3648
    21.4165  21.4168  21.5288  21.5292  21.6134  21.6137

          k = 0.1676 0.2794 0.2794 ( 12309 PWs)   bands (ev):

   -51.8120 -51.7195 -51.7194 -51.6851 -51.6695 -51.6512 -51.6511 -51.6291
   -51.6127 -51.6127 -51.6111 -51.6030 -51.6025 -51.5765 -51.5764 -51.5059
   -23.5015 -23.4862 -23.4862 -23.4366 -23.4366 -23.3979 -23.3512 -23.3435
   -23.3401 -23.3401 -23.3031 -23.2828 -23.2413 -23.2194 -23.1648 -23.1080
   -23.1080 -23.0912 -23.0724 -23.0723 -23.0343 -22.9920 -22.9919 -22.9869
   -22.9232 -22.8927 -22.8927 -22.8799 -22.8798 -22.8436 -22.8421 -22.8287
   -22.8035 -22.8002 -22.7797 -22.7796 -22.7485 -22.7029 -22.6825 -22.6710
   -22.6710 -22.6652 -22.6652 -22.6318 -22.6318 -22.6231 -22.6015 -22.5926
    13.0565  14.9567  14.9567  15.5680  15.6305  15.8807  15.8807  16.1036
    16.1362  16.1547  16.1758  16.1759  16.7062  16.7063  16.7224  16.9924
    17.1709  17.1710  17.2662  17.4302  17.5083  17.6357  17.6357  17.7495
    17.7879  17.7879  17.7934  17.8663  18.0854  18.1423  18.1547  18.4761
    18.4762  18.6350  18.6770  18.6770  18.7507  18.7785  18.8822  18.9385
    19.0210  19.0211  19.2145  19.2145  19.2854  19.3427  19.3428  19.9152
    20.2907  20.2907  20.3395  20.4971  20.5807  20.5807  20.7650  20.7881
    21.0207  21.0208  21.0222  21.0223  21.0367  21.1640  21.2102  21.2102
    21.2327  21.5232  21.5253  21.5276  21.5358  21.6103

          k = 0.1676 0.2794 0.3911 ( 12302 PWs)   bands (ev):

   -51.7948 -51.7475 -51.7098 -51.6842 -51.6783 -51.6608 -51.6465 -51.6351
   -51.6118 -51.6107 -51.6087 -51.6040 -51.5935 -51.5805 -51.5535 -51.5180
   -23.4742 -23.4550 -23.4456 -23.4173 -23.3883 -23.3866 -23.3772 -23.3726
   -23.3459 -23.3367 -23.3326 -23.3240 -23.2723 -23.2134 -23.1823 -23.1337
   -23.1262 -23.0617 -23.0440 -23.0406 -23.0378 -23.0309 -23.0162 -23.0155
   -22.9439 -22.9180 -22.8954 -22.8740 -22.8678 -22.8514 -22.8397 -22.8208
   -22.7895 -22.7720 -22.7600 -22.7436 -22.7294 -22.7189 -22.6947 -22.6795
   -22.6689 -22.6634 -22.6496 -22.6376 -22.6372 -22.6343 -22.6048 -22.5975
    13.4235  14.4055  15.1449  15.4672  15.7744  15.8957  16.2061  16.2712
    16.3129  16.3590  16.3714  16.4426  16.6325  16.6416  16.7110  16.8795
    16.9147  16.9868  17.4427  17.4975  17.5395  17.5759  17.6685  17.6786
    17.7657  17.8748  17.9012  18.0212  18.0595  18.2229  18.2648  18.3297
    18.4090  18.5007  18.5483  18.5912  18.6365  18.6677  18.6829  18.7045
    18.7989  18.7997  18.8146  18.8157  18.9306  18.9883  19.6009  20.1671
    20.3497  20.4807  20.5738  20.5773  20.5810  20.6345  20.6518  20.7323
    20.8862  20.8922  20.9026  21.0512  21.0520  21.1597  21.2723  21.3211
    21.3826  21.4305  21.4468  21.5400  21.6053  21.6061

          k = 0.1676 0.2794-0.5029 ( 12298 PWs)   bands (ev):

   -51.7732 -51.7728 -51.6980 -51.6977 -51.6702 -51.6699 -51.6412 -51.6409
   -51.6112 -51.6108 -51.6060 -51.6057 -51.5863 -51.5860 -51.5341 -51.5338
   -23.4351 -23.4350 -23.4166 -23.4165 -23.3953 -23.3950 -23.3948 -23.3944
   -23.3399 -23.3398 -23.3302 -23.3301 -23.2592 -23.2592 -23.1741 -23.1738
   -23.0873 -23.0871 -23.0420 -23.0417 -23.0332 -23.0330 -22.9948 -22.9946
   -22.9512 -22.9512 -22.9094 -22.9092 -22.8589 -22.8587 -22.8034 -22.8031
   -22.7896 -22.7896 -22.7243 -22.7243 -22.7166 -22.7163 -22.6956 -22.6953
   -22.6858 -22.6854 -22.6478 -22.6478 -22.6170 -22.6170 -22.6115 -22.6115
    13.8821  13.8826  15.3253  15.3256  15.8693  15.8696  16.4677  16.4681
    16.4869  16.4871  16.5552  16.5554  16.5931  16.5935  16.6170  16.6173
    16.7194  16.7197  17.5225  17.5228  17.6165  17.6166  17.7967  17.7970
    17.8266  17.8270  17.9096  17.9098  18.0526  18.0527  18.4009  18.4010
    18.5284  18.5284  18.5326  18.5327  18.5722  18.5724  18.5920  18.5920
    18.6583  18.6583  18.6775  18.6775  18.7457  18.7458  19.9432  19.9433
    20.4395  20.4396  20.5880  20.5880  20.7015  20.7018  20.7636  20.7636
    20.8322  20.8324  20.8426  20.8427  21.2470  21.2472  21.3026  21.3029
    21.3561  21.3564  21.4641  21.4644  21.5815  21.5817

          k = 0.1676 0.3911 0.3911 ( 12333 PWs)   bands (ev):

   -51.7789 -51.7355 -51.7355 -51.7031 -51.6720 -51.6556 -51.6555 -51.6422
   -51.6092 -51.6084 -51.6083 -51.6047 -51.5801 -51.5601 -51.5601 -51.5286
   -23.4555 -23.4228 -23.4228 -23.3865 -23.3865 -23.3842 -23.3811 -23.3811
   -23.3740 -23.3527 -23.3501 -23.3039 -23.2627 -23.1914 -23.1344 -23.1121
   -23.1121 -23.1068 -23.1067 -23.0649 -23.0617 -23.0617 -23.0541 -22.9930
   -22.9476 -22.9045 -22.8900 -22.8900 -22.8819 -22.8819 -22.8621 -22.7901
   -22.7887 -22.7439 -22.7438 -22.7384 -22.7306 -22.7025 -22.6901 -22.6900
   -22.6726 -22.6651 -22.6651 -22.6609 -22.6150 -22.6149 -22.5995 -22.5948
    13.7674  14.6628  14.6628  15.2271  15.9801  16.2105  16.2105  16.3914
    16.4478  16.6111  16.6159  16.6159  16.6170  16.6171  16.8605  16.8610
    16.9432  17.1710  17.1710  17.4520  17.5700  17.6463  17.6813  17.6814
    17.7205  17.7205  17.8770  17.9243  17.9693  17.9752  18.2786  18.3153
    18.3154  18.3621  18.4695  18.4696  18.5133  18.5213  18.5213  18.5555
    18.5673  18.6134  18.6135  18.7339  18.7441  19.2141  19.2141  19.9172
    20.4604  20.6141  20.7133  20.7133  20.7495  20.7693  20.7693  20.7985
    20.9479  21.0457  21.0563  21.0563  21.0959  21.0960  21.1310  21.1311
    21.2964  21.3453  21.3517  21.3547  21.4472  21.5541

          k = 0.1676 0.3911-0.5029 ( 12312 PWs)   bands (ev):

   -51.7590 -51.7587 -51.7206 -51.7203 -51.6644 -51.6640 -51.6494 -51.6490
   -51.6086 -51.6083 -51.6063 -51.6059 -51.5691 -51.5688 -51.5429 -51.5426
   -23.4249 -23.4249 -23.4003 -23.4001 -23.3860 -23.3857 -23.3767 -23.3765
   -23.3726 -23.3726 -23.3418 -23.3417 -23.1860 -23.1859 -23.1563 -23.1560
   -23.1054 -23.1053 -23.0869 -23.0866 -23.0723 -23.0722 -23.0268 -23.0268
   -22.9414 -22.9413 -22.8944 -22.8943 -22.8719 -22.8718 -22.8377 -22.8377
   -22.7645 -22.7641 -22.7070 -22.7069 -22.7046 -22.7043 -22.7000 -22.6998
   -22.6927 -22.6926 -22.6617 -22.6616 -22.6028 -22.6027 -22.6003 -22.6003
    14.1907  14.1912  14.9496  14.9500  16.1423  16.1426  16.5191  16.5194
    16.5516  16.5518  16.5637  16.5641  16.7933  16.7935  16.8514  16.8516
    16.8875  16.8879  17.5331  17.5334  17.5901  17.5904  17.6112  17.6114
    17.6146  17.6146  17.7825  17.7828  18.1183  18.1184  18.1642  18.1643
    18.3089  18.3090  18.3796  18.3798  18.3938  18.3938  18.4480  18.4481
    18.6277  18.6277  18.6633  18.6634  18.8647  18.8648  19.5286  19.5286
    20.6590  20.6591  20.7631  20.7632  20.8725  20.8727  20.9225  20.9226
    20.9385  20.9386  20.9459  20.9462  21.0436  21.0438  21.2154  21.2157
    21.2384  21.2387  21.3902  21.3905  21.4332  21.4334

          k = 0.1676-0.5029-0.5029 ( 12316 PWs)   bands (ev):

   -51.7413 -51.7412 -51.7409 -51.7409 -51.6573 -51.6572 -51.6569 -51.6569
   -51.6071 -51.6070 -51.6068 -51.6067 -51.5546 -51.5545 -51.5543 -51.5542
   -23.4031 -23.4031 -23.4031 -23.4031 -23.3879 -23.3878 -23.3877 -23.3876
   -23.3579 -23.3579 -23.3577 -23.3577 -23.1259 -23.1258 -23.1256 -23.1256
   -23.1068 -23.1068 -23.1067 -23.1067 -23.0997 -23.0997 -23.0996 -23.0996
   -22.8887 -22.8887 -22.8886 -22.8886 -22.8835 -22.8835 -22.8834 -22.8834
   -22.7311 -22.7310 -22.7307 -22.7306 -22.6963 -22.6963 -22.6961 -22.6961
   -22.6802 -22.6801 -22.6800 -22.6800 -22.5970 -22.5970 -22.5970 -22.5970
    14.5587  14.5588  14.5591  14.5592  16.4059  16.4060  16.4062  16.4063
    16.5555  16.5556  16.5558  16.5559  16.9274  16.9274  16.9276  16.9276
    17.2050  17.2050  17.2053  17.2054  17.5251  17.5251  17.5253  17.5254
    17.6880  17.6881  17.6882  17.6882  18.1450  18.1451  18.1451  18.1452
    18.2325  18.2326  18.2326  18.2326  18.3632  18.3633  18.3633  18.3633
    18.6193  18.6193  18.6194  18.6194  19.1610  19.1610  19.1611  19.1612
    20.8229  20.8229  20.8230  20.8230  20.9502  20.9502  20.9504  20.9504
    21.0918  21.0919  21.0921  21.0922  21.0948  21.0948  21.0950  21.0950
    21.1261  21.1261  21.1261  21.1262  21.3690  21.3693

          k = 0.2794 0.2794 0.2794 ( 12313 PWs)   bands (ev):

   -51.8007 -51.7131 -51.7130 -51.7130 -51.6654 -51.6653 -51.6653 -51.6369
   -51.6075 -51.6027 -51.6026 -51.6026 -51.5788 -51.5788 -51.5788 -51.5134
   -23.4727 -23.4727 -23.4727 -23.3915 -23.3915 -23.3915 -23.3608 -23.3556
   -23.3556 -23.3556 -23.2800 -23.2800 -23.2421 -23.2421 -23.1536 -23.1536
   -23.1535 -23.0957 -23.0957 -23.0956 -23.0431 -23.0299 -23.0299 -23.0299
   -22.8602 -22.8498 -22.8498 -22.8498 -22.8478 -22.8478 -22.8463 -22.8463
   -22.8462 -22.7845 -22.7845 -22.7844 -22.7243 -22.6949 -22.6949 -22.6949
   -22.6537 -22.6537 -22.6537 -22.6283 -22.6283 -22.6283 -22.6132 -22.6132
    13.3059  15.1291  15.1291  15.1291  15.8103  15.8103  15.8103  16.2667
    16.2667  16.3354  16.3354  16.3355  16.8631  16.8631  16.8631  17.0029
    17.1519  17.1519  17.1519  17.4750  17.4966  17.4966  17.6977  17.6977
    17.6977  17.9333  17.9333  17.9333  17.9624  17.9624  18.3039  18.3039
    18.3039  18.5282  18.5283  18.5283  18.6551  18.6551  18.6551  18.7208
    18.7208  18.9156  18.9157  18.9157  19.0229  19.0229  19.0230  20.1657
    20.3337  20.4618  20.4618  20.4618  20.7362  20.7362  20.7363  20.9262
    20.9262  20.9262  21.1325  21.1325  21.1990  21.1990  21.1990  21.3447
    21.3447  21.3448  21.5302  21.5302  21.5336  21.5366

          k = 0.2794 0.2794 0.3911 ( 12307 PWs)   bands (ev):

   -51.7843 -51.7395 -51.7038 -51.7038 -51.6793 -51.6793 -51.6596 -51.6448
   -51.6051 -51.6029 -51.5943 -51.5942 -51.5825 -51.5824 -51.5575 -51.5245
   -23.4478 -23.4477 -23.4310 -23.3835 -23.3821 -23.3821 -23.3681 -23.3535
   -23.3358 -23.3358 -23.3138 -23.3134 -23.2464 -23.2113 -23.2113 -23.1932
   -23.1528 -23.1014 -23.1014 -23.0828 -23.0803 -23.0636 -23.0636 -22.9935
   -22.9288 -22.8944 -22.8589 -22.8575 -22.8252 -22.8252 -22.8012 -22.8012
   -22.7931 -22.7930 -22.7787 -22.7302 -22.7247 -22.7247 -22.7061 -22.6911
   -22.6675 -22.6436 -22.6422 -22.6421 -22.6316 -22.6288 -22.6288 -22.6108
    13.6631  14.6079  15.3439  15.3439  15.7093  15.7093  16.1537  16.4299
    16.4781  16.5160  16.5160  16.5977  16.8440  16.8471  16.8471  16.8828
    16.9948  17.0312  17.3541  17.3542  17.5202  17.6334  17.7515  17.7748
    17.7786  17.8118  17.8118  18.0236  18.0236  18.1363  18.1363  18.1510
    18.3352  18.3352  18.4071  18.4071  18.4350  18.4794  18.5115  18.5154
    18.5853  18.6114  18.6115  18.6416  18.7171  18.7172  19.2010  19.8911
    20.4490  20.6318  20.6832  20.6832  20.8030  20.8030  20.8584  20.8584
    20.9900  21.0489  21.0658  21.0947  21.0947  21.1132  21.2622  21.2654
    21.4467  21.4482  21.5352  21.5353  21.5373  21.5417

          k = 0.2794 0.2794-0.5029 ( 12298 PWs)   bands (ev):

   -51.7638 -51.7635 -51.6927 -51.6926 -51.6921 -51.6921 -51.6528 -51.6524
   -51.6038 -51.6034 -51.5879 -51.5878 -51.5873 -51.5873 -51.5395 -51.5391
   -23.4153 -23.4153 -23.4152 -23.4152 -23.3775 -23.3771 -23.3756 -23.3754
   -23.3388 -23.3387 -23.2743 -23.2743 -23.2740 -23.2739 -23.2037 -23.2034
   -23.1390 -23.1388 -23.0892 -23.0892 -23.0890 -23.0890 -23.0038 -23.0038
   -22.9437 -22.9436 -22.8616 -22.8614 -22.8065 -22.8064 -22.8062 -22.8062
   -22.7605 -22.7605 -22.7600 -22.7600 -22.7182 -22.7179 -22.6949 -22.6947
   -22.6830 -22.6827 -22.6335 -22.6335 -22.6334 -22.6334 -22.6171 -22.6171
    14.1067  14.1072  15.5513  15.5514  15.5517  15.5517  16.5726  16.5730
    16.6379  16.6383  16.6923  16.6926  16.6975  16.6975  16.6977  16.6977
    16.8563  16.8565  17.5697  17.5700  17.6806  17.6807  17.7160  17.7161
    17.7165  17.7165  17.9658  17.9658  17.9661  17.9661  18.1236  18.1238
    18.3417  18.3419  18.4243  18.4243  18.4245  18.4245  18.4529  18.4530
    18.4532  18.4532  18.5000  18.5001  18.5458  18.5460  19.4997  19.4997
    20.7530  20.7531  20.8167  20.8169  20.8249  20.8249  20.8249  20.8249
    20.9073  20.9073  20.9075  20.9075  21.2941  21.2944  21.3519  21.3522
    21.4145  21.4146  21.4148  21.4148  21.5416  21.5419

          k = 0.2794 0.3911 0.3911 ( 12296 PWs)   bands (ev):

   -51.7692 -51.7281 -51.7281 -51.6972 -51.6952 -51.6725 -51.6724 -51.6547
   -51.6008 -51.5956 -51.5955 -51.5855 -51.5818 -51.5635 -51.5634 -51.5343
   -23.4281 -23.4099 -23.4099 -23.3805 -23.3729 -23.3729 -23.3594 -23.3415
   -23.3415 -23.3256 -23.3202 -23.2752 -23.2506 -23.2420 -23.2080 -23.1575
   -23.1575 -23.1422 -23.1421 -23.1301 -23.1181 -23.1181 -23.1065 -22.9958
   -22.9426 -22.8456 -22.8456 -22.8330 -22.8289 -22.8288 -22.7991 -22.7886
   -22.7647 -22.7602 -22.7538 -22.7402 -22.7402 -22.7089 -22.7089 -22.6996
   -22.6635 -22.6635 -22.6596 -22.6490 -22.6276 -22.6276 -22.6246 -22.6166
    14.0034  14.8803  14.8803  15.4711  15.6005  16.0492  16.0492  16.5728
    16.6581  16.6925  16.7833  16.7834  16.8334  16.8334  16.8403  17.0771
    17.0841  17.1649  17.1649  17.2851  17.6014  17.7092  17.7098  17.7343
    17.7343  17.8016  17.8016  17.9052  17.9074  17.9989  18.0632  18.2301
    18.2302  18.2319  18.2461  18.2462  18.2613  18.2613  18.2646  18.3850
    18.3850  18.4417  18.4429  18.4660  18.5304  18.8259  18.8259  19.4539
    20.7675  20.8159  20.8159  20.8422  20.8819  20.9714  21.0393  21.0503
    21.0504  21.0817  21.0817  21.0988  21.1752  21.1752  21.2439  21.3816
    21.4138  21.4138  21.4168  21.4469  21.5202  21.5315

          k = 0.2794 0.3911-0.5029 ( 12306 PWs)   bands (ev):

   -51.7504 -51.7500 -51.7139 -51.7136 -51.6847 -51.6844 -51.6643 -51.6639
   -51.5978 -51.5975 -51.5899 -51.5896 -51.5717 -51.5714 -51.5475 -51.5472
   -23.4008 -23.4008 -23.3903 -23.3902 -23.3639 -23.3636 -23.3520 -23.3520
   -23.3498 -23.3496 -23.2957 -23.2956 -23.2093 -23.2092 -23.2063 -23.2059
   -23.1710 -23.1709 -23.1399 -23.1397 -23.1363 -23.1361 -23.0688 -23.0687
   -22.8931 -22.8930 -22.8304 -22.8303 -22.8102 -22.8101 -22.8006 -22.8005
   -22.7601 -22.7599 -22.7335 -22.7334 -22.7074 -22.7071 -22.7004 -22.7002
   -22.6950 -22.6947 -22.6569 -22.6568 -22.6247 -22.6247 -22.6195 -22.6195
    14.4200  14.4205  15.1832  15.1836  15.8570  15.8573  16.4515  16.4519
    16.7158  16.7161  16.7666  16.7668  16.9413  16.9416  16.9755  16.9757
    17.0316  17.0319  17.5279  17.5282  17.5530  17.5533  17.6526  17.6526
    17.6595  17.6597  17.8640  17.8642  17.9377  17.9378  18.0456  18.0457
    18.1429  18.1431  18.1591  18.1593  18.2742  18.2743  18.3192  18.3192
    18.3655  18.3656  18.4408  18.4409  18.5063  18.5063  19.0820  19.0821
    20.9495  20.9497  20.9617  20.9617  20.9924  20.9926  21.0183  21.0186
    21.0508  21.0509  21.1076  21.1076  21.2772  21.2775  21.2797  21.2799
    21.3555  21.3556  21.3578  21.3581  21.4488  21.4491

          k = 0.2794-0.5029-0.5029 ( 12292 PWs)   bands (ev):

   -51.7335 -51.7334 -51.7332 -51.7331 -51.6752 -51.6751 -51.6748 -51.6747
   -51.5933 -51.5932 -51.5930 -51.5929 -51.5583 -51.5582 -51.5580 -51.5579
   -23.3770 -23.3770 -23.3770 -23.3770 -23.3686 -23.3685 -23.3684 -23.3683
   -23.3219 -23.3218 -23.3217 -23.3217 -23.1813 -23.1812 -23.1810 -23.1809
   -23.1692 -23.1691 -23.1691 -23.1691 -23.1391 -23.1391 -23.1390 -23.1390
   -22.8450 -22.8450 -22.8449 -22.8449 -22.8161 -22.8161 -22.8161 -22.8161
   -22.7221 -22.7220 -22.7218 -22.7217 -22.7133 -22.7132 -22.7131 -22.7131
   -22.6839 -22.6838 -22.6837 -22.6837 -22.6207 -22.6207 -22.6207 -22.6207
    14.7921  14.7922  14.7926  14.7926  16.1877  16.1878  16.1881  16.1881
    16.7634  16.7634  16.7637  16.7637  17.1673  17.1674  17.1675  17.1675
    17.2444  17.2445  17.2448  17.2448  17.4745  17.4746  17.4748  17.4748
    17.7655  17.7656  17.7657  17.7657  17.9596  17.9597  17.9598  17.9598
    18.1512  18.1512  18.1513  18.1513  18.1601  18.1601  18.1602  18.1602
    18.3767  18.3767  18.3768  18.3768  18.7335  18.7335  18.7335  18.7336
    21.0306  21.0306  21.0308  21.0309  21.1512  21.1513  21.1515  21.1516
    21.1593  21.1594  21.1594  21.1595  21.2108  21.2108  21.2110  21.2110
    21.3500  21.3501  21.3503  21.3504  21.4780  21.4780

          k = 0.3911 0.3911 0.3911 ( 12292 PWs)   bands (ev):

   -51.7553 -51.7175 -51.7174 -51.7174 -51.6890 -51.6889 -51.6889 -51.6671
   -51.5939 -51.5846 -51.5846 -51.5846 -51.5686 -51.5685 -51.5685 -51.5429
   -23.3882 -23.3882 -23.3881 -23.3621 -23.3621 -23.3621 -23.3387 -23.2934
   -23.2934 -23.2933 -23.2900 -23.2900 -23.2762 -23.2762 -23.1906 -23.1906
   -23.1906 -23.1888 -23.1888 -23.1887 -23.1653 -23.1653 -23.1653 -23.0561
   -22.8929 -22.8032 -22.8032 -22.8032 -22.7850 -22.7850 -22.7850 -22.7674
   -22.7674 -22.7416 -22.7416 -22.7416 -22.7343 -22.7343 -22.7342 -22.7033
   -22.6618 -22.6618 -22.6618 -22.6491 -22.6491 -22.6433 -22.6433 -22.6433
    14.3366  15.1755  15.1756  15.1756  15.8138  15.8138  15.8138  16.6133
    16.8087  16.8087  16.9444  16.9444  16.9445  17.1151  17.1151  17.1151
    17.1589  17.1589  17.1589  17.2587  17.6596  17.6596  17.7755  17.7755
    17.8235  17.8235  17.8235  17.8779  17.8779  17.8779  17.9482  17.9482
    17.9482  18.1181  18.1181  18.1182  18.1211  18.1211  18.1211  18.1782
    18.1783  18.1783  18.3458  18.3458  18.4588  18.4588  18.4589  19.0161
    20.9543  20.9543  20.9543  21.1182  21.1504  21.1505  21.1505  21.1661
    21.1661  21.1849  21.1849  21.1849  21.2232  21.2232  21.2232  21.4092
    21.4092  21.4420  21.4421  21.4421  21.4636  21.4636

          k = 0.3911 0.3911-0.5029 ( 12348 PWs)   bands (ev):

   -51.7380 -51.7376 -51.7045 -51.7044 -51.7039 -51.7039 -51.6789 -51.6785
   -51.5887 -51.5884 -51.5759 -51.5758 -51.5753 -51.5753 -51.5545 -51.5542
   -23.3676 -23.3676 -23.3675 -23.3675 -23.3372 -23.3368 -23.3313 -23.3312
   -23.3156 -23.3154 -23.2448 -23.2444 -23.2411 -23.2411 -23.2407 -23.2407
   -23.2237 -23.2236 -23.1940 -23.1940 -23.1938 -23.1938 -23.1226 -23.1225
   -22.8461 -22.8460 -22.7782 -22.7780 -22.7660 -22.7660 -22.7656 -22.7656
   -22.7553 -22.7553 -22.7551 -22.7551 -22.7149 -22.7148 -22.7101 -22.7098
   -22.6913 -22.6910 -22.6561 -22.6561 -22.6560 -22.6560 -22.6435 -22.6435
    14.7395  14.7400  15.5059  15.5059  15.5063  15.5063  16.2193  16.2197
    16.9525  16.9528  17.0398  17.0401  17.0658  17.0658  17.0661  17.0661
    17.2414  17.2417  17.5019  17.5019  17.5023  17.5023  17.6945  17.6946
    17.7371  17.7374  17.8334  17.8337  17.8377  17.8379  17.9545  17.9545
    17.9549  17.9549  18.0974  18.0975  18.0978  18.0978  18.1560  18.1561
    18.1562  18.1563  18.2198  18.2200  18.2351  18.2353  18.6571  18.6572
    21.0667  21.0669  21.0967  21.0967  21.0970  21.0970  21.2314  21.2314
    21.2314  21.2314  21.2925  21.2928  21.3141  21.3144  21.3792  21.3794
    21.4297  21.4300  21.4322  21.4322  21.4325  21.4325

          k = 0.3911-0.5029-0.5029 ( 12332 PWs)   bands (ev):

   -51.7224 -51.7223 -51.7221 -51.7220 -51.6925 -51.6924 -51.6921 -51.6921
   -51.5815 -51.5814 -51.5811 -51.5810 -51.5640 -51.5639 -51.5636 -51.5636
   -23.3392 -23.3392 -23.3392 -23.3392 -23.3356 -23.3356 -23.3354 -23.3353
   -23.2777 -23.2777 -23.2775 -23.2775 -23.2384 -23.2383 -23.2381 -23.2381
   -23.2336 -23.2336 -23.2336 -23.2336 -23.1817 -23.1817 -23.1816 -23.1816
   -22.8035 -22.8035 -22.8034 -22.8033 -22.7545 -22.7545 -22.7545 -22.7545
   -22.7370 -22.7369 -22.7368 -22.7368 -22.7114 -22.7113 -22.7111 -22.7111
   -22.6910 -22.6910 -22.6908 -22.6908 -22.6556 -22.6556 -22.6556 -22.6556
    15.1167  15.1168  15.1172  15.1172  15.8754  15.8754  15.8758  15.8759
    17.0481  17.0481  17.0484  17.0484  17.2974  17.2975  17.2978  17.2978
    17.4178  17.4178  17.4180  17.4181  17.4183  17.4183  17.4186  17.4186
    17.8580  17.8580  17.8581  17.8581  17.8854  17.8854  17.8854  17.8854
    17.8899  17.8899  17.8900  17.8900  18.0653  18.0653  18.0654  18.0654
    18.1385  18.1386  18.1387  18.1387  18.3101  18.3101  18.3102  18.3102
    21.1408  21.1409  21.1411  21.1411  21.2149  21.2150  21.2152  21.2153
    21.3182  21.3183  21.3185  21.3186  21.4011  21.4011  21.4012  21.4012
    21.4121  21.4122  21.4125  21.4125  21.4484  21.4484

          k =-0.5029-0.5029-0.5029 ( 12400 PWs)   bands (ev):

   -51.7088 -51.7085 -51.7085 -51.7085 -51.7081 -51.7080 -51.7080 -51.7080
   -51.5719 -51.5717 -51.5717 -51.5716 -51.5712 -51.5712 -51.5712 -51.5711
   -23.2911 -23.2911 -23.2911 -23.2911 -23.2911 -23.2910 -23.2910 -23.2910
   -23.2907 -23.2906 -23.2906 -23.2906 -23.2906 -23.2905 -23.2905 -23.2905
   -23.2299 -23.2299 -23.2299 -23.2298 -23.2294 -23.2294 -23.2294 -23.2294
   -22.7672 -22.7672 -22.7672 -22.7671 -22.7667 -22.7667 -22.7667 -22.7667
   -22.7011 -22.7011 -22.7011 -22.7011 -22.7011 -22.7011 -22.7010 -22.7010
   -22.7007 -22.7006 -22.7006 -22.7006 -22.7006 -22.7005 -22.7005 -22.7005
    15.4964  15.4965  15.4965  15.4965  15.4968  15.4969  15.4969  15.4969
    17.3575  17.3575  17.3576  17.3576  17.3576  17.3576  17.3577  17.3577
    17.3579  17.3580  17.3580  17.3580  17.3580  17.3580  17.3581  17.3581
    17.9441  17.9441  17.9441  17.9442  17.9444  17.9444  17.9444  17.9445
    17.9605  17.9605  17.9606  17.9606  17.9606  17.9607  17.9607  17.9607
    17.9610  17.9610  17.9610  17.9610  17.9610  17.9610  17.9610  17.9610
    21.2723  21.2723  21.2725  21.2725  21.2725  21.2725  21.2725  21.2726
    21.2729  21.2729  21.2729  21.2729  21.2730  21.2730  21.2730  21.2730
    21.6616  21.6616  21.6617  21.6618  21.6618  21.6619

 ------ SPIN DOWN ----------


          k = 0.0559 0.0559 0.0559 ( 12308 PWs)   bands (ev):

   -51.8561 -51.6660 -51.6660 -51.6658 -51.6326 -51.6326 -51.6325 -51.6322
   -51.6322 -51.6319 -51.6289 -51.6289 -51.6288 -51.6134 -51.6120 -51.4751
   -23.5685 -23.5685 -23.5685 -23.5639 -23.5639 -23.5639 -23.2602 -23.2602
   -23.2489 -23.1559 -23.1513 -23.1513 -23.1513 -23.1145 -23.1145 -23.0932
   -23.0931 -23.0931 -23.0285 -23.0285 -22.9861 -22.9401 -22.9401 -22.9401
   -22.9220 -22.9219 -22.9219 -22.8956 -22.8956 -22.8956 -22.8901 -22.8900
   -22.8900 -22.8804 -22.8804 -22.8804 -22.8635 -22.8635 -22.8634 -22.5944
   -22.5944 -22.5944 -22.5926 -22.5890 -22.5889 -22.5889 -22.5810 -22.5810
    12.1287  15.5086  15.5086  15.5086  15.5296  15.5296  15.5296  15.6170
    15.6170  15.8176  15.8176  15.8176  16.2438  16.2438  16.2438  17.4866
    17.5309  17.5310  17.5310  17.5473  17.5473  17.5474  17.5952  17.5952
    17.7725  17.7725  17.8359  17.9235  17.9235  17.9235  18.3943  18.3944
    18.3944  19.1174  19.1174  19.1745  19.4740  19.4740  19.4741  19.5944
    19.5945  19.5945  19.6991  19.6991  19.6991  19.8120  19.8120  19.8120
    20.7243  20.7244  20.7244  20.8060  20.8060  20.8060  21.0257  21.0257
    21.0257  21.0515  21.0515  21.0515  21.2377  21.2378  21.2378  21.2505
    21.2505  21.2987  21.2988  21.2988  21.6166  21.6166

          k = 0.0559 0.0559 0.1676 ( 12315 PWs)   bands (ev):

   -51.8493 -51.6999 -51.6644 -51.6643 -51.6361 -51.6360 -51.6320 -51.6319
   -51.6310 -51.6279 -51.6273 -51.6272 -51.6145 -51.6129 -51.6006 -51.4798
   -23.5548 -23.5548 -23.5532 -23.5490 -23.5404 -23.5404 -23.2667 -23.2493
   -23.2324 -23.2188 -23.2018 -23.2018 -23.1992 -23.1973 -23.1459 -23.1459
   -23.0858 -23.0384 -23.0252 -22.9993 -22.9801 -22.9444 -22.9397 -22.9397
   -22.9208 -22.9070 -22.9019 -22.9019 -22.9007 -22.8861 -22.8860 -22.8813
   -22.8812 -22.8769 -22.8769 -22.8223 -22.8204 -22.8203 -22.8068 -22.6194
   -22.6097 -22.6097 -22.6077 -22.6035 -22.5941 -22.5941 -22.5907 -22.5856
    12.2673  15.2600  15.5412  15.5412  15.6055  15.6055  15.6220  15.6417
    15.6888  15.6991  15.8576  15.8576  16.2743  16.2743  16.4893  17.3536
    17.4649  17.4776  17.5095  17.5112  17.5260  17.5900  17.5901  17.6389
    17.6390  17.6412  17.8854  17.8855  18.0058  18.0134  18.2959  18.2959
    18.8367  19.0844  19.1094  19.2180  19.2181  19.2483  19.3002  19.4292
    19.4292  19.4703  19.7981  19.7982  19.9395  19.9396  19.9768  20.0974
    20.2308  20.2309  20.4322  20.5195  20.5195  20.5316  20.6614  21.0038
    21.0038  21.1520  21.1521  21.1527  21.2522  21.2523  21.2627  21.2896
    21.2923  21.2980  21.2980  21.3274  21.6205  21.6502

          k = 0.0559 0.0559 0.2794 ( 12341 PWs)   bands (ev):

   -51.8361 -51.7331 -51.6613 -51.6612 -51.6410 -51.6409 -51.6309 -51.6307
   -51.6289 -51.6267 -51.6266 -51.6259 -51.6167 -51.6148 -51.5711 -51.4893
   -23.5233 -23.5230 -23.5230 -23.5199 -23.4994 -23.4993 -23.2902 -23.2807
   -23.2719 -23.2719 -23.2708 -23.2311 -23.2279 -23.2200 -23.2200 -23.2084
   -23.0575 -23.0564 -23.0365 -23.0273 -22.9496 -22.9361 -22.9361 -22.9286
   -22.9204 -22.9092 -22.9091 -22.8833 -22.8832 -22.8811 -22.8811 -22.8646
   -22.8508 -22.8197 -22.8197 -22.7676 -22.7664 -22.7663 -22.7533 -22.6627
   -22.6348 -22.6348 -22.6345 -22.6320 -22.6097 -22.6094 -22.6094 -22.6015
    12.5393  14.6378  15.6195  15.6195  15.7310  15.7310  15.8313  15.8399
    15.8525  15.8569  15.9020  15.9020  16.2842  16.2842  16.5474  17.0366
    17.1753  17.2439  17.4130  17.4768  17.4840  17.4893  17.7221  17.7222
    17.8030  17.8030  17.9083  17.9083  18.2438  18.2438  18.2983  18.3193
    18.8725  18.8726  19.0609  19.0623  19.0624  19.0899  19.0975  19.1763
    19.3571  19.5800  19.6095  19.6095  19.8428  19.8428  20.0836  20.1073
    20.1073  20.1289  20.1529  20.1530  20.1574  20.3084  20.4417  20.9615
    21.0180  21.0180  21.1453  21.1454  21.3099  21.3293  21.3650  21.3752
    21.3752  21.5958  21.5976  21.6203  21.6278  21.6583

          k = 0.0559 0.0559 0.3911 ( 12332 PWs)   bands (ev):

   -51.8170 -51.7645 -51.6570 -51.6569 -51.6464 -51.6462 -51.6294 -51.6293
   -51.6270 -51.6269 -51.6261 -51.6233 -51.6196 -51.6174 -51.5447 -51.5035
   -23.4794 -23.4775 -23.4754 -23.4754 -23.4432 -23.4432 -23.3599 -23.3561
   -23.3452 -23.3452 -23.2988 -23.2988 -23.2710 -23.2535 -23.1967 -23.1761
   -23.1095 -23.0889 -23.0257 -23.0048 -22.9580 -22.9470 -22.9307 -22.9306
   -22.9166 -22.9166 -22.8817 -22.8817 -22.8809 -22.8808 -22.8708 -22.7916
   -22.7836 -22.7631 -22.7630 -22.7222 -22.7177 -22.7147 -22.7146 -22.7045
   -22.6737 -22.6734 -22.6692 -22.6691 -22.6376 -22.6350 -22.6350 -22.6274
    12.9336  14.0128  15.7264  15.7264  15.8933  15.8933  15.9004  15.9004
    16.0419  16.0549  16.1443  16.1562  16.2143  16.2143  16.4553  16.6508
    16.8731  16.8899  17.3925  17.4169  17.4373  17.4480  17.9217  17.9217
    18.0324  18.0324  18.0927  18.0927  18.3270  18.3270  18.5594  18.5595
    18.6680  18.6886  18.6966  18.6966  19.0152  19.0152  19.0502  19.0886
    19.0985  19.1048  19.2179  19.2179  19.5036  19.5900  19.5959  19.9073
    19.9486  20.3945  20.3945  20.4315  20.4316  20.6859  20.6897  20.8347
    20.8415  20.8416  20.9698  20.9698  21.3743  21.3872  21.4718  21.5260
    21.5300  21.5345  21.6375  21.6593  21.6661  21.6761

          k = 0.0559 0.0559-0.5029 ( 12312 PWs)   bands (ev):

   -51.7930 -51.7926 -51.6520 -51.6519 -51.6517 -51.6516 -51.6282 -51.6281
   -51.6279 -51.6278 -51.6230 -51.6228 -51.6206 -51.6201 -51.5222 -51.5218
   -23.4236 -23.4233 -23.4232 -23.4228 -23.4148 -23.4148 -23.4147 -23.4147
   -23.3750 -23.3750 -23.3749 -23.3749 -23.2660 -23.2658 -23.1570 -23.1566
   -23.1361 -23.1358 -22.9914 -22.9912 -22.9764 -22.9760 -22.9242 -22.9241
   -22.9238 -22.9238 -22.8812 -22.8811 -22.8808 -22.8808 -22.7935 -22.7932
   -22.7275 -22.7272 -22.7238 -22.7235 -22.7124 -22.7124 -22.7123 -22.7123
   -22.6740 -22.6736 -22.6702 -22.6702 -22.6702 -22.6701 -22.6624 -22.6621
    13.4328  13.4333  15.8330  15.8330  15.8332  15.8332  16.0679  16.0679
    16.0681  16.0681  16.2715  16.2718  16.3167  16.3171  16.5069  16.5073
    16.5096  16.5101  17.4046  17.4049  17.4171  17.4173  18.1754  18.1755
    18.1755  18.1756  18.2881  18.2882  18.2883  18.2883  18.5362  18.5362
    18.5365  18.5365  18.7222  18.7222  18.7225  18.7225  19.0594  19.0596
    19.0903  19.0905  19.1035  19.1036  19.1161  19.1162  19.6877  19.6880
    20.3402  20.3405  20.6302  20.6302  20.6302  20.6302  20.7274  20.7274
    20.7275  20.7275  21.1064  21.1066  21.2603  21.2605  21.4490  21.4493
    21.4566  21.4570  21.6045  21.6048  21.6483  21.6487

          k = 0.0559 0.1676 0.1676 ( 12328 PWs)   bands (ev):

   -51.8427 -51.6973 -51.6972 -51.6627 -51.6457 -51.6349 -51.6348 -51.6313
   -51.6263 -51.6262 -51.6198 -51.6161 -51.6135 -51.6011 -51.6009 -51.4844
   -23.5504 -23.5401 -23.5401 -23.5271 -23.5271 -23.5078 -23.2790 -23.2585
   -23.2450 -23.2449 -23.2428 -23.2339 -23.2243 -23.2065 -23.1813 -23.1037
   -23.0794 -23.0793 -23.0194 -22.9979 -22.9978 -22.9506 -22.9339 -22.9338
   -22.9187 -22.9151 -22.9151 -22.9102 -22.8967 -22.8966 -22.8894 -22.8722
   -22.8716 -22.8392 -22.8245 -22.8244 -22.7875 -22.7664 -22.7663 -22.6545
   -22.6347 -22.6201 -22.6201 -22.6076 -22.6076 -22.5988 -22.5886 -22.5815
    12.4038  15.3191  15.3191  15.5195  15.6555  15.6555  15.7158  15.7163
    15.7163  15.7616  15.7783  15.9083  16.3196  16.5234  16.5234  17.2315
    17.3667  17.4668  17.4668  17.5668  17.5668  17.5786  17.6105  17.6106
    17.6160  17.7269  17.7622  17.8246  17.9982  18.0293  18.1827  18.6474
    18.6474  19.0084  19.0588  19.0589  19.0883  19.1155  19.2813  19.3715
    19.6900  19.6901  19.7561  19.7561  19.7691  19.8929  20.0194  20.0586
    20.0586  20.1505  20.1506  20.2556  20.2556  20.3750  20.7121  20.7123
    21.0099  21.1367  21.1804  21.1804  21.2205  21.2559  21.2559  21.2610
    21.2693  21.4727  21.5806  21.5882  21.5882  21.6292

          k = 0.0559 0.1676 0.2794 ( 12347 PWs)   bands (ev):

   -51.8299 -51.7295 -51.6922 -51.6597 -51.6560 -51.6396 -51.6326 -51.6301
   -51.6258 -51.6245 -51.6188 -51.6149 -51.6138 -51.6018 -51.5724 -51.4936
   -23.5284 -23.5112 -23.5101 -23.5011 -23.4889 -23.4584 -23.3098 -23.3094
   -23.2916 -23.2868 -23.2863 -23.2753 -23.2390 -23.2226 -23.1745 -23.1560
   -23.0827 -23.0541 -23.0112 -23.0048 -22.9909 -22.9896 -22.9542 -22.9398
   -22.9355 -22.9246 -22.9159 -22.8946 -22.8937 -22.8749 -22.8590 -22.8462
   -22.8278 -22.8167 -22.7921 -22.7710 -22.7455 -22.7169 -22.7161 -22.7065
   -22.6684 -22.6411 -22.6404 -22.6338 -22.6196 -22.6171 -22.5937 -22.5878
    12.6712  14.7182  15.4129  15.5285  15.7340  15.8405  15.8689  15.8751
    15.8974  15.9280  15.9341  15.9727  16.3560  16.5232  16.5919  17.0675
    17.0975  17.2068  17.4942  17.5264  17.5516  17.5622  17.6089  17.6886
    17.7146  17.7582  17.8035  17.9565  18.0917  18.1849  18.2472  18.5136
    18.7461  18.8620  18.8736  18.9371  18.9584  19.0112  19.0632  19.2401
    19.3074  19.4974  19.5282  19.6682  19.7442  19.8287  19.8297  19.8739
    20.0006  20.1150  20.1434  20.2070  20.2398  20.4307  20.4311  20.8454
    20.9911  21.0501  21.0852  21.1494  21.1907  21.2365  21.2882  21.3178
    21.5110  21.5727  21.5760  21.6071  21.6568  21.6622

          k = 0.0559 0.1676 0.3911 ( 12324 PWs)   bands (ev):

   -51.8112 -51.7601 -51.6850 -51.6664 -51.6554 -51.6449 -51.6295 -51.6287
[...]
    20.9386  20.9387  20.9459  20.9461  21.0439  21.0440  21.2154  21.2157
    21.2383  21.2386  21.3900  21.3904  21.4332  21.4334

          k = 0.1676-0.5029-0.5029 ( 12316 PWs)   bands (ev):

   -51.7411 -51.7411 -51.7408 -51.7407 -51.6571 -51.6571 -51.6568 -51.6567
   -51.6070 -51.6069 -51.6066 -51.6065 -51.5545 -51.5544 -51.5541 -51.5540
   -23.4030 -23.4030 -23.4030 -23.4030 -23.3878 -23.3877 -23.3876 -23.3875
   -23.3578 -23.3578 -23.3576 -23.3576 -23.1258 -23.1258 -23.1256 -23.1254
   -23.1067 -23.1067 -23.1066 -23.1066 -23.0996 -23.0996 -23.0995 -23.0995
   -22.8887 -22.8886 -22.8885 -22.8885 -22.8834 -22.8834 -22.8833 -22.8833
   -22.7310 -22.7309 -22.7307 -22.7305 -22.6962 -22.6962 -22.6961 -22.6960
   -22.6801 -22.6800 -22.6799 -22.6799 -22.5969 -22.5969 -22.5969 -22.5969
    14.5591  14.5592  14.5595  14.5596  16.4063  16.4063  16.4066  16.4066
    16.5556  16.5557  16.5559  16.5560  16.9277  16.9277  16.9279  16.9279
    17.2050  17.2051  17.2054  17.2055  17.5252  17.5253  17.5255  17.5255
    17.6883  17.6883  17.6884  17.6885  18.1454  18.1454  18.1455  18.1455
    18.2328  18.2328  18.2329  18.2329  18.3635  18.3635  18.3636  18.3636
    18.6195  18.6196  18.6196  18.6197  19.1613  19.1613  19.1614  19.1614
    20.8231  20.8231  20.8232  20.8233  20.9501  20.9501  20.9503  20.9504
    21.0918  21.0919  21.0920  21.0921  21.0948  21.0949  21.0950  21.0951
    21.1263  21.1263  21.1264  21.1264  21.3690  21.3691

          k = 0.2794 0.2794 0.2794 ( 12313 PWs)   bands (ev):

   -51.8005 -51.7129 -51.7129 -51.7127 -51.6653 -51.6653 -51.6651 -51.6367
   -51.6074 -51.6025 -51.6025 -51.6023 -51.5787 -51.5787 -51.5785 -51.5132
   -23.4727 -23.4726 -23.4726 -23.3914 -23.3914 -23.3914 -23.3607 -23.3555
   -23.3555 -23.3555 -23.2799 -23.2799 -23.2420 -23.2420 -23.1536 -23.1535
   -23.1535 -23.0956 -23.0955 -23.0955 -23.0430 -23.0299 -23.0299 -23.0298
   -22.8601 -22.8497 -22.8497 -22.8497 -22.8478 -22.8478 -22.8463 -22.8461
   -22.8461 -22.7844 -22.7844 -22.7844 -22.7242 -22.6948 -22.6948 -22.6948
   -22.6536 -22.6536 -22.6535 -22.6283 -22.6282 -22.6282 -22.6132 -22.6132
    13.3063  15.1295  15.1295  15.1295  15.8106  15.8106  15.8106  16.2667
    16.2667  16.3356  16.3357  16.3357  16.8632  16.8633  16.8633  17.0032
    17.1519  17.1520  17.1520  17.4754  17.4969  17.4969  17.6979  17.6980
    17.6980  17.9335  17.9335  17.9336  17.9627  17.9627  18.3040  18.3041
    18.3041  18.5285  18.5285  18.5286  18.6552  18.6552  18.6552  18.7211
    18.7211  18.9160  18.9160  18.9160  19.0231  19.0232  19.0232  20.1659
    20.3340  20.4618  20.4618  20.4618  20.7364  20.7365  20.7365  20.9262
    20.9263  20.9263  21.1324  21.1324  21.1989  21.1989  21.1989  21.3449
    21.3450  21.3450  21.5300  21.5301  21.5309  21.5364

          k = 0.2794 0.2794 0.3911 ( 12307 PWs)   bands (ev):

   -51.7842 -51.7394 -51.7037 -51.7036 -51.6792 -51.6791 -51.6594 -51.6447
   -51.6049 -51.6027 -51.5942 -51.5940 -51.5823 -51.5822 -51.5573 -51.5244
   -23.4477 -23.4476 -23.4309 -23.3835 -23.3820 -23.3819 -23.3680 -23.3534
   -23.3357 -23.3357 -23.3137 -23.3133 -23.2463 -23.2113 -23.2112 -23.1932
   -23.1527 -23.1014 -23.1013 -23.0827 -23.0802 -23.0636 -23.0635 -22.9934
   -22.9287 -22.8943 -22.8588 -22.8574 -22.8251 -22.8251 -22.8011 -22.8011
   -22.7930 -22.7930 -22.7786 -22.7302 -22.7246 -22.7246 -22.7060 -22.6910
   -22.6674 -22.6435 -22.6421 -22.6420 -22.6315 -22.6287 -22.6287 -22.6108
    13.6635  14.6084  15.3443  15.3443  15.7096  15.7096  16.1540  16.4299
    16.4781  16.5162  16.5162  16.5979  16.8442  16.8472  16.8473  16.8828
    16.9951  17.0316  17.3542  17.3542  17.5205  17.6337  17.7517  17.7750
    17.7789  17.8121  17.8121  18.0238  18.0239  18.1365  18.1365  18.1513
    18.3353  18.3353  18.4073  18.4074  18.4352  18.4797  18.5118  18.5156
    18.5856  18.6117  18.6118  18.6419  18.7174  18.7174  19.2013  19.8914
    20.4492  20.6317  20.6831  20.6832  20.8031  20.8032  20.8585  20.8585
    20.9898  21.0492  21.0661  21.0947  21.0947  21.1132  21.2620  21.2653
    21.4466  21.4481  21.5351  21.5351  21.5371  21.5415

          k = 0.2794 0.2794-0.5029 ( 12298 PWs)   bands (ev):

   -51.7637 -51.7633 -51.6924 -51.6923 -51.6921 -51.6920 -51.6526 -51.6523
   -51.6036 -51.6033 -51.5876 -51.5875 -51.5873 -51.5871 -51.5393 -51.5390
   -23.4153 -23.4152 -23.4152 -23.4151 -23.3774 -23.3771 -23.3755 -23.3753
   -23.3387 -23.3386 -23.2741 -23.2741 -23.2740 -23.2740 -23.2036 -23.2033
   -23.1389 -23.1387 -23.0892 -23.0891 -23.0889 -23.0889 -23.0037 -23.0037
   -22.9437 -22.9435 -22.8615 -22.8613 -22.8064 -22.8064 -22.8061 -22.8061
   -22.7603 -22.7602 -22.7601 -22.7601 -22.7182 -22.7178 -22.6948 -22.6946
   -22.6829 -22.6826 -22.6334 -22.6334 -22.6334 -22.6333 -22.6170 -22.6170
    14.1071  14.1076  15.5517  15.5517  15.5521  15.5521  16.5729  16.5733
    16.6380  16.6384  16.6924  16.6927  16.6977  16.6977  16.6979  16.6979
    16.8565  16.8568  17.5700  17.5703  17.6809  17.6810  17.7162  17.7163
    17.7166  17.7166  17.9661  17.9662  17.9663  17.9664  18.1239  18.1241
    18.3419  18.3421  18.4246  18.4247  18.4247  18.4247  18.4533  18.4533
    18.4533  18.4534  18.5003  18.5004  18.5461  18.5463  19.5000  19.5000
    20.7533  20.7533  20.8165  20.8168  20.8250  20.8250  20.8250  20.8250
    20.9073  20.9073  20.9075  20.9075  21.2941  21.2944  21.3518  21.3521
    21.4143  21.4146  21.4149  21.4150  21.5416  21.5418

          k = 0.2794 0.3911 0.3911 ( 12296 PWs)   bands (ev):

   -51.7691 -51.7280 -51.7279 -51.6971 -51.6951 -51.6724 -51.6723 -51.6545
   -51.6006 -51.5954 -51.5953 -51.5853 -51.5817 -51.5634 -51.5632 -51.5342
   -23.4280 -23.4098 -23.4098 -23.3804 -23.3729 -23.3728 -23.3594 -23.3414
   -23.3414 -23.3255 -23.3201 -23.2751 -23.2505 -23.2419 -23.2079 -23.1575
   -23.1574 -23.1422 -23.1420 -23.1300 -23.1181 -23.1180 -23.1064 -22.9957
   -22.9425 -22.8456 -22.8455 -22.8329 -22.8288 -22.8287 -22.7990 -22.7886
   -22.7646 -22.7601 -22.7537 -22.7402 -22.7401 -22.7089 -22.7088 -22.6995
   -22.6634 -22.6634 -22.6595 -22.6489 -22.6276 -22.6275 -22.6246 -22.6165
    14.0039  14.8807  14.8807  15.4715  15.6009  16.0495  16.0496  16.5728
    16.6582  16.6926  16.7836  16.7836  16.8335  16.8335  16.8407  17.0773
    17.0844  17.1649  17.1650  17.2852  17.6017  17.7095  17.7100  17.7346
    17.7346  17.8018  17.8019  17.9055  17.9075  17.9991  18.0634  18.2304
    18.2304  18.2322  18.2463  18.2463  18.2616  18.2616  18.2649  18.3853
    18.3853  18.4420  18.4432  18.4662  18.5307  18.8262  18.8262  19.4542
    20.7677  20.8158  20.8158  20.8422  20.8821  20.9716  21.0391  21.0505
    21.0506  21.0817  21.0817  21.0988  21.1751  21.1751  21.2438  21.3815
    21.4139  21.4140  21.4168  21.4467  21.5199  21.5314

          k = 0.2794 0.3911-0.5029 ( 12306 PWs)   bands (ev):

   -51.7502 -51.7499 -51.7138 -51.7134 -51.6846 -51.6842 -51.6641 -51.6638
   -51.5977 -51.5973 -51.5898 -51.5895 -51.5716 -51.5712 -51.5474 -51.5470
   -23.4007 -23.4007 -23.3902 -23.3901 -23.3638 -23.3635 -23.3519 -23.3519
   -23.3497 -23.3495 -23.2957 -23.2955 -23.2092 -23.2091 -23.2062 -23.2059
   -23.1709 -23.1708 -23.1398 -23.1396 -23.1362 -23.1361 -23.0687 -23.0687
   -22.8930 -22.8929 -22.8303 -22.8302 -22.8101 -22.8100 -22.8005 -22.8004
   -22.7600 -22.7598 -22.7334 -22.7333 -22.7073 -22.7070 -22.7003 -22.7002
   -22.6950 -22.6946 -22.6569 -22.6568 -22.6246 -22.6246 -22.6194 -22.6194
    14.4204  14.4209  15.1836  15.1840  15.8573  15.8577  16.4519  16.4523
    16.7158  16.7162  16.7667  16.7669  16.9414  16.9417  16.9757  16.9759
    17.0319  17.0322  17.5280  17.5283  17.5531  17.5535  17.6528  17.6528
    17.6598  17.6600  17.8643  17.8645  17.9380  17.9381  18.0459  18.0460
    18.1431  18.1433  18.1594  18.1596  18.2745  18.2745  18.3195  18.3195
    18.3657  18.3658  18.4411  18.4412  18.5066  18.5066  19.0823  19.0823
    20.9494  20.9496  20.9618  20.9619  20.9923  20.9925  21.0183  21.0185
    21.0509  21.0510  21.1079  21.1079  21.2771  21.2774  21.2798  21.2800
    21.3557  21.3558  21.3576  21.3580  21.4486  21.4489

          k = 0.2794-0.5029-0.5029 ( 12292 PWs)   bands (ev):

   -51.7334 -51.7333 -51.7331 -51.7329 -51.6750 -51.6749 -51.6747 -51.6745
   -51.5932 -51.5931 -51.5928 -51.5927 -51.5582 -51.5581 -51.5578 -51.5577
   -23.3769 -23.3769 -23.3769 -23.3769 -23.3685 -23.3684 -23.3683 -23.3682
   -23.3218 -23.3218 -23.3216 -23.3216 -23.1812 -23.1811 -23.1809 -23.1808
   -23.1691 -23.1691 -23.1690 -23.1690 -23.1391 -23.1390 -23.1389 -23.1389
   -22.8449 -22.8449 -22.8448 -22.8448 -22.8161 -22.8160 -22.8160 -22.8160
   -22.7220 -22.7219 -22.7217 -22.7216 -22.7132 -22.7132 -22.7130 -22.7130
   -22.6838 -22.6838 -22.6836 -22.6836 -22.6207 -22.6206 -22.6206 -22.6206
    14.7925  14.7926  14.7930  14.7930  16.1881  16.1882  16.1885  16.1885
    16.7635  16.7635  16.7638  16.7638  17.1676  17.1676  17.1678  17.1678
    17.2445  17.2446  17.2448  17.2449  17.4746  17.4747  17.4749  17.4750
    17.7658  17.7658  17.7659  17.7659  17.9600  17.9600  17.9601  17.9601
    18.1514  18.1514  18.1515  18.1515  18.1604  18.1604  18.1605  18.1605
    18.3769  18.3769  18.3770  18.3771  18.7338  18.7338  18.7338  18.7338
    21.0305  21.0305  21.0307  21.0308  21.1511  21.1512  21.1514  21.1515
    21.1595  21.1596  21.1596  21.1597  21.2109  21.2110  21.2110  21.2111
    21.3498  21.3499  21.3501  21.3502  21.4783  21.4784

          k = 0.3911 0.3911 0.3911 ( 12292 PWs)   bands (ev):

   -51.7551 -51.7174 -51.7174 -51.7172 -51.6888 -51.6888 -51.6887 -51.6669
   -51.5938 -51.5845 -51.5845 -51.5843 -51.5685 -51.5685 -51.5683 -51.5428
   -23.3881 -23.3881 -23.3881 -23.3620 -23.3620 -23.3619 -23.3386 -23.2933
   -23.2933 -23.2932 -23.2899 -23.2899 -23.2762 -23.2762 -23.1905 -23.1905
   -23.1905 -23.1887 -23.1886 -23.1886 -23.1652 -23.1652 -23.1651 -23.0560
   -22.8928 -22.8032 -22.8031 -22.8031 -22.7850 -22.7850 -22.7849 -22.7673
   -22.7673 -22.7416 -22.7415 -22.7415 -22.7342 -22.7341 -22.7341 -22.7033
   -22.6617 -22.6617 -22.6617 -22.6490 -22.6490 -22.6433 -22.6433 -22.6432
    14.3370  15.1759  15.1759  15.1760  15.8142  15.8142  15.8142  16.6137
    16.8088  16.8088  16.9446  16.9447  16.9447  17.1152  17.1152  17.1152
    17.1590  17.1591  17.1591  17.2590  17.6599  17.6599  17.7757  17.7757
    17.8237  17.8238  17.8238  17.8780  17.8780  17.8780  17.9484  17.9484
    17.9484  18.1183  18.1184  18.1184  18.1213  18.1213  18.1214  18.1785
    18.1785  18.1786  18.3460  18.3460  18.4591  18.4592  18.4592  19.0164
    20.9542  20.9542  20.9542  21.1185  21.1506  21.1506  21.1506  21.1660
    21.1660  21.1848  21.1848  21.1848  21.2233  21.2234  21.2234  21.4090
    21.4092  21.4418  21.4419  21.4420  21.4634  21.4635

          k = 0.3911 0.3911-0.5029 ( 12348 PWs)   bands (ev):

   -51.7378 -51.7375 -51.7043 -51.7042 -51.7039 -51.7038 -51.6787 -51.6784
   -51.5886 -51.5882 -51.5757 -51.5756 -51.5754 -51.5752 -51.5544 -51.5540
   -23.3675 -23.3675 -23.3674 -23.3674 -23.3371 -23.3368 -23.3312 -23.3311
   -23.3155 -23.3153 -23.2447 -23.2443 -23.2409 -23.2409 -23.2408 -23.2407
   -23.2236 -23.2235 -23.1939 -23.1939 -23.1937 -23.1937 -23.1225 -23.1224
   -22.8460 -22.8459 -22.7781 -22.7780 -22.7658 -22.7657 -22.7657 -22.7656
   -22.7552 -22.7552 -22.7550 -22.7550 -22.7148 -22.7147 -22.7100 -22.7097
   -22.6912 -22.6909 -22.6560 -22.6560 -22.6559 -22.6559 -22.6435 -22.6434
    14.7399  14.7404  15.5063  15.5063  15.5067  15.5067  16.2197  16.2201
    16.9525  16.9529  17.0399  17.0402  17.0660  17.0660  17.0662  17.0662
    17.2416  17.2419  17.5020  17.5020  17.5024  17.5024  17.6947  17.6948
    17.7374  17.7377  17.8335  17.8338  17.8380  17.8382  17.9549  17.9549
    17.9550  17.9551  18.0978  18.0978  18.0979  18.0980  18.1564  18.1564
    18.1564  18.1564  18.2201  18.2202  18.2354  18.2356  18.6574  18.6575
    21.0666  21.0668  21.0966  21.0966  21.0969  21.0969  21.2315  21.2315
    21.2316  21.2316  21.2924  21.2927  21.3139  21.3142  21.3793  21.3795
    21.4295  21.4298  21.4320  21.4321  21.4323  21.4324

          k = 0.3911-0.5029-0.5029 ( 12332 PWs)   bands (ev):

   -51.7223 -51.7222 -51.7219 -51.7218 -51.6924 -51.6923 -51.6920 -51.6919
   -51.5813 -51.5812 -51.5810 -51.5808 -51.5638 -51.5637 -51.5635 -51.5634
   -23.3392 -23.3392 -23.3391 -23.3391 -23.3355 -23.3355 -23.3353 -23.3352
   -23.2776 -23.2776 -23.2775 -23.2774 -23.2383 -23.2382 -23.2381 -23.2380
   -23.2335 -23.2335 -23.2334 -23.2334 -23.1817 -23.1817 -23.1815 -23.1815
   -22.8034 -22.8034 -22.8033 -22.8032 -22.7545 -22.7545 -22.7544 -22.7544
   -22.7369 -22.7369 -22.7367 -22.7367 -22.7113 -22.7112 -22.7110 -22.7110
   -22.6910 -22.6909 -22.6908 -22.6907 -22.6556 -22.6555 -22.6555 -22.6555
    15.1172  15.1172  15.1176  15.1177  15.8758  15.8759  15.8762  15.8763
    17.0482  17.0482  17.0485  17.0485  17.2975  17.2976  17.2978  17.2979
    17.4180  17.4181  17.4182  17.4183  17.4184  17.4185  17.4187  17.4188
    17.8582  17.8582  17.8583  17.8583  17.8856  17.8856  17.8856  17.8856
    17.8901  17.8902  17.8903  17.8903  18.0656  18.0656  18.0657  18.0657
    18.1388  18.1388  18.1389  18.1390  18.3104  18.3105  18.3105  18.3105
    21.1407  21.1407  21.1409  21.1410  21.2148  21.2149  21.2151  21.2152
    21.3180  21.3181  21.3183  21.3185  21.4012  21.4012  21.4013  21.4014
    21.4120  21.4121  21.4123  21.4124  21.4485  21.4486

          k =-0.5029-0.5029-0.5029 ( 12400 PWs)   bands (ev):

   -51.7084 -51.7084 -51.7084 -51.7082 -51.7081 -51.7081 -51.7080 -51.7077
   -51.5715 -51.5715 -51.5715 -51.5714 -51.5712 -51.5712 -51.5712 -51.5709
   -23.2909 -23.2909 -23.2909 -23.2909 -23.2908 -23.2908 -23.2908 -23.2908
   -23.2907 -23.2907 -23.2907 -23.2906 -23.2906 -23.2905 -23.2905 -23.2905
   -23.2297 -23.2297 -23.2296 -23.2296 -23.2295 -23.2294 -23.2294 -23.2294
   -22.7670 -22.7670 -22.7669 -22.7669 -22.7668 -22.7668 -22.7667 -22.7667
   -22.7010 -22.7010 -22.7009 -22.7009 -22.7009 -22.7008 -22.7008 -22.7008
   -22.7008 -22.7007 -22.7007 -22.7006 -22.7006 -22.7006 -22.7005 -22.7005
    15.4968  15.4969  15.4969  15.4970  15.4972  15.4973  15.4973  15.4974
    17.3577  17.3577  17.3577  17.3577  17.3577  17.3577  17.3578  17.3578
    17.3580  17.3580  17.3580  17.3581  17.3581  17.3581  17.3582  17.3582
    17.9445  17.9445  17.9446  17.9446  17.9446  17.9446  17.9446  17.9446
    17.9609  17.9609  17.9609  17.9610  17.9610  17.9610  17.9610  17.9610
    17.9611  17.9612  17.9612  17.9612  17.9612  17.9613  17.9613  17.9613
    21.2723  21.2723  21.2724  21.2724  21.2724  21.2724  21.2725  21.2726
    21.2726  21.2726  21.2727  21.2727  21.2727  21.2727  21.2729  21.2729
    21.6619  21.6619  21.6619  21.6620  21.6620  21.6620

     the Fermi energy is    20.0276 ev

!    total energy              =   -3971.53502862 Ry
     Harris-Foulkes estimate   =   -3971.53502795 Ry
     estimated scf accuracy    <       0.00000049 Ry

     total all-electron energy =    -33628.057908 Ry

     The total energy is the sum of the following terms:

     one-electron contribution =    -862.74537372 Ry
     hartree contribution      =     572.69332094 Ry
     xc contribution           =    -356.87137414 Ry
     ewald contribution        =   -2136.63680414 Ry
     one-center paw contrib.   =   -1187.99072859 Ry
     smearing contrib. (-TS)   =       0.01593102 Ry

     total magnetization       =     0.00 Bohr mag/cell
     absolute magnetization    =     0.02 Bohr mag/cell

     convergence has been achieved in  26 iterations

     Forces acting on atoms (cartesian axes, Ry/au):

     atom    1 type  1   force =     0.00000000    0.00000000    0.00000000
     atom    2 type  2   force =     0.00007114    0.00007114    0.00007114
     atom    3 type  1   force =     0.00000000   -0.00000000    0.00000000
     atom    4 type  2   force =     0.00007114    0.00007114   -0.00007114
     atom    5 type  1   force =     0.00000000    0.00000000    0.00000000
     atom    6 type  2   force =     0.00007114   -0.00007114    0.00007114
     atom    7 type  1   force =     0.00000000    0.00000000    0.00000000
     atom    8 type  2   force =     0.00007114   -0.00007114   -0.00007114
     atom    9 type  1   force =     0.00000000    0.00000000   -0.00000000
     atom   10 type  2   force =    -0.00007114    0.00007114    0.00007114
     atom   11 type  1   force =     0.00000000   -0.00000000    0.00000000
     atom   12 type  2   force =    -0.00007114    0.00007114   -0.00007114
     atom   13 type  1   force =     0.00000000    0.00000000    0.00000000
     atom   14 type  2   force =    -0.00007114   -0.00007114    0.00007114
     atom   15 type  1   force =     0.00000000    0.00000000    0.00000000
     atom   16 type  2   force =    -0.00007114   -0.00007114   -0.00007114

     Total force =     0.000348     Total SCF correction =     0.002122
     SCF correction compared to forces is large: reduce conv_thr to get better values


     Computing stress (Cartesian axis) and pressure

          total   stress  (Ry/bohr**3)                   (kbar)     P=   49.46
   0.00033620   0.00000000   0.00000000         49.46      0.00      0.00
   0.00000000   0.00033620   0.00000000          0.00     49.46      0.00
   0.00000000   0.00000000   0.00033620          0.00      0.00     49.46


     Writing output data file hCfDYAnqgxEFiQUd.save/
 
     init_run     :      9.34s CPU      9.75s WALL (       1 calls)
     electrons    :    803.08s CPU    822.82s WALL (       1 calls)
     forces       :      3.32s CPU      3.46s WALL (       1 calls)
     stress       :     11.65s CPU     11.69s WALL (       1 calls)

     Called by init_run:
     wfcinit      :      8.67s CPU      8.99s WALL (       1 calls)
     potinit      :      0.34s CPU      0.36s WALL (       1 calls)
     hinit0       :      0.11s CPU      0.12s WALL (       1 calls)

     Called by electrons:
     c_bands      :    717.53s CPU    733.23s WALL (      27 calls)
     sum_band     :     75.06s CPU     78.44s WALL (      27 calls)
     v_of_rho     :      0.79s CPU      0.83s WALL (      27 calls)
     newd         :      1.83s CPU      2.18s WALL (      27 calls)
     PAW_pot      :      7.81s CPU      8.06s WALL (      27 calls)
     mix_rho      :      0.25s CPU      0.27s WALL (      27 calls)

     Called by c_bands:
     init_us_2    :      5.65s CPU      5.70s WALL (    3990 calls)
     cegterg      :    688.75s CPU    704.20s WALL (    1890 calls)

     Called by sum_band:
     sum_band:bec :      0.81s CPU      0.82s WALL (    1890 calls)
     addusdens    :      3.27s CPU      3.74s WALL (      27 calls)

     Called by *egterg:
     h_psi        :    303.69s CPU    314.79s WALL (    7498 calls)
     s_psi        :     28.69s CPU     28.79s WALL (    7498 calls)
     g_psi        :      1.57s CPU      1.58s WALL (    5538 calls)
     cdiaghg      :    265.96s CPU    266.59s WALL (    7358 calls)

     Called by h_psi:
     h_psi:pot    :    302.17s CPU    313.25s WALL (    7498 calls)
     h_psi:calbec :     31.87s CPU     34.40s WALL (    7498 calls)
     vloc_psi     :    242.31s CPU    250.77s WALL (    7498 calls)
     add_vuspsi   :     27.92s CPU     28.02s WALL (    7498 calls)

     General routines
     calbec       :     48.92s CPU     52.67s WALL (    9738 calls)
     fft          :      0.59s CPU      0.64s WALL (     717 calls)
     ffts         :      0.06s CPU      0.06s WALL (     108 calls)
     fftw         :    274.56s CPU    283.96s WALL ( 1451294 calls)
     interpolate  :      0.08s CPU      0.09s WALL (      54 calls)
 
     Parallel routines
     fft_scatt_xy :     22.81s CPU     23.60s WALL ( 1452119 calls)
     fft_scatt_yz :    133.09s CPU    138.13s WALL ( 1452119 calls)
 
     PWSCF        : 13m52.03s CPU    14m21.51s WALL

 
   This run was terminated on:   5:41:58  15Jun2020            

=------------------------------------------------------------------------------=
   JOB DONE.
=------------------------------------------------------------------------------=
