
     Program PWSCF v.6.3 starts on 15Jun2020 at  5: 2:43 

     This program is part of the open-source Quantum ESPRESSO suite
     for quantum simulation of materials; please cite
         "P. Giannozzi et al., J. Phys.:Condens. Matter 21 395502 (2009);
         "P. Giannozzi et al., J. Phys.:Condens. Matter 29 465901 (2017);
          URL http://www.quantum-espresso.org", 
     in publications or presentations arising from this work. More details at
     http://www.quantum-espresso.org/quote

     Parallel version (MPI & OpenMP), running on      20 processor cores
     Number of MPI processes:                20
     Threads/MPI process:                     1

     MPI processes distributed on     1 nodes
     R & G space division:  proc/nbgrp/npool/nimage =      20
     Reading input from wd/eos/eos_004.in
Warning: card &IONS ignored
Warning: card ION_DYNAMICS = 'BFGS', ignored
Warning: card / ignored
Warning: card &CELL ignored
Warning: card CELL_DYNAMICS = 'BFGS', ignored
Warning: card CELL_FACTOR = 2.0, ignored
Warning: card PRESS = 0.0, ignored
Warning: card / ignored

     Current dimensions of program PWSCF are:
     Max number of different atomic species (ntypx) = 10
     Max number of k-points (npk) =  40000
     Max angular momentum in pseudopotentials (lmaxx) =  3
     Message from routine read_upf::
     Pseudo file /rds/homes/b/bxp912/pp/Cr.pbe-spn-kjpaw_psl.1.0.0.UPF has been successfully fixed on the fly.
To avoid this message in the future you can permanently fix 
 your pseudo files following instructions given in: 
https://gitlab.com/QEF/q-e/blob/master/upftools/how_to_fix_upf.md
               file Cr.pbe-spn-kjpaw_psl.1.0.0.UPF: wavefunction(s)  3S 3P 3D renormalized
     Message from routine read_upf::
     Pseudo file /rds/homes/b/bxp912/pp/Cr.pbe-spn-kjpaw_psl.1.0.0.UPF has been successfully fixed on the fly.
To avoid this message in the future you can permanently fix 
 your pseudo files following instructions given in: 
https://gitlab.com/QEF/q-e/blob/master/upftools/how_to_fix_upf.md
               file Cr.pbe-spn-kjpaw_psl.1.0.0.UPF: wavefunction(s)  3S 3P 3D renormalized

     Subspace diagonalization in iterative solution of the eigenvalue problem:
     a serial algorithm will be used

     Found symmetry operation: I + (  0.0000  0.0000  0.5000)
     This is a supercell, fractional translations are disabled
 
     Parallelization info
     --------------------
     sticks:   dense  smooth     PW     G-vecs:    dense   smooth      PW
     Min         193     127     35                 9011     4855     719
     Max         194     129     36                 9014     4858     722
     Sum        3861    2561    717               180251    97137   14411
 


     bravais-lattice index     =            0
     lattice parameter (alat)  =      10.7442  a.u.
     unit-cell volume          =    1198.2470 (a.u.)^3
     number of atoms/cell      =           16
     number of atomic types    =            2
     number of electrons       =       224.00
     number of Kohn-Sham states=          134
     kinetic-energy cutoff     =      71.0000  Ry
     charge density cutoff     =     430.0000  Ry
     convergence threshold     =      1.0E-06
     mixing beta               =       0.1000
     number of iterations used =           10  plain     mixing
     Exchange-correlation      = SLA PW PBX PBC ( 1  4  3  4 0 0)

     celldm(1)=  10.744199  celldm(2)=   0.000000  celldm(3)=   0.000000
     celldm(4)=   0.000000  celldm(5)=   0.000000  celldm(6)=   0.000000

     crystal axes: (cart. coord. in units of alat)
               a(1) = (   0.988571   0.000000   0.000000 )  
               a(2) = (   0.000000   0.988571   0.000000 )  
               a(3) = (   0.000000   0.000000   0.988571 )  

     reciprocal axes: (cart. coord. in units 2 pi/alat)
               b(1) = (  1.011561  0.000000  0.000000 )  
               b(2) = (  0.000000  1.011561  0.000000 )  
               b(3) = (  0.000000  0.000000  1.011561 )  


     PseudoPot. # 1 for Cr read from file:
     /rds/homes/b/bxp912/pp/Cr.pbe-spn-kjpaw_psl.1.0.0.UPF
     MD5 check sum: cb1c17117da000fe5e03c4f1a6841d9c
     Pseudo is Projector augmented-wave + core cor, Zval = 14.0
     Generated using "atomic" code by A. Dal Corso v.5.1
     Shape of augmentation charge: PSQ
     Using radial grid of 1183 points,  6 beta functions with: 
                l(1) =   0
                l(2) =   0
                l(3) =   1
                l(4) =   1
                l(5) =   2
                l(6) =   2
     Q(r) pseudized with 0 coefficients 


     PseudoPot. # 2 for Cr read from file:
     /rds/homes/b/bxp912/pp/Cr.pbe-spn-kjpaw_psl.1.0.0.UPF
     MD5 check sum: cb1c17117da000fe5e03c4f1a6841d9c
     Pseudo is Projector augmented-wave + core cor, Zval = 14.0
     Generated using "atomic" code by A. Dal Corso v.5.1
     Shape of augmentation charge: PSQ
     Using radial grid of 1183 points,  6 beta functions with: 
                l(1) =   0
                l(2) =   0
                l(3) =   1
                l(4) =   1
                l(5) =   2
                l(6) =   2
     Q(r) pseudized with 0 coefficients 


     atomic species   valence    mass     pseudopotential
        Cr1           14.00    55.84500     Cr( 1.00)
        Cr2           14.00    55.84500     Cr( 1.00)

     Starting magnetic structure 
     atomic species   magnetization
        Cr1          0.100
        Cr2          0.100

     48 Sym. Ops., with inversion, found



   Cartesian axes

     site n.     atom                  positions (alat units)
         1           Cr1 tau(   1) = (   0.0000000   0.0000000   0.0000000  )
         2           Cr2 tau(   2) = (   0.2471432   0.2471432   0.2471429  )
         3           Cr1 tau(   3) = (   0.0000000   0.0000000   0.4942847  )
         4           Cr2 tau(   4) = (   0.2471432   0.2471432   0.7414276  )
         5           Cr1 tau(   5) = (   0.0000000   0.4942856   0.0000000  )
         6           Cr2 tau(   6) = (   0.2471432   0.7414279   0.2471429  )
         7           Cr1 tau(   7) = (   0.0000000   0.4942856   0.4942847  )
         8           Cr2 tau(   8) = (   0.2471432   0.7414279   0.7414276  )
         9           Cr1 tau(   9) = (   0.4942856   0.0000000   0.0000000  )
        10           Cr2 tau(  10) = (   0.7414279   0.2471432   0.2471429  )
        11           Cr1 tau(  11) = (   0.4942856   0.0000000   0.4942847  )
        12           Cr2 tau(  12) = (   0.7414279   0.2471432   0.7414276  )
        13           Cr1 tau(  13) = (   0.4942856   0.4942856   0.0000000  )
        14           Cr2 tau(  14) = (   0.7414279   0.7414279   0.2471429  )
        15           Cr1 tau(  15) = (   0.4942856   0.4942856   0.4942847  )
        16           Cr2 tau(  16) = (   0.7414279   0.7414279   0.7414276  )

     number of k points=    35  Marzari-Vanderbilt smearing, width (Ry)=  0.0400
                       cart. coord. in units 2pi/alat
        k(    1) = (   0.0561978   0.0561978   0.0561978), wk =   0.0109739
        k(    2) = (   0.0561978   0.0561978   0.1685934), wk =   0.0329218
        k(    3) = (   0.0561978   0.0561978   0.2809891), wk =   0.0329218
        k(    4) = (   0.0561978   0.0561978   0.3933847), wk =   0.0329218
        k(    5) = (   0.0561978   0.0561978  -0.5057803), wk =   0.0164609
        k(    6) = (   0.0561978   0.1685934   0.1685934), wk =   0.0329218
        k(    7) = (   0.0561978   0.1685934   0.2809891), wk =   0.0658436
        k(    8) = (   0.0561978   0.1685934   0.3933847), wk =   0.0658436
        k(    9) = (   0.0561978   0.1685934  -0.5057803), wk =   0.0329218
        k(   10) = (   0.0561978   0.2809891   0.2809891), wk =   0.0329218
        k(   11) = (   0.0561978   0.2809891   0.3933847), wk =   0.0658436
        k(   12) = (   0.0561978   0.2809891  -0.5057803), wk =   0.0329218
        k(   13) = (   0.0561978   0.3933847   0.3933847), wk =   0.0329218
        k(   14) = (   0.0561978   0.3933847  -0.5057803), wk =   0.0329218
        k(   15) = (   0.0561978  -0.5057803  -0.5057803), wk =   0.0082305
        k(   16) = (   0.1685934   0.1685934   0.1685934), wk =   0.0109739
        k(   17) = (   0.1685934   0.1685934   0.2809891), wk =   0.0329218
        k(   18) = (   0.1685934   0.1685934   0.3933847), wk =   0.0329218
        k(   19) = (   0.1685934   0.1685934  -0.5057803), wk =   0.0164609
        k(   20) = (   0.1685934   0.2809891   0.2809891), wk =   0.0329218
        k(   21) = (   0.1685934   0.2809891   0.3933847), wk =   0.0658436
        k(   22) = (   0.1685934   0.2809891  -0.5057803), wk =   0.0329218
        k(   23) = (   0.1685934   0.3933847   0.3933847), wk =   0.0329218
        k(   24) = (   0.1685934   0.3933847  -0.5057803), wk =   0.0329218
        k(   25) = (   0.1685934  -0.5057803  -0.5057803), wk =   0.0082305
        k(   26) = (   0.2809891   0.2809891   0.2809891), wk =   0.0109739
        k(   27) = (   0.2809891   0.2809891   0.3933847), wk =   0.0329218
        k(   28) = (   0.2809891   0.2809891  -0.5057803), wk =   0.0164609
        k(   29) = (   0.2809891   0.3933847   0.3933847), wk =   0.0329218
        k(   30) = (   0.2809891   0.3933847  -0.5057803), wk =   0.0329218
        k(   31) = (   0.2809891  -0.5057803  -0.5057803), wk =   0.0082305
        k(   32) = (   0.3933847   0.3933847   0.3933847), wk =   0.0109739
        k(   33) = (   0.3933847   0.3933847  -0.5057803), wk =   0.0164609
        k(   34) = (   0.3933847  -0.5057803  -0.5057803), wk =   0.0082305
        k(   35) = (  -0.5057803  -0.5057803  -0.5057803), wk =   0.0013717

     Dense  grid:   180251 G-vectors     FFT dimensions: (  72,  72,  72)

     Smooth grid:    97137 G-vectors     FFT dimensions: (  60,  60,  60)

     Estimated max dynamical RAM per process >     138.40 MB

     Estimated total dynamical RAM >       2.70 GB
     Generating pointlists ...
     new r_m :   0.1766 (alat units)  1.8972 (a.u.) for type    1
     new r_m :   0.1766 (alat units)  1.8972 (a.u.) for type    2

     Check: negative/imaginary core charge=   -0.000009    0.000000

     Initial potential from superposition of free atoms

     starting charge  223.98764, renormalised to  224.00000
     Starting wfcs are  160 randomized atomic wfcs
     Checking if some PAW data can be deallocated... 

     total cpu time spent up to now is       11.5 secs

     Self-consistent Calculation

     iteration #  1     ecut=    71.00 Ry     beta= 0.10
     Davidson diagonalization with overlap
     ethr =  1.00E-02,  avg # of iterations =  3.1

     Threshold (ethr) on eigenvalues was too large:
     Diagonalizing with lowered threshold

     Davidson diagonalization with overlap
     ethr =  7.94E-04,  avg # of iterations =  3.5

     total cpu time spent up to now is       69.9 secs

     total energy              =   -3971.37876786 Ry
     Harris-Foulkes estimate   =   -3971.55253359 Ry
     estimated scf accuracy    <       1.92972866 Ry

     total magnetization       =     4.48 Bohr mag/cell
     absolute magnetization    =     4.66 Bohr mag/cell

     iteration #  2     ecut=    71.00 Ry     beta= 0.10
     Davidson diagonalization with overlap
     ethr =  8.61E-04,  avg # of iterations =  1.0

     total cpu time spent up to now is       89.8 secs

     total energy              =   -3971.08021099 Ry
     Harris-Foulkes estimate   =   -3971.40110597 Ry
     estimated scf accuracy    <       1.25572600 Ry

     total magnetization       =     4.35 Bohr mag/cell
     absolute magnetization    =     4.50 Bohr mag/cell

     iteration #  3     ecut=    71.00 Ry     beta= 0.10
     Davidson diagonalization with overlap
     ethr =  5.61E-04,  avg # of iterations =  3.1

     total cpu time spent up to now is      122.1 secs

     total energy              =   -3971.36724363 Ry
     Harris-Foulkes estimate   =   -3971.42075863 Ry
     estimated scf accuracy    <       0.28844707 Ry

     total magnetization       =     3.56 Bohr mag/cell
     absolute magnetization    =     3.67 Bohr mag/cell

     iteration #  4     ecut=    71.00 Ry     beta= 0.10
     Davidson diagonalization with overlap
     ethr =  1.29E-04,  avg # of iterations =  1.9

     total cpu time spent up to now is      145.3 secs

     total energy              =   -3971.41491325 Ry
     Harris-Foulkes estimate   =   -3971.37875891 Ry
     estimated scf accuracy    <       0.18835908 Ry

     total magnetization       =     3.45 Bohr mag/cell
     absolute magnetization    =     3.59 Bohr mag/cell

     iteration #  5     ecut=    71.00 Ry     beta= 0.10
     Davidson diagonalization with overlap
     ethr =  8.41E-05,  avg # of iterations =  2.9

     total cpu time spent up to now is      175.3 secs

     total energy              =   -3971.48222355 Ry
     Harris-Foulkes estimate   =   -3971.45656209 Ry
     estimated scf accuracy    <       0.15414605 Ry

     total magnetization       =     2.34 Bohr mag/cell
     absolute magnetization    =     2.52 Bohr mag/cell

     iteration #  6     ecut=    71.00 Ry     beta= 0.10
     Davidson diagonalization with overlap
     ethr =  6.88E-05,  avg # of iterations =  2.4

     total cpu time spent up to now is      201.8 secs

     total energy              =   -3971.51978947 Ry
     Harris-Foulkes estimate   =   -3971.51990564 Ry
     estimated scf accuracy    <       0.00694516 Ry

     total magnetization       =     0.26 Bohr mag/cell
     absolute magnetization    =     0.40 Bohr mag/cell

     iteration #  7     ecut=    71.00 Ry     beta= 0.10
     Davidson diagonalization with overlap
     c_bands:  2 eigenvalues not converged
     c_bands:  1 eigenvalues not converged
     ethr =  3.10E-06,  avg # of iterations =  6.6

     total cpu time spent up to now is      248.7 secs

     total energy              =   -3971.51888806 Ry
     Harris-Foulkes estimate   =   -3971.52113083 Ry
     estimated scf accuracy    <       0.00588615 Ry

     total magnetization       =     0.16 Bohr mag/cell
     absolute magnetization    =     0.43 Bohr mag/cell

     iteration #  8     ecut=    71.00 Ry     beta= 0.10
     Davidson diagonalization with overlap
     ethr =  2.63E-06,  avg # of iterations =  4.2

     total cpu time spent up to now is      296.7 secs

     total energy              =   -3971.52083409 Ry
     Harris-Foulkes estimate   =   -3971.52319441 Ry
     estimated scf accuracy    <       0.01145995 Ry

     total magnetization       =     0.09 Bohr mag/cell
     absolute magnetization    =     0.28 Bohr mag/cell

     iteration #  9     ecut=    71.00 Ry     beta= 0.10
     Davidson diagonalization with overlap
     ethr =  2.63E-06,  avg # of iterations =  2.8

     total cpu time spent up to now is      325.4 secs

     total energy              =   -3971.52145296 Ry
     Harris-Foulkes estimate   =   -3971.52169858 Ry
     estimated scf accuracy    <       0.00138033 Ry

     total magnetization       =     0.08 Bohr mag/cell
     absolute magnetization    =     0.15 Bohr mag/cell

     iteration # 10     ecut=    71.00 Ry     beta= 0.10
     Davidson diagonalization with overlap
     ethr =  6.16E-07,  avg # of iterations =  3.6

     total cpu time spent up to now is      357.1 secs

     total energy              =   -3971.52164565 Ry
     Harris-Foulkes estimate   =   -3971.52163770 Ry
     estimated scf accuracy    <       0.00010582 Ry

     total magnetization       =     0.04 Bohr mag/cell
     absolute magnetization    =     0.11 Bohr mag/cell

     iteration # 11     ecut=    71.00 Ry     beta= 0.10
     Davidson diagonalization with overlap
     ethr =  4.72E-08,  avg # of iterations =  5.7

     total cpu time spent up to now is      401.8 secs

     total energy              =   -3971.52167340 Ry
     Harris-Foulkes estimate   =   -3971.52166918 Ry
     estimated scf accuracy    <       0.00015004 Ry

     total magnetization       =     0.04 Bohr mag/cell
     absolute magnetization    =     0.11 Bohr mag/cell

     iteration # 12     ecut=    71.00 Ry     beta= 0.10
     Davidson diagonalization with overlap
     ethr =  4.72E-08,  avg # of iterations =  2.5

     total cpu time spent up to now is      426.3 secs

     total energy              =   -3971.52161333 Ry
     Harris-Foulkes estimate   =   -3971.52168198 Ry
     estimated scf accuracy    <       0.00043566 Ry

     total magnetization       =     0.04 Bohr mag/cell
     absolute magnetization    =     0.12 Bohr mag/cell

     iteration # 13     ecut=    71.00 Ry     beta= 0.10
     Davidson diagonalization with overlap
     ethr =  4.72E-08,  avg # of iterations =  5.5

     total cpu time spent up to now is      476.3 secs

     total energy              =   -3971.52185196 Ry
     Harris-Foulkes estimate   =   -3971.52178271 Ry
     estimated scf accuracy    <       0.00106296 Ry

     total magnetization       =    -0.05 Bohr mag/cell
     absolute magnetization    =     0.05 Bohr mag/cell

     iteration # 14     ecut=    71.00 Ry     beta= 0.10
     Davidson diagonalization with overlap
     ethr =  4.72E-08,  avg # of iterations =  4.7

     total cpu time spent up to now is      520.6 secs

     total energy              =   -3971.52180645 Ry
     Harris-Foulkes estimate   =   -3971.52190599 Ry
     estimated scf accuracy    <       0.00257222 Ry

     total magnetization       =     0.00 Bohr mag/cell
     absolute magnetization    =     0.05 Bohr mag/cell

     iteration # 15     ecut=    71.00 Ry     beta= 0.10
     Davidson diagonalization with overlap
     ethr =  4.72E-08,  avg # of iterations =  3.7

     total cpu time spent up to now is      549.2 secs

     total energy              =   -3971.52178326 Ry
     Harris-Foulkes estimate   =   -3971.52182148 Ry
     estimated scf accuracy    <       0.00117193 Ry

     total magnetization       =     0.01 Bohr mag/cell
     absolute magnetization    =     0.05 Bohr mag/cell

     iteration # 16     ecut=    71.00 Ry     beta= 0.10
     Davidson diagonalization with overlap
     ethr =  4.72E-08,  avg # of iterations =  3.8

     total cpu time spent up to now is      583.6 secs

     total energy              =   -3971.52178130 Ry
     Harris-Foulkes estimate   =   -3971.52179775 Ry
     estimated scf accuracy    <       0.00036470 Ry

     total magnetization       =     0.00 Bohr mag/cell
     absolute magnetization    =     0.06 Bohr mag/cell

     iteration # 17     ecut=    71.00 Ry     beta= 0.10
     Davidson diagonalization with overlap
     ethr =  4.72E-08,  avg # of iterations =  2.8

     total cpu time spent up to now is      608.7 secs

     total energy              =   -3971.52178944 Ry
     Harris-Foulkes estimate   =   -3971.52178513 Ry
     estimated scf accuracy    <       0.00013934 Ry

     total magnetization       =     0.00 Bohr mag/cell
     absolute magnetization    =     0.06 Bohr mag/cell

     iteration # 18     ecut=    71.00 Ry     beta= 0.10
     Davidson diagonalization with overlap
     ethr =  4.72E-08,  avg # of iterations =  1.4

     total cpu time spent up to now is      629.7 secs

     total energy              =   -3971.52179843 Ry
     Harris-Foulkes estimate   =   -3971.52179265 Ry
     estimated scf accuracy    <       0.00017396 Ry

     total magnetization       =    -0.00 Bohr mag/cell
     absolute magnetization    =     0.05 Bohr mag/cell

     iteration # 19     ecut=    71.00 Ry     beta= 0.10
     Davidson diagonalization with overlap
     ethr =  4.72E-08,  avg # of iterations =  1.0

     total cpu time spent up to now is      649.6 secs

     total energy              =   -3971.52180095 Ry
     Harris-Foulkes estimate   =   -3971.52179967 Ry
     estimated scf accuracy    <       0.00019945 Ry

     total magnetization       =     0.00 Bohr mag/cell
     absolute magnetization    =     0.06 Bohr mag/cell

     iteration # 20     ecut=    71.00 Ry     beta= 0.10
     Davidson diagonalization with overlap
     ethr =  4.72E-08,  avg # of iterations =  1.0

     total cpu time spent up to now is      669.5 secs

     total energy              =   -3971.52179982 Ry
     Harris-Foulkes estimate   =   -3971.52180128 Ry
     estimated scf accuracy    <       0.00019599 Ry

     total magnetization       =     0.00 Bohr mag/cell
     absolute magnetization    =     0.06 Bohr mag/cell

     iteration # 21     ecut=    71.00 Ry     beta= 0.10
     Davidson diagonalization with overlap
     ethr =  4.72E-08,  avg # of iterations =  1.0

     total cpu time spent up to now is      689.4 secs

     total energy              =   -3971.52178425 Ry
     Harris-Foulkes estimate   =   -3971.52180012 Ry
     estimated scf accuracy    <       0.00015310 Ry

     total magnetization       =     0.00 Bohr mag/cell
     absolute magnetization    =     0.06 Bohr mag/cell

     iteration # 22     ecut=    71.00 Ry     beta= 0.10
     Davidson diagonalization with overlap
     ethr =  4.72E-08,  avg # of iterations =  3.4

     total cpu time spent up to now is      719.4 secs

     total energy              =   -3971.52179498 Ry
     Harris-Foulkes estimate   =   -3971.52179481 Ry
     estimated scf accuracy    <       0.00000433 Ry

     total magnetization       =    -0.00 Bohr mag/cell
     absolute magnetization    =     0.06 Bohr mag/cell

     iteration # 23     ecut=    71.00 Ry     beta= 0.10
     Davidson diagonalization with overlap
     ethr =  1.93E-09,  avg # of iterations =  5.2

     total cpu time spent up to now is      770.7 secs

     total energy              =   -3971.52179651 Ry
     Harris-Foulkes estimate   =   -3971.52179669 Ry
     estimated scf accuracy    <       0.00000509 Ry

     total magnetization       =    -0.00 Bohr mag/cell
     absolute magnetization    =     0.06 Bohr mag/cell

     iteration # 24     ecut=    71.00 Ry     beta= 0.10
     Davidson diagonalization with overlap
     ethr =  1.93E-09,  avg # of iterations =  1.4
 
     Magnetic moment per site:
     atom:    1    charge:   12.1922    magn:    0.0045    constr:    0.0000
     atom:    2    charge:   12.1923    magn:   -0.0032    constr:    0.0000
     atom:    3    charge:   12.1923    magn:    0.0034    constr:    0.0000
     atom:    4    charge:   12.1923    magn:   -0.0032    constr:    0.0000
     atom:    5    charge:   12.1923    magn:    0.0034    constr:    0.0000
     atom:    6    charge:   12.1923    magn:   -0.0032    constr:    0.0000
     atom:    7    charge:   12.1923    magn:    0.0031    constr:    0.0000
     atom:    8    charge:   12.1923    magn:   -0.0032    constr:    0.0000
     atom:    9    charge:   12.1923    magn:    0.0034    constr:    0.0000
     atom:   10    charge:   12.1923    magn:   -0.0032    constr:    0.0000
     atom:   11    charge:   12.1923    magn:    0.0031    constr:    0.0000
     atom:   12    charge:   12.1923    magn:   -0.0032    constr:    0.0000
     atom:   13    charge:   12.1923    magn:    0.0031    constr:    0.0000
     atom:   14    charge:   12.1923    magn:   -0.0032    constr:    0.0000
     atom:   15    charge:   12.1921    magn:    0.0028    constr:    0.0000
     atom:   16    charge:   12.1923    magn:   -0.0032    constr:    0.0000

     total cpu time spent up to now is      793.6 secs

     End of self-consistent calculation

 ------ SPIN UP ------------


          k = 0.0562 0.0562 0.0562 ( 12071 PWs)   bands (ev):

   -51.4594 -51.2563 -51.2562 -51.2562 -51.2206 -51.2204 -51.2203 -51.2202
   -51.2201 -51.2201 -51.2157 -51.2156 -51.2156 -51.2003 -51.1970 -51.0522
   -23.1941 -23.1941 -23.1941 -23.1890 -23.1890 -23.1890 -22.8662 -22.8662
   -22.8549 -22.7592 -22.7540 -22.7539 -22.7539 -22.7147 -22.7147 -22.6929
   -22.6929 -22.6929 -22.6243 -22.6243 -22.5795 -22.5296 -22.5296 -22.5295
   -22.5106 -22.5106 -22.5106 -22.4824 -22.4824 -22.4824 -22.4760 -22.4760
   -22.4760 -22.4668 -22.4668 -22.4668 -22.4490 -22.4490 -22.4490 -22.1658
   -22.1657 -22.1657 -22.1641 -22.1604 -22.1604 -22.1603 -22.1517 -22.1517
    12.4751  15.8253  15.8253  15.8253  15.8459  15.8459  15.8459  15.9106
    15.9106  16.1939  16.1939  16.1939  16.6134  16.6134  16.6134  17.8419
    17.8734  17.8734  17.8735  17.8902  17.8902  17.8902  17.9539  17.9539
    18.1381  18.1381  18.2050  18.2652  18.2652  18.2652  18.7473  18.7473
    18.7473  19.4988  19.4988  19.5573  19.8646  19.8647  19.8647  19.9874
    19.9874  19.9875  20.0952  20.0952  20.0952  20.2108  20.2108  20.2108
    21.1431  21.1431  21.1432  21.2444  21.2444  21.2444  21.4517  21.4517
    21.4517  21.5001  21.5001  21.5001  21.6708  21.6708  21.6708  21.6795
    21.6795  21.7366  21.7366  21.7367  22.0579  22.0579

          k = 0.0562 0.0562 0.1686 ( 12089 PWs)   bands (ev):

   -51.4521 -51.2924 -51.2545 -51.2544 -51.2242 -51.2241 -51.2197 -51.2196
   -51.2191 -51.2145 -51.2142 -51.2142 -51.2015 -51.1981 -51.1863 -51.0573
   -23.1793 -23.1793 -23.1780 -23.1734 -23.1645 -23.1644 -22.8737 -22.8548
   -22.8374 -22.8255 -22.8069 -22.8069 -22.8042 -22.8024 -22.7483 -22.7483
   -22.6849 -22.6349 -22.6208 -22.5920 -22.5718 -22.5356 -22.5291 -22.5291
   -22.5107 -22.4949 -22.4890 -22.4890 -22.4876 -22.4721 -22.4721 -22.4676
   -22.4676 -22.4632 -22.4632 -22.4058 -22.4037 -22.4037 -22.3893 -22.1914
   -22.1821 -22.1821 -22.1801 -22.1757 -22.1657 -22.1656 -22.1616 -22.1563
    12.6160  15.6382  15.8609  15.8609  15.9237  15.9237  15.9411  15.9604
    15.9838  15.9958  16.2321  16.2321  16.6424  16.6424  16.8484  17.7046
    17.7963  17.8307  17.8536  17.8675  17.8689  17.9339  17.9339  17.9841
    17.9841  18.0024  18.2285  18.2285  18.3808  18.3872  18.6491  18.6491
    19.2018  19.4649  19.4906  19.6021  19.6021  19.6329  19.6865  19.8184
    19.8184  19.8586  20.1951  20.1951  20.3407  20.3407  20.3797  20.5033
    20.6549  20.6549  20.8440  20.9555  20.9555  20.9667  21.1035  21.4300
    21.4300  21.5787  21.5825  21.5825  21.6862  21.6862  21.6962  21.7198
    21.7268  21.7313  21.7313  21.7609  22.0619  22.0911

          k = 0.0562 0.0562 0.2810 ( 12109 PWs)   bands (ev):

   -51.4380 -51.3279 -51.2511 -51.2510 -51.2293 -51.2292 -51.2184 -51.2184
   -51.2168 -51.2137 -51.2137 -51.2124 -51.2038 -51.2002 -51.1547 -51.0674
   -23.1463 -23.1459 -23.1459 -23.1429 -23.1212 -23.1212 -22.9006 -22.8902
   -22.8807 -22.8807 -22.8777 -22.8377 -22.8322 -22.8262 -22.8262 -22.8117
   -22.6549 -22.6519 -22.6309 -22.6231 -22.5415 -22.5253 -22.5253 -22.5180
   -22.5088 -22.4966 -22.4966 -22.4694 -22.4694 -22.4673 -22.4673 -22.4517
   -22.4365 -22.4030 -22.4030 -22.3482 -22.3468 -22.3468 -22.3331 -22.2381
   -22.2085 -22.2085 -22.2082 -22.2058 -22.1819 -22.1818 -22.1815 -22.1731
    12.8921  15.0138  15.9448  15.9448  16.0535  16.0535  16.1290  16.1551
    16.1637  16.1803  16.2709  16.2709  16.6461  16.6462  16.8940  17.3587
    17.5240  17.5970  17.7619  17.8193  17.8322  17.8376  18.0692  18.0692
    18.1521  18.1521  18.2577  18.2577  18.6013  18.6013  18.6818  18.7024
    19.2480  19.2481  19.4407  19.4424  19.4424  19.4674  19.4783  19.5594
    19.7442  19.9649  20.0190  20.0191  20.2626  20.2626  20.5103  20.5113
    20.5113  20.5585  20.5585  20.5588  20.5628  20.7194  20.8560  21.3817
    21.4446  21.4447  21.5759  21.5760  21.7444  21.7644  21.7975  21.8109
    21.8109  22.0366  22.0391  22.0612  22.0694  22.1009

          k = 0.0562 0.0562 0.3934 ( 12113 PWs)   bands (ev):

   -51.4176 -51.3614 -51.2465 -51.2464 -51.2351 -51.2350 -51.2169 -51.2168
   -51.2142 -51.2141 -51.2138 -51.2096 -51.2069 -51.2030 -51.1265 -51.0825
   -23.1000 -23.0982 -23.0955 -23.0955 -23.0617 -23.0617 -22.9743 -22.9698
   -22.9584 -22.9583 -22.9095 -22.9095 -22.8784 -22.8609 -22.7996 -22.7779
   -22.7079 -22.6861 -22.6209 -22.5986 -22.5490 -22.5369 -22.5196 -22.5196
   -22.5047 -22.5047 -22.4678 -22.4678 -22.4671 -22.4671 -22.4582 -22.3743
   -22.3658 -22.3436 -22.3435 -22.3009 -22.2955 -22.2926 -22.2926 -22.2818
   -22.2499 -22.2493 -22.2446 -22.2446 -22.2110 -22.2086 -22.2086 -22.2004
    13.2921  14.3839  16.0603  16.0603  16.2226  16.2226  16.2586  16.2586
    16.3438  16.3660  16.4746  16.4860  16.5649  16.5649  16.7890  16.9649
    17.2174  17.2359  17.7384  17.7644  17.7802  17.7914  18.2735  18.2736
    18.3871  18.3871  18.4548  18.4549  18.6928  18.6928  18.9294  18.9294
    19.0617  19.0680  19.0680  19.0821  19.4098  19.4098  19.4297  19.4691
    19.4794  19.4853  19.6210  19.6210  19.8940  20.0059  20.0131  20.3069
    20.3406  20.8054  20.8054  20.8434  20.8434  21.0981  21.1098  21.2584
    21.2634  21.2635  21.3955  21.3956  21.8103  21.8235  21.9077  21.9653
    21.9696  21.9748  22.0795  22.1018  22.1092  22.1195

          k = 0.0562 0.0562-0.5058 ( 12112 PWs)   bands (ev):

   -51.3919 -51.3915 -51.2412 -51.2410 -51.2408 -51.2408 -51.2156 -51.2155
   -51.2151 -51.2151 -51.2105 -51.2102 -51.2066 -51.2060 -51.1025 -51.1021
   -23.0414 -23.0410 -23.0407 -23.0403 -23.0317 -23.0317 -23.0316 -23.0316
   -22.9898 -22.9898 -22.9897 -22.9897 -22.8738 -22.8736 -22.7577 -22.7574
   -22.7357 -22.7354 -22.5847 -22.5844 -22.5686 -22.5682 -22.5126 -22.5126
   -22.5123 -22.5123 -22.4673 -22.4673 -22.4669 -22.4669 -22.3762 -22.3760
   -22.3067 -22.3063 -22.3027 -22.3023 -22.2901 -22.2900 -22.2899 -22.2899
   -22.2496 -22.2492 -22.2459 -22.2459 -22.2459 -22.2458 -22.2373 -22.2370
    13.7977  13.7982  16.1782  16.1782  16.1785  16.1785  16.4067  16.4067
    16.4069  16.4069  16.5931  16.5935  16.6240  16.6244  16.8449  16.8451
    16.8469  16.8474  17.7486  17.7489  17.7617  17.7619  18.5336  18.5336
    18.5337  18.5337  18.6508  18.6509  18.6510  18.6510  18.9144  18.9145
    18.9147  18.9147  19.1082  19.1082  19.1085  19.1085  19.4393  19.4395
    19.4707  19.4710  19.5085  19.5087  19.5206  19.5207  20.0823  20.0826
    20.7426  20.7429  21.0467  21.0467  21.0467  21.0468  21.1468  21.1468
    21.1468  21.1468  21.5365  21.5367  21.6942  21.6944  21.8866  21.8869
    21.8945  21.8949  22.0448  22.0451  22.0906  22.0909

          k = 0.0562 0.1686 0.1686 ( 12102 PWs)   bands (ev):

   -51.4451 -51.2896 -51.2895 -51.2527 -51.2343 -51.2229 -51.2228 -51.2189
   -51.2132 -51.2132 -51.2065 -51.2031 -51.1989 -51.1867 -51.1866 -51.0622
   -23.1748 -23.1639 -23.1639 -23.1504 -23.1504 -23.1300 -22.8865 -22.8673
   -22.8523 -22.8522 -22.8485 -22.8408 -22.8309 -22.8102 -22.7853 -22.7038
   -22.6780 -22.6780 -22.6148 -22.5904 -22.5904 -22.5409 -22.5233 -22.5232
   -22.5066 -22.5033 -22.5032 -22.4996 -22.4835 -22.4835 -22.4762 -22.4593
   -22.4570 -22.4235 -22.4078 -22.4077 -22.3691 -22.3467 -22.3466 -22.2290
   -22.2084 -22.1930 -22.1930 -22.1796 -22.1796 -22.1701 -22.1599 -22.1519
    12.7546  15.6960  15.6960  15.8432  15.9776  15.9776  16.0349  16.0368
    16.0368  16.0588  16.0772  16.2819  16.6874  16.8816  16.8817  17.5786
    17.7176  17.8003  17.8003  17.9105  17.9106  17.9358  17.9555  17.9555
    17.9604  18.0902  18.1104  18.1671  18.3757  18.4042  18.5345  19.0111
    19.0111  19.3869  19.4389  19.4389  19.4689  19.4984  19.6675  19.7591
    20.0855  20.0855  20.1500  20.1500  20.1806  20.2908  20.4217  20.4805
    20.4805  20.5572  20.5573  20.6875  20.6875  20.8150  21.1314  21.1314
    21.4361  21.5623  21.6115  21.6115  21.6522  21.6893  21.6894  21.6903
    21.7042  21.9107  22.0206  22.0287  22.0287  22.0701

          k = 0.0562 0.1686 0.2810 ( 12103 PWs)   bands (ev):

   -51.4313 -51.3241 -51.2841 -51.2494 -51.2453 -51.2279 -51.2204 -51.2177
   -51.2128 -51.2113 -51.2058 -51.2006 -51.2001 -51.1875 -51.1562 -51.0720
   -23.1514 -23.1335 -23.1323 -23.1229 -23.1099 -23.0778 -22.9208 -22.9207
   -22.8999 -22.8965 -22.8965 -22.8841 -22.8461 -22.8268 -22.7759 -22.7587
   -22.6815 -22.6494 -22.6060 -22.5992 -22.5831 -22.5820 -22.5444 -22.5296
   -22.5244 -22.5132 -22.5042 -22.4814 -22.4807 -22.4613 -22.4439 -22.4317
   -22.4112 -22.4006 -22.3739 -22.3515 -22.3246 -22.2947 -22.2938 -22.2843
   -22.2441 -22.2152 -22.2144 -22.2074 -22.1925 -22.1895 -22.1649 -22.1586
    13.0259  15.0939  15.7858  15.8592  16.0616  16.1653  16.1908  16.1977
    16.2017  16.2383  16.2530  16.3422  16.7195  16.8754  16.9380  17.3927
    17.4420  17.5559  17.8475  17.8701  17.8936  17.9069  17.9672  18.0353
    18.0614  18.1068  18.1496  18.3095  18.4448  18.5674  18.6286  18.8784
    19.1187  19.2342  19.2516  19.3137  19.3358  19.3915  19.4430  19.6386
    19.6934  19.9057  19.9196  20.0853  20.1611  20.2528  20.2550  20.2675
    20.4036  20.5177  20.5470  20.6133  20.6478  20.8433  20.8449  21.2671
    21.4124  21.4774  21.5140  21.5796  21.6227  21.6688  21.7220  21.7488
    21.9503  22.0130  22.0167  22.0490  22.0993  22.1054

          k = 0.0562 0.1686 0.3934 ( 12117 PWs)   bands (ev):

   -51.4114 -51.3567 -51.2764 -51.2564 -51.2448 -51.2335 -51.2171 -51.2161
   -51.2133 -51.2093 -51.2087 -51.2030 -51.1951 -51.1891 -51.1289 -51.0865
   -23.1110 -23.0894 -23.0854 -23.0836 -23.0548 -23.0106 -22.9914 -22.9786
   -22.9675 -22.9618 -22.9171 -22.9085 -22.9029 -22.8460 -22.7946 -22.7359
   -22.7044 -22.6455 -22.6381 -22.5873 -22.5721 -22.5649 -22.5418 -22.5411
   -22.5314 -22.5236 -22.5157 -22.4818 -22.4808 -22.4329 -22.4165 -22.3988
   -22.3627 -22.3531 -22.3431 -22.3252 -22.3001 -22.2883 -22.2815 -22.2483
   -22.2481 -22.2473 -22.2468 -22.2439 -22.2180 -22.2139 -22.1814 -22.1774
    13.4182  14.4835  15.8646  15.8876  16.1754  16.3328  16.3529  16.3806
    16.3975  16.4562  16.5137  16.5505  16.6618  16.7664  16.8390  17.0244
    17.2159  17.2576  17.7841  17.8242  17.8470  17.8546  18.1551  18.2145
    18.2322  18.2786  18.3009  18.4563  18.5711  18.7341  18.9013  18.9612
    18.9834  19.0230  19.0940  19.1020  19.2526  19.2624  19.2926  19.3517
    19.3567  19.4142  19.5087  19.6693  19.7623  19.7726  20.1090  20.5371
    20.5747  20.7724  20.7729  20.8507  20.8559  20.8803  21.0918  21.1669
    21.2006  21.3002  21.3977  21.4558  21.6204  21.7485  21.7827  21.8613
    21.9062  21.9323  21.9416  22.0293  22.0950  22.0984

          k = 0.0562 0.1686-0.5058 ( 12100 PWs)   bands (ev):

   -51.3864 -51.3860 -51.2672 -51.2668 -51.2395 -51.2392 -51.2147 -51.2143
   -51.2134 -51.2131 -51.2060 -51.2055 -51.1917 -51.1913 -51.1057 -51.1054
   -23.0564 -23.0563 -23.0345 -23.0341 -23.0334 -23.0330 -23.0270 -23.0269
   -22.9889 -22.9888 -22.9318 -22.9317 -22.9104 -22.9103 -22.7535 -22.7532
   -22.6897 -22.6895 -22.6050 -22.6048 -22.5608 -22.5605 -22.5581 -22.5577
   -22.5337 -22.5334 -22.4814 -22.4811 -22.4320 -22.4319 -22.4239 -22.4236
   -22.3402 -22.3402 -22.3006 -22.3003 -22.2915 -22.2912 -22.2812 -22.2812
   -22.2555 -22.2551 -22.2439 -22.2439 -22.2090 -22.2089 -22.2075 -22.2073
    13.9126  13.9131  15.8984  15.8987  16.2872  16.2874  16.5136  16.5138
    16.5838  16.5840  16.6353  16.6356  16.7126  16.7130  16.8820  16.8823
    16.8920  16.8924  17.7883  17.7885  17.8221  17.8224  18.4031  18.4033
    18.4295  18.4297  18.4642  18.4643  18.5565  18.5569  18.9287  18.9288
    19.0002  19.0004  19.0875  19.0877  19.2196  19.2198  19.2403  19.2404
    19.3115  19.3117  19.3484  19.3486  19.3860  19.3863  20.3272  20.3274
    20.8627  20.8630  20.9233  20.9234  21.0874  21.0874  21.1504  21.1505
    21.1850  21.1852  21.2021  21.2021  21.6056  21.6058  21.8400  21.8404
    21.8596  21.8600  22.0032  22.0035  22.0929  22.0933

          k = 0.0562 0.2810 0.2810 ( 12103 PWs)   bands (ev):

   -51.4183 -51.3167 -51.3166 -51.2618 -51.2461 -51.2253 -51.2252 -51.2164
   -51.2110 -51.2110 -51.2090 -51.2017 -51.1881 -51.1591 -51.1590 -51.0810
   -23.1382 -23.1059 -23.1059 -23.0883 -23.0883 -23.0178 -22.9493 -22.9460
   -22.9459 -22.9276 -22.9257 -22.9242 -22.8835 -22.8069 -22.7328 -22.6829
   -22.6809 -22.6809 -22.6389 -22.6388 -22.5971 -22.5620 -22.5519 -22.5431
   -22.5430 -22.5200 -22.5200 -22.5029 -22.5028 -22.4943 -22.4209 -22.3869
   -22.3585 -22.3584 -22.3574 -22.3492 -22.3365 -22.2950 -22.2877 -22.2481
   -22.2481 -22.2274 -22.2274 -22.2139 -22.2138 -22.2076 -22.1588 -22.1529
    13.2871  15.2360  15.2360  15.7821  16.2848  16.2848  16.3195  16.3534
    16.3771  16.3772  16.4069  16.4467  16.8130  16.9402  16.9402  17.3641
    17.4574  17.5393  17.5393  17.9163  17.9772  17.9772  18.0167  18.0309
    18.0309  18.0434  18.1269  18.2910  18.5104  18.5378  18.6064  18.9873
    18.9874  19.1229  19.1230  19.1422  19.1827  19.1855  19.2488  19.3946
    19.6868  19.6868  19.7710  19.7711  19.9462  19.9977  19.9978  20.1371
    20.6173  20.6174  20.7019  20.7562  20.8068  20.8069  21.0858  21.2146
    21.2147  21.4070  21.5444  21.5444  21.5920  21.6113  21.6113  21.6326
    21.7139  21.9530  21.9564  21.9570  22.0954  22.1061

          k = 0.0562 0.2810 0.3934 ( 12102 PWs)   bands (ev):

   -51.3994 -51.3475 -51.3061 -51.2779 -51.2417 -51.2307 -51.2216 -51.2147
   -51.2131 -51.2116 -51.2087 -51.2037 -51.1780 -51.1636 -51.1337 -51.0944
   -23.1081 -23.0682 -23.0662 -23.0582 -23.0420 -23.0082 -22.9845 -22.9716
   -22.9705 -22.9571 -22.9439 -22.9437 -22.9332 -22.7764 -22.7703 -22.6908
   -22.6849 -22.6597 -22.6228 -22.5967 -22.5821 -22.5817 -22.5783 -22.5775
   -22.5690 -22.5563 -22.5302 -22.5034 -22.5016 -22.4563 -22.4257 -22.4004
   -22.3690 -22.3381 -22.3355 -22.3153 -22.3105 -22.3008 -22.2667 -22.2486
   -22.2455 -22.2455 -22.2340 -22.2256 -22.2091 -22.2089 -22.1639 -22.1597
    13.6630  14.6702  15.4068  15.6915  16.3926  16.4878  16.5125  16.5306
    16.5388  16.5918  16.6394  16.6630  16.8223  16.8520  16.8565  17.2116
    17.2268  17.2598  17.8362  17.8727  17.9126  17.9362  17.9506  18.0697
    18.1164  18.1642  18.2353  18.2616  18.6902  18.6979  18.7079  18.7859
    18.8395  18.9800  18.9909  19.0646  19.0775  19.0865  19.2151  19.2342
    19.2962  19.3385  19.3920  19.3941  19.5389  19.5798  20.3537  20.3785
    20.7940  20.8091  20.9232  20.9343  20.9442  20.9555  20.9607  21.0579
    21.1903  21.2690  21.3780  21.4343  21.4727  21.6033  21.6403  21.6792
    21.7654  21.7874  21.8610  21.8693  21.9898  22.0990

          k = 0.0562 0.2810-0.5058 ( 12108 PWs)   bands (ev):

   -51.3756 -51.3753 -51.2932 -51.2928 -51.2365 -51.2362 -51.2176 -51.2173
   -51.2132 -51.2128 -51.2063 -51.2059 -51.1700 -51.1697 -51.1122 -51.1119
   -23.0637 -23.0636 -23.0225 -23.0222 -23.0221 -23.0217 -23.0191 -23.0190
   -22.9884 -22.9883 -22.9556 -22.9555 -22.8599 -22.8598 -22.7375 -22.7371
   -22.6331 -22.6330 -22.6231 -22.6229 -22.6025 -22.6021 -22.5661 -22.5659
   -22.5585 -22.5583 -22.5099 -22.5099 -22.5041 -22.5039 -22.3950 -22.3950
   -22.3833 -22.3830 -22.2870 -22.2867 -22.2784 -22.2781 -22.2700 -22.2700
   -22.2688 -22.2685 -22.2431 -22.2430 -22.1807 -22.1807 -22.1789 -22.1788
    14.1332  14.1337  15.5668  15.5672  16.4866  16.4868  16.6819  16.6823
    16.7046  16.7048  16.7077  16.7079  16.9121  16.9125  16.9411  16.9415
    16.9735  16.9738  17.8664  17.8667  17.9032  17.9034  18.1893  18.1896
    18.2217  18.2220  18.2392  18.2396  18.4587  18.4588  18.9920  18.9922
    18.9945  18.9946  19.0078  19.0078  19.0137  19.0138  19.0758  19.0759
    19.1855  19.1856  19.2274  19.2275  19.2808  19.2810  20.6400  20.6401
    20.7559  20.7560  20.8340  20.8341  21.0488  21.0490  21.1782  21.1782
    21.2033  21.2035  21.2506  21.2507  21.3895  21.3897  21.7512  21.7515
    21.7709  21.7712  21.9274  21.9277  21.9731  21.9731

          k = 0.0562 0.3934 0.3934 ( 12122 PWs)   bands (ev):

   -51.3820 -51.3344 -51.3343 -51.2987 -51.2373 -51.2269 -51.2268 -51.2176
   -51.2129 -51.2096 -51.2095 -51.2052 -51.1632 -51.1410 -51.1410 -51.1062
   -23.0886 -23.0403 -23.0403 -23.0256 -23.0255 -23.0097 -23.0097 -22.9941
   -22.9870 -22.9869 -22.9748 -22.9583 -22.8648 -22.7487 -22.6862 -22.6861
   -22.6703 -22.6703 -22.6546 -22.6302 -22.6127 -22.5948 -22.5947 -22.5904
   -22.5730 -22.5304 -22.5304 -22.5182 -22.5149 -22.5148 -22.5091 -22.3935
   -22.3715 -22.3261 -22.3261 -22.3021 -22.2887 -22.2789 -22.2577 -22.2541
   -22.2528 -22.2528 -22.2445 -22.2445 -22.1801 -22.1800 -22.1574 -22.1542
    14.0116  14.9187  14.9187  15.4596  16.6067  16.6623  16.6682  16.6816
    16.6816  16.8062  16.8062  16.8292  16.8292  16.8930  16.9527  17.1895
    17.2049  17.5121  17.5121  17.9212  17.9509  17.9540  18.0116  18.0116
    18.0260  18.0260  18.0980  18.2950  18.3582  18.6138  18.7269  18.7274
    18.7275  18.8845  18.9187  18.9626  19.0262  19.0262  19.0502  19.0502
    19.1454  19.1473  19.1473  19.2610  19.3346  19.9229  19.9229  20.6693
    20.7444  20.8388  20.9159  20.9159  21.0852  21.0852  21.1146  21.1268
    21.2904  21.2905  21.3203  21.4460  21.4555  21.4921  21.4921  21.5192
    21.5192  21.7535  21.7541  21.7610  21.8813  22.0039

          k = 0.0562 0.3934-0.5058 ( 12132 PWs)   bands (ev):

   -51.3601 -51.3598 -51.3180 -51.3176 -51.2324 -51.2321 -51.2225 -51.2222
   -51.2113 -51.2109 -51.2075 -51.2071 -51.1510 -51.1506 -51.1219 -51.1216
   -23.0549 -23.0549 -23.0121 -23.0118 -23.0114 -23.0113 -23.0086 -23.0084
   -22.9979 -22.9979 -22.9905 -22.9904 -22.7773 -22.7773 -22.7129 -22.7125
   -22.6440 -22.6436 -22.6306 -22.6305 -22.5990 -22.5989 -22.5977 -22.5977
   -22.5731 -22.5730 -22.5553 -22.5552 -22.5276 -22.5275 -22.4529 -22.4529
   -22.3468 -22.3464 -22.2889 -22.2885 -22.2707 -22.2705 -22.2674 -22.2672
   -22.2626 -22.2624 -22.2469 -22.2468 -22.1626 -22.1626 -22.1612 -22.1612
    14.4406  14.4410  15.1939  15.1943  16.7290  16.7292  16.7324  16.7327
    16.7640  16.7643  16.9347  16.9349  16.9807  16.9810  17.0628  17.0631
    17.1919  17.1923  17.8849  17.8853  17.9396  17.9397  17.9436  17.9436
    17.9959  17.9962  18.0609  18.0612  18.5162  18.5163  18.7655  18.7656
    18.7992  18.7993  18.8435  18.8436  18.8514  18.8515  18.9035  18.9036
    19.1854  19.1855  19.1975  19.1976  19.5136  19.5137  20.3150  20.3151
    20.8327  20.8328  20.9730  20.9731  21.1441  21.1443  21.2380  21.2381
    21.3144  21.3146  21.3199  21.3200  21.3209  21.3211  21.6247  21.6249
    21.6364  21.6367  21.6571  21.6571  21.8408  21.8411

          k = 0.0562-0.5058-0.5058 ( 12104 PWs)   bands (ev):

   -51.3407 -51.3406 -51.3403 -51.3402 -51.2276 -51.2275 -51.2273 -51.2272
   -51.2093 -51.2092 -51.2089 -51.2088 -51.1350 -51.1348 -51.1346 -51.1345
   -23.0320 -23.0320 -23.0319 -23.0319 -23.0081 -23.0081 -23.0079 -23.0078
   -22.9972 -22.9972 -22.9970 -22.9970 -22.6884 -22.6884 -22.6883 -22.6883
   -22.6812 -22.6811 -22.6808 -22.6807 -22.6226 -22.6226 -22.6225 -22.6225
   -22.5456 -22.5456 -22.5456 -22.5456 -22.5127 -22.5127 -22.5126 -22.5126
   -22.3150 -22.3149 -22.3147 -22.3146 -22.2616 -22.2616 -22.2615 -22.2614
   -22.2563 -22.2563 -22.2562 -22.2561 -22.1557 -22.1557 -22.1556 -22.1556
    14.8061  14.8063  14.8066  14.8067  16.7674  16.7674  16.7677  16.7677
    16.9222  16.9223  16.9225  16.9225  17.0794  17.0795  17.0796  17.0797
    17.5260  17.5261  17.5264  17.5265  17.9235  17.9236  17.9237  17.9238
    17.9759  17.9759  17.9760  17.9761  18.6320  18.6321  18.6321  18.6321
    18.7214  18.7215  18.7215  18.7216  18.8130  18.8131  18.8131  18.8132
    19.1643  19.1644  19.1644  19.1644  19.8945  19.8946  19.8946  19.8946
    20.9419  20.9420  20.9421  20.9422  21.3053  21.3053  21.3054  21.3054
    21.3569  21.3569  21.3570  21.3570  21.4723  21.4724  21.4725  21.4726
    21.4769  21.4769  21.4772  21.4772  21.8103  21.8105

          k = 0.1686 0.1686 0.1686 ( 12149 PWs)   bands (ev):

   -51.4382 -51.2869 -51.2868 -51.2868 -51.2328 -51.2327 -51.2327 -51.2062
   -51.2058 -51.2057 -51.2057 -51.1982 -51.1871 -51.1870 -51.1870 -51.0669
   -23.1589 -23.1589 -23.1588 -23.1186 -23.1186 -23.1186 -22.9038 -22.8822
   -22.8822 -22.8822 -22.8747 -22.8747 -22.7919 -22.7919 -22.7751 -22.7178
   -22.7178 -22.7177 -22.6050 -22.6050 -22.6049 -22.5277 -22.5277 -22.5244
   -22.5244 -22.5244 -22.4796 -22.4796 -22.4796 -22.4667 -22.4667 -22.4667
   -22.4135 -22.4135 -22.4134 -22.4127 -22.3179 -22.3178 -22.3178 -22.2671
   -22.2146 -22.2146 -22.2146 -22.1750 -22.1750 -22.1749 -22.1623 -22.1623
    12.8911  15.7618  15.7618  15.7619  15.9635  15.9635  15.9635  16.1452
    16.1452  16.1452  16.1454  16.1454  16.9366  16.9366  16.9366  17.4717
    17.7780  17.7780  17.7780  17.8364  17.8364  17.9371  17.9371  17.9371
    18.0698  18.0699  18.0699  18.2737  18.3005  18.3005  18.8378  18.8378
    18.8378  19.3476  19.3477  19.3477  19.3683  19.3683  19.8568  19.8568
    19.8569  19.9003  20.0642  20.0642  20.0642  20.2877  20.2877  20.2877
    20.5011  20.5011  20.5012  20.6530  20.6530  20.6531  21.3795  21.3795
    21.3796  21.4839  21.4839  21.4840  21.6090  21.6090  21.6926  21.6926
    21.6927  22.0253  22.0253  22.0253  22.0734  22.0735

          k = 0.1686 0.1686 0.2810 ( 12100 PWs)   bands (ev):

   -51.4248 -51.3203 -51.2815 -51.2814 -51.2435 -51.2434 -51.2297 -51.2105
   -51.2043 -51.1996 -51.1995 -51.1982 -51.1878 -51.1878 -51.1575 -51.0763
   -23.1363 -23.1363 -23.1277 -23.0962 -23.0698 -23.0698 -22.9432 -22.9322
   -22.9321 -22.9092 -22.8977 -22.8761 -22.8516 -22.7824 -22.7824 -22.7480
   -22.7349 -22.6666 -22.6407 -22.6080 -22.6079 -22.5569 -22.5461 -22.5461
   -22.5404 -22.5354 -22.4830 -22.4520 -22.4520 -22.4451 -22.4262 -22.4262
   -22.4188 -22.4188 -22.3643 -22.3541 -22.3246 -22.2797 -22.2797 -22.2713
   -22.2438 -22.2438 -22.2279 -22.2043 -22.1828 -22.1785 -22.1784 -22.1634
    13.1584  15.1791  15.8670  15.8670  15.9820  15.9820  16.1952  16.2802
    16.2996  16.2996  16.3069  16.3547  16.9654  16.9655  17.0106  17.3741
    17.3976  17.6849  17.7871  17.8261  17.8261  17.8961  18.0020  18.0326
    18.0326  18.1105  18.2449  18.2449  18.3832  18.5635  18.6814  18.6814
    19.0421  19.1283  19.1283  19.2330  19.2674  19.3340  19.5419  19.5419
    19.5644  19.5644  19.8418  20.0109  20.0109  20.0400  20.0878  20.0944
    20.4270  20.5725  20.5725  20.7629  20.7629  20.9638  21.0946  21.3319
    21.3319  21.4513  21.5705  21.6149  21.6149  21.6556  21.6975  21.7196
    21.7212  21.7212  22.0059  22.0117  22.0336  22.0693

          k = 0.1686 0.1686 0.3934 ( 12113 PWs)   bands (ev):

   -51.4054 -51.3521 -51.2740 -51.2739 -51.2543 -51.2543 -51.2256 -51.2155
   -51.2026 -51.1992 -51.1949 -51.1948 -51.1892 -51.1892 -51.1312 -51.0903
   -23.0983 -23.0983 -23.0820 -23.0647 -23.0074 -23.0074 -22.9906 -22.9905
   -22.9849 -22.9543 -22.9225 -22.9147 -22.8578 -22.8578 -22.8181 -22.7240
   -22.6997 -22.6906 -22.6005 -22.6004 -22.6001 -22.5901 -22.5672 -22.5671
   -22.5584 -22.5377 -22.5037 -22.4405 -22.4405 -22.4245 -22.4245 -22.3953
   -22.3730 -22.3730 -22.3693 -22.3194 -22.3002 -22.2805 -22.2805 -22.2499
   -22.2476 -22.2432 -22.2431 -22.2313 -22.2131 -22.1913 -22.1913 -22.1756
    13.5440  14.5861  15.9647  15.9647  16.0097  16.0097  16.4788  16.4893
    16.4893  16.5192  16.5202  16.6384  16.8742  16.8742  16.9287  17.0458
    17.2169  17.3204  17.7800  17.8476  17.9311  17.9443  18.0493  18.0493
    18.1892  18.1892  18.4436  18.4437  18.5660  18.5660  18.6970  18.8707
    18.9772  18.9772  19.0819  19.0819  19.1600  19.1683  19.1927  19.2119
    19.2120  19.2884  19.4924  19.4925  19.5419  19.5543  20.3042  20.4048
    20.6728  20.8124  20.8839  20.8840  20.8962  20.8962  21.1735  21.1735
    21.2131  21.2278  21.3364  21.4467  21.4467  21.6810  21.7775  21.8194
    21.9119  21.9348  22.0336  22.0336  22.0440  22.0634

          k = 0.1686 0.1686-0.5058 ( 12080 PWs)   bands (ev):

   -51.3810 -51.3806 -51.2649 -51.2648 -51.2645 -51.2645 -51.2208 -51.2205
   -51.2009 -51.2005 -51.1917 -51.1916 -51.1913 -51.1913 -51.1088 -51.1085
   -23.0482 -23.0481 -23.0481 -23.0481 -23.0266 -23.0263 -23.0238 -23.0234
   -22.9350 -22.9350 -22.9349 -22.9349 -22.9237 -22.9236 -22.7753 -22.7749
   -22.6494 -22.6492 -22.6421 -22.6419 -22.5861 -22.5861 -22.5858 -22.5858
   -22.5237 -22.5234 -22.4750 -22.4749 -22.4316 -22.4316 -22.4312 -22.4312
   -22.3238 -22.3238 -22.3237 -22.3237 -22.3029 -22.3025 -22.2807 -22.2805
   -22.2527 -22.2524 -22.2131 -22.2131 -22.2131 -22.2130 -22.1987 -22.1986
    14.0287  14.0292  16.0134  16.0135  16.0137  16.0137  16.6935  16.6935
    16.6937  16.6937  16.7361  16.7365  16.7439  16.7442  16.9092  16.9096
    16.9510  16.9513  17.8043  17.8046  17.8935  17.8937  18.3853  18.3854
    18.3857  18.3857  18.3869  18.3869  18.3871  18.3871  18.9433  18.9434
    18.9435  18.9435  19.0976  19.0977  19.1083  19.1083  19.1084  19.1084
    19.1566  19.1566  19.2056  19.2058  19.2329  19.2332  20.5466  20.5467
    20.7855  20.7856  20.9574  20.9576  21.0215  21.0215  21.0215  21.0216
    21.1990  21.1990  21.1990  21.1991  21.7505  21.7507  21.7995  21.7998
    21.8529  21.8532  21.9666  21.9669  22.0544  22.0547

          k = 0.1686 0.2810 0.2810 ( 12104 PWs)   bands (ev):

   -51.4120 -51.3131 -51.3131 -51.2763 -51.2595 -51.2399 -51.2399 -51.2163
   -51.1987 -51.1987 -51.1968 -51.1884 -51.1880 -51.1603 -51.1602 -51.0850
   -23.1228 -23.1069 -23.1069 -23.0548 -23.0547 -23.0138 -22.9647 -22.9561
   -22.9525 -22.9524 -22.9119 -22.8925 -22.8469 -22.8256 -22.7679 -22.7080
   -22.7079 -22.6885 -22.6690 -22.6689 -22.6293 -22.5845 -22.5844 -22.5789
   -22.5130 -22.4799 -22.4799 -22.4663 -22.4662 -22.4281 -22.4260 -22.4131
   -22.3862 -22.3821 -22.3607 -22.3606 -22.3286 -22.2802 -22.2586 -22.2466
   -22.2466 -22.2403 -22.2402 -22.2053 -22.2053 -22.1957 -22.1731 -22.1637
    13.4169  15.3313  15.3314  15.9096  16.0033  16.2185  16.2185  16.4103
    16.4617  16.4650  16.5045  16.5045  17.0505  17.0505  17.0807  17.3321
    17.5049  17.5049  17.6193  17.7678  17.8599  17.9820  17.9820  18.0976
    18.1386  18.1386  18.1580  18.2470  18.4423  18.4980  18.5318  18.8401
    18.8401  19.0096  19.0499  19.0499  19.1370  19.1513  19.2575  19.3173
    19.4168  19.4168  19.6255  19.6255  19.6987  19.7301  19.7301  20.3168
    20.6951  20.6952  20.7461  20.9110  20.9976  20.9977  21.1845  21.2107
    21.4469  21.4469  21.4505  21.4506  21.4595  21.5941  21.6413  21.6413
    21.6611  21.9609  21.9642  21.9666  21.9761  22.0505

          k = 0.1686 0.2810 0.3934 ( 12092 PWs)   bands (ev):

   -51.3936 -51.3431 -51.3028 -51.2753 -51.2691 -51.2503 -51.2350 -51.2227
   -51.1977 -51.1964 -51.1945 -51.1895 -51.1783 -51.1645 -51.1358 -51.0979
   -23.0939 -23.0739 -23.0642 -23.0343 -23.0033 -23.0021 -22.9917 -22.9872
   -22.9582 -22.9494 -22.9452 -22.9345 -22.8812 -22.8175 -22.7866 -22.7350
   -22.7257 -22.6576 -22.6389 -22.6357 -22.6333 -22.6265 -22.6096 -22.6092
   -22.5338 -22.5073 -22.4830 -22.4607 -22.4537 -22.4363 -22.4241 -22.4036
   -22.3711 -22.3533 -22.3397 -22.3228 -22.3077 -22.2970 -22.2711 -22.2554
   -22.2444 -22.2382 -22.2237 -22.2115 -22.2111 -22.2078 -22.1767 -22.1688
    13.7882  14.7785  15.5155  15.8194  16.1428  16.2432  16.5498  16.5824
    16.6409  16.6889  16.6925  16.7766  16.9690  16.9718  17.0618  17.2099
    17.2542  17.3415  17.7907  17.8462  17.8859  17.9220  18.0267  18.0286
    18.1151  18.2258  18.2557  18.3760  18.4416  18.5895  18.6248  18.7112
    18.7794  18.8753  18.9151  18.9658  19.0205  19.0377  19.0543  19.0794
    19.1894  19.1963  19.1992  19.2068  19.3295  19.3672  19.9948  20.5749
    20.7620  20.8892  20.9894  20.9904  20.9940  21.0513  21.0688  21.1539
    21.3111  21.3149  21.3218  21.4776  21.4783  21.5894  21.7047  21.7522
    21.8197  21.8671  21.8834  21.9785  22.0462  22.0470

          k = 0.1686 0.2810-0.5058 ( 12096 PWs)   bands (ev):

   -51.3705 -51.3701 -51.2901 -51.2897 -51.2604 -51.2600 -51.2292 -51.2289
   -51.1970 -51.1966 -51.1917 -51.1913 -51.1707 -51.1703 -51.1150 -51.1147
   -23.0526 -23.0525 -23.0334 -23.0333 -23.0112 -23.0109 -23.0106 -23.0102
   -22.9514 -22.9513 -22.9423 -22.9422 -22.8677 -22.8676 -22.7762 -22.7758
   -22.6859 -22.6857 -22.6369 -22.6366 -22.6279 -22.6277 -22.5873 -22.5871
   -22.5425 -22.5425 -22.4980 -22.4978 -22.4445 -22.4442 -22.3855 -22.3851
   -22.3711 -22.3711 -22.3025 -22.3024 -22.2949 -22.2946 -22.2723 -22.2721
   -22.2617 -22.2614 -22.2222 -22.2221 -22.1895 -22.1895 -22.1836 -22.1835
    14.2514  14.2519  15.6881  15.6884  16.2282  16.2284  16.7859  16.7863
    16.8184  16.8186  16.8958  16.8960  16.9424  16.9427  16.9432  16.9436
    17.0578  17.0581  17.8692  17.8695  17.9684  17.9685  18.1526  18.1529
    18.1870  18.1874  18.2625  18.2627  18.4077  18.4079  18.7909  18.7911
    18.9071  18.9072  18.9109  18.9110  18.9594  18.9596  18.9602  18.9602
    19.0295  19.0296  19.0616  19.0617  19.1178  19.1180  20.3458  20.3458
    20.8540  20.8541  21.0039  21.0040  21.1155  21.1157  21.1832  21.1833
    21.2522  21.2524  21.2627  21.2629  21.6808  21.6811  21.7360  21.7363
    21.7904  21.7907  21.8998  21.9001  22.0218  22.0221

          k = 0.1686 0.3934 0.3934 ( 12105 PWs)   bands (ev):

   -51.3766 -51.3303 -51.3302 -51.2955 -51.2622 -51.2446 -51.2446 -51.2303
   -51.1949 -51.1941 -51.1941 -51.1903 -51.1640 -51.1428 -51.1427 -51.1092
   -23.0740 -23.0401 -23.0401 -23.0009 -23.0009 -22.9993 -22.9961 -22.9961
   -22.9887 -22.9659 -22.9618 -22.9147 -22.8713 -22.7944 -22.7356 -22.7107
   -22.7106 -22.7065 -22.7065 -22.6619 -22.6586 -22.6586 -22.6493 -22.5854
   -22.5386 -22.4932 -22.4770 -22.4770 -22.4688 -22.4687 -22.4481 -22.3713
   -22.3702 -22.3229 -22.3228 -22.3181 -22.3091 -22.2795 -22.2665 -22.2665
   -22.2477 -22.2402 -22.2402 -22.2358 -22.1873 -22.1872 -22.1708 -22.1659
    14.1354  15.0349  15.0350  15.5885  16.3483  16.5634  16.5635  16.7067
    16.7753  16.9357  16.9447  16.9447  16.9544  16.9544  17.2145  17.2193
    17.2837  17.5126  17.5126  17.7951  17.9208  18.0036  18.0301  18.0301
    18.0725  18.0725  18.2294  18.2877  18.3224  18.3516  18.6573  18.6766
    18.6766  18.7349  18.8573  18.8573  18.8793  18.9036  18.9036  18.9293
    18.9359  18.9861  18.9861  19.1062  19.1324  19.5987  19.5987  20.3192
    20.8755  21.0308  21.1287  21.1288  21.1667  21.1910  21.1910  21.2191
    21.3690  21.4716  21.4832  21.4832  21.5267  21.5268  21.5590  21.5591
    21.7267  21.7796  21.7856  21.7913  21.8824  21.9932

          k = 0.1686 0.3934-0.5058 ( 12124 PWs)   bands (ev):

   -51.3554 -51.3550 -51.3143 -51.3139 -51.2541 -51.2537 -51.2380 -51.2376
   -51.1943 -51.1940 -51.1919 -51.1916 -51.1523 -51.1520 -51.1244 -51.1240
   -23.0417 -23.0416 -23.0163 -23.0161 -23.0012 -23.0009 -22.9916 -22.9913
   -22.9861 -22.9861 -22.9545 -22.9544 -22.7900 -22.7900 -22.7574 -22.7571
   -22.7048 -22.7047 -22.6841 -22.6838 -22.6697 -22.6696 -22.6224 -22.6224
   -22.5311 -22.5310 -22.4823 -22.4822 -22.4582 -22.4581 -22.4221 -22.4220
   -22.3444 -22.3440 -22.2843 -22.2841 -22.2815 -22.2811 -22.2775 -22.2773
   -22.2692 -22.2690 -22.2368 -22.2367 -22.1745 -22.1745 -22.1719 -22.1719
    14.5616  14.5621  15.3181  15.3185  16.5050  16.5053  16.8396  16.8400
    16.8788  16.8791  16.9214  16.9218  17.1391  17.1393  17.1929  17.1932
    17.2207  17.2211  17.8853  17.8857  17.9402  17.9406  17.9606  17.9607
    17.9673  17.9674  18.1338  18.1340  18.4749  18.4750  18.5438  18.5439
    18.6854  18.6855  18.7570  18.7570  18.7595  18.7597  18.8231  18.8232
    19.0061  19.0062  19.0351  19.0352  19.2408  19.2408  19.9212  19.9213
    21.0775  21.0776  21.1851  21.1851  21.2926  21.2927  21.3443  21.3445
    21.3625  21.3626  21.3686  21.3688  21.4725  21.4727  21.6464  21.6467
    21.6692  21.6695  21.8236  21.8239  21.8700  21.8702

          k = 0.1686-0.5058-0.5058 ( 12100 PWs)   bands (ev):

   -51.3364 -51.3363 -51.3360 -51.3360 -51.2465 -51.2464 -51.2461 -51.2460
   -51.1928 -51.1927 -51.1924 -51.1923 -51.1369 -51.1368 -51.1365 -51.1364
   -23.0182 -23.0182 -23.0182 -23.0182 -23.0031 -23.0030 -23.0028 -23.0028
   -22.9715 -22.9714 -22.9713 -22.9712 -22.7254 -22.7253 -22.7251 -22.7250
   -22.7066 -22.7066 -22.7066 -22.7065 -22.6987 -22.6987 -22.6987 -22.6987
   -22.4757 -22.4757 -22.4756 -22.4756 -22.4706 -22.4706 -22.4705 -22.4705
   -22.3095 -22.3094 -22.3091 -22.3090 -22.2729 -22.2728 -22.2727 -22.2727
   -22.2562 -22.2561 -22.2560 -22.2559 -22.1684 -22.1684 -22.1683 -22.1683
    14.9298  14.9299  14.9302  14.9303  16.7691  16.7692  16.7694  16.7695
    16.8791  16.8791  16.8794  16.8794  17.2738  17.2738  17.2740  17.2740
    17.5476  17.5476  17.5479  17.5480  17.8749  17.8750  17.8752  17.8752
    18.0389  18.0389  18.0390  18.0390  18.5187  18.5188  18.5188  18.5189
    18.5918  18.5918  18.5919  18.5919  18.7390  18.7391  18.7391  18.7392
    18.9930  18.9931  18.9932  18.9932  19.5446  19.5446  19.5446  19.5447
    21.2460  21.2461  21.2462  21.2462  21.3726  21.3726  21.3728  21.3728
    21.5184  21.5185  21.5187  21.5187  21.5227  21.5227  21.5229  21.5229
    21.5578  21.5578  21.5578  21.5579  21.8017  21.8018

          k = 0.2810 0.2810 0.2810 ( 12091 PWs)   bands (ev):

   -51.3999 -51.3062 -51.3061 -51.3061 -51.2552 -51.2551 -51.2551 -51.2245
   -51.1931 -51.1880 -51.1880 -51.1879 -51.1628 -51.1627 -51.1627 -51.0929
   -23.0926 -23.0926 -23.0925 -23.0071 -23.0071 -23.0071 -22.9747 -22.9688
   -22.9687 -22.9687 -22.8877 -22.8877 -22.8496 -22.8496 -22.7559 -22.7559
   -22.7559 -22.6940 -22.6940 -22.6939 -22.6380 -22.6245 -22.6244 -22.6244
   -22.4458 -22.4345 -22.4345 -22.4345 -22.4334 -22.4333 -22.4309 -22.4309
   -22.4309 -22.3657 -22.3657 -22.3657 -22.3031 -22.2715 -22.2715 -22.2715
   -22.2281 -22.2280 -22.2280 -22.2014 -22.2014 -22.2013 -22.1855 -22.1855
    13.6695  15.5041  15.5041  15.5042  16.1566  16.1566  16.1566  16.5792
    16.5792  16.6654  16.6654  16.6654  17.2141  17.2141  17.2141  17.3414
    17.4831  17.4831  17.4831  17.8457  17.8457  17.8620  18.0452  18.0452
    18.0452  18.2874  18.2874  18.2874  18.3323  18.3323  18.6640  18.6640
    18.6640  18.8986  18.8986  18.8986  19.0401  19.0401  19.0401  19.0920
    19.0920  19.3182  19.3182  19.3182  19.4029  19.4029  19.4029  20.5737
    20.7459  20.8706  20.8706  20.8707  21.1568  21.1568  21.1568  21.3499
    21.3499  21.3500  21.5582  21.5582  21.6295  21.6295  21.6295  21.7811
    21.7811  21.7812  21.9683  21.9683  21.9684  21.9754

          k = 0.2810 0.2810 0.3934 ( 12098 PWs)   bands (ev):

   -51.3824 -51.3346 -51.2963 -51.2963 -51.2701 -51.2700 -51.2489 -51.2331
   -51.1905 -51.1882 -51.1791 -51.1790 -51.1666 -51.1665 -51.1400 -51.1048
   -23.0661 -23.0660 -23.0485 -22.9985 -22.9968 -22.9967 -22.9823 -22.9662
   -22.9485 -22.9485 -22.9249 -22.9232 -22.8526 -22.8169 -22.8169 -22.7978
   -22.7540 -22.7000 -22.6999 -22.6807 -22.6786 -22.6602 -22.6601 -22.5858
   -22.5187 -22.4815 -22.4449 -22.4430 -22.4087 -22.4087 -22.3832 -22.3832
   -22.3749 -22.3749 -22.3603 -22.3089 -22.3027 -22.3027 -22.2835 -22.2676
   -22.2426 -22.2174 -22.2161 -22.2160 -22.2048 -22.2019 -22.2019 -22.1829
    14.0307  14.9824  15.7171  15.7171  16.0663  16.0663  16.5065  16.7457
    16.7987  16.8487  16.8487  16.9331  17.1853  17.1898  17.1898  17.2081
    17.3340  17.3996  17.6991  17.6991  17.8678  17.9805  18.1125  18.1269
    18.1482  18.1619  18.1619  18.3828  18.3829  18.4934  18.4934  18.5260
    18.7078  18.7078  18.7769  18.7769  18.7986  18.8468  18.8981  18.9024
    18.9533  19.0005  19.0005  19.0107  19.0904  19.0904  19.5857  20.2929
    20.8642  21.0445  21.0982  21.0982  21.2248  21.2248  21.2807  21.2807
    21.4118  21.4776  21.4962  21.5218  21.5219  21.5418  21.6918  21.6974
    21.8831  21.8856  21.9737  21.9737  21.9758  21.9806

          k = 0.2810 0.2810-0.5058 ( 12112 PWs)   bands (ev):

   -51.3605 -51.3601 -51.2843 -51.2842 -51.2839 -51.2838 -51.2416 -51.2412
   -51.1891 -51.1888 -51.1722 -51.1721 -51.1718 -51.1718 -51.1207 -51.1204
   -23.0319 -23.0318 -23.0318 -23.0317 -22.9922 -22.9919 -22.9902 -22.9900
   -22.9504 -22.9503 -22.8833 -22.8833 -22.8832 -22.8832 -22.8076 -22.8073
   -22.7402 -22.7400 -22.6872 -22.6872 -22.6870 -22.6869 -22.5979 -22.5979
   -22.5334 -22.5333 -22.4477 -22.4475 -22.3891 -22.3891 -22.3889 -22.3888
   -22.3403 -22.3402 -22.3401 -22.3401 -22.2963 -22.2960 -22.2715 -22.2713
   -22.2591 -22.2587 -22.2070 -22.2070 -22.2069 -22.2069 -22.1895 -22.1895
    14.4784  14.4788  15.9184  15.9184  15.9187  15.9187  16.9330  16.9335
    16.9580  16.9584  17.0228  17.0231  17.0341  17.0342  17.0343  17.0344
    17.1957  17.1960  17.9167  17.9169  18.0342  18.0343  18.0730  18.0730
    18.0734  18.0734  18.3195  18.3195  18.3197  18.3197  18.5034  18.5036
    18.7211  18.7213  18.8007  18.8007  18.8008  18.8008  18.8212  18.8213
    18.8213  18.8214  18.8666  18.8667  18.9123  18.9126  19.8921  19.8922
    21.1759  21.1759  21.2340  21.2342  21.2467  21.2467  21.2468  21.2468
    21.3288  21.3288  21.3290  21.3290  21.7274  21.7277  21.7860  21.7863
    21.8488  21.8492  21.8524  21.8527  21.9804  21.9807

          k = 0.2810 0.3934 0.3934 ( 12096 PWs)   bands (ev):

   -51.3663 -51.3223 -51.3222 -51.2892 -51.2871 -51.2628 -51.2627 -51.2436
   -51.1859 -51.1805 -51.1804 -51.1698 -51.1659 -51.1463 -51.1463 -51.1152
   -23.0452 -23.0261 -23.0261 -22.9950 -22.9866 -22.9866 -22.9731 -22.9544
   -22.9544 -22.9360 -22.9317 -22.8845 -22.8582 -22.8479 -22.8134 -22.7590
   -22.7590 -22.7439 -22.7438 -22.7305 -22.7181 -22.7180 -22.7054 -22.5895
   -22.5321 -22.4302 -22.4302 -22.4174 -22.4130 -22.4130 -22.3815 -22.3703
   -22.3446 -22.3401 -22.3337 -22.3193 -22.3193 -22.2863 -22.2863 -22.2764
   -22.2387 -22.2387 -22.2344 -22.2233 -22.2006 -22.2005 -22.1975 -22.1892
    14.3745  15.2553  15.2554  15.8376  15.9751  16.4129  16.4129  16.8937
    16.9907  17.0188  17.1219  17.1219  17.1663  17.1663  17.2172  17.4248
    17.4295  17.5070  17.5070  17.6245  17.9511  18.0687  18.0694  18.0836
    18.0836  18.1558  18.1558  18.2573  18.2709  18.3537  18.4339  18.5896
    18.5896  18.5979  18.6187  18.6187  18.6268  18.6394  18.6394  18.7512
    18.7513  18.8060  18.8212  18.8347  18.8971  19.2019  19.2019  19.8457
    21.1909  21.2340  21.2340  21.2615  21.3053  21.3972  21.4629  21.4788
    21.4789  21.5097  21.5097  21.5259  21.6042  21.6042  21.6730  21.8161
    21.8516  21.8517  21.8534  21.8822  21.9586  21.9700

          k = 0.2810 0.3934-0.5058 ( 12094 PWs)   bands (ev):

   -51.3461 -51.3458 -51.3071 -51.3067 -51.2759 -51.2755 -51.2539 -51.2535
   -51.1828 -51.1824 -51.1745 -51.1741 -51.1551 -51.1547 -51.1293 -51.1289
   -23.0161 -23.0160 -23.0053 -23.0052 -22.9777 -22.9773 -22.9645 -22.9644
   -22.9630 -22.9628 -22.9059 -22.9058 -22.8145 -22.8144 -22.8104 -22.8101
   -22.7739 -22.7738 -22.7407 -22.7405 -22.7371 -22.7370 -22.6664 -22.6663
   -22.4801 -22.4800 -22.4147 -22.4146 -22.3932 -22.3930 -22.3827 -22.3826
   -22.3403 -22.3400 -22.3120 -22.3119 -22.2850 -22.2847 -22.2773 -22.2771
   -22.2716 -22.2713 -22.2317 -22.2316 -22.1976 -22.1976 -22.1922 -22.1922
    14.7940  14.7945  15.5561  15.5565  16.2290  16.2293  16.8228  16.8233
    17.0415  17.0419  17.0992  17.0995  17.2761  17.2765  17.3191  17.3193
    17.3742  17.3745  17.8803  17.8807  17.9045  17.9049  18.0062  18.0063
    18.0086  18.0088  18.2163  18.2165  18.3049  18.3050  18.4008  18.4009
    18.5144  18.5146  18.5271  18.5273  18.6411  18.6412  18.6807  18.6808
    18.7354  18.7355  18.8062  18.8063  18.8747  18.8747  19.4648  19.4649
    21.3709  21.3712  21.3876  21.3877  21.4158  21.4161  21.4426  21.4428
    21.4783  21.4784  21.5396  21.5396  21.7088  21.7091  21.7128  21.7131
    21.7905  21.7908  21.7918  21.7920  21.8844  21.8847

          k = 0.2810-0.5058-0.5058 ( 12124 PWs)   bands (ev):

   -51.3281 -51.3280 -51.3277 -51.3276 -51.2656 -51.2655 -51.2652 -51.2652
   -51.1781 -51.1779 -51.1777 -51.1776 -51.1408 -51.1407 -51.1405 -51.1404
   -22.9909 -22.9909 -22.9909 -22.9909 -22.9825 -22.9824 -22.9822 -22.9822
   -22.9336 -22.9336 -22.9334 -22.9334 -22.7843 -22.7842 -22.7840 -22.7839
   -22.7720 -22.7720 -22.7719 -22.7719 -22.7407 -22.7407 -22.7406 -22.7406
   -22.4296 -22.4296 -22.4295 -22.4294 -22.3995 -22.3995 -22.3994 -22.3994
   -22.3002 -22.3001 -22.2999 -22.2998 -22.2907 -22.2907 -22.2906 -22.2905
   -22.2605 -22.2604 -22.2603 -22.2602 -22.1935 -22.1935 -22.1934 -22.1934
    15.1671  15.1672  15.1675  15.1676  16.5628  16.5629  16.5632  16.5633
    17.0925  17.0925  17.0928  17.0928  17.5151  17.5152  17.5153  17.5154
    17.5880  17.5881  17.5883  17.5884  17.8236  17.8236  17.8238  17.8239
    18.1170  18.1170  18.1171  18.1172  18.3222  18.3222  18.3223  18.3224
    18.5178  18.5178  18.5179  18.5179  18.5184  18.5184  18.5185  18.5185
    18.7428  18.7429  18.7429  18.7430  19.1078  19.1078  19.1078  19.1079
    21.4548  21.4549  21.4551  21.4551  21.5792  21.5792  21.5795  21.5795
    21.5906  21.5907  21.5908  21.5908  21.6423  21.6423  21.6425  21.6425
    21.7823  21.7824  21.7826  21.7827  21.9195  21.9195

          k = 0.3934 0.3934 0.3934 ( 12091 PWs)   bands (ev):

   -51.3514 -51.3110 -51.3109 -51.3109 -51.2804 -51.2803 -51.2803 -51.2569
   -51.1786 -51.1688 -51.1687 -51.1687 -51.1518 -51.1517 -51.1517 -51.1244
   -23.0031 -23.0031 -23.0031 -22.9755 -22.9754 -22.9754 -22.9512 -22.9035
   -22.9035 -22.9035 -22.8986 -22.8986 -22.8854 -22.8854 -22.7943 -22.7943
   -22.7943 -22.7930 -22.7930 -22.7930 -22.7677 -22.7676 -22.7676 -22.6531
   -22.4798 -22.3854 -22.3854 -22.3854 -22.3668 -22.3667 -22.3667 -22.3483
   -22.3483 -22.3210 -22.3210 -22.3209 -22.3126 -22.3126 -22.3125 -22.2803
   -22.2368 -22.2368 -22.2367 -22.2232 -22.2232 -22.2172 -22.2171 -22.2171
    14.7112  15.5534  15.5534  15.5535  16.1874  16.1874  16.1874  17.0011
    17.1375  17.1375  17.2840  17.2840  17.2841  17.4506  17.4506  17.4506
    17.5064  17.5064  17.5064  17.6017  18.0090  18.0090  18.1369  18.1369
    18.1743  18.1743  18.1743  18.2411  18.2412  18.2412  18.3041  18.3042
    18.3042  18.4753  18.4753  18.4754  18.4884  18.4884  18.4884  18.5393
    18.5393  18.5393  18.7078  18.7078  18.8269  18.8269  18.8269  19.3980
    21.3762  21.3762  21.3763  21.5508  21.5807  21.5807  21.5807  21.5933
    21.5933  21.6140  21.6140  21.6140  21.6559  21.6559  21.6559  21.8443
    21.8443  21.8775  21.8775  21.8776  21.9000  21.9000

          k = 0.3934 0.3934-0.5058 ( 12090 PWs)   bands (ev):

   -51.3328 -51.3325 -51.2969 -51.2968 -51.2965 -51.2965 -51.2695 -51.2692
   -51.1731 -51.1728 -51.1595 -51.1593 -51.1590 -51.1590 -51.1367 -51.1364
   -22.9813 -22.9812 -22.9812 -22.9811 -22.9494 -22.9490 -22.9424 -22.9423
   -22.9268 -22.9266 -22.8511 -22.8508 -22.8481 -22.8481 -22.8480 -22.8479
   -22.8293 -22.8292 -22.7979 -22.7978 -22.7977 -22.7977 -22.7229 -22.7228
   -22.4307 -22.4305 -22.3595 -22.3594 -22.3460 -22.3459 -22.3457 -22.3457
   -22.3351 -22.3351 -22.3349 -22.3349 -22.2924 -22.2923 -22.2876 -22.2872
   -22.2678 -22.2675 -22.2306 -22.2306 -22.2306 -22.2305 -22.2174 -22.2173
    15.1170  15.1175  15.8842  15.8843  15.8847  15.8847  16.6012  16.6016
    17.2844  17.2848  17.3781  17.3784  17.4061  17.4061  17.4063  17.4063
    17.5871  17.5874  17.8540  17.8540  17.8543  17.8543  18.0476  18.0477
    18.0870  18.0873  18.1943  18.1945  18.1960  18.1963  18.3083  18.3084
    18.3085  18.3085  18.4586  18.4587  18.4588  18.4588  18.5175  18.5176
    18.5176  18.5176  18.5796  18.5798  18.5947  18.5950  19.0306  19.0307
    21.4914  21.4917  21.5229  21.5229  21.5231  21.5231  21.6641  21.6641
    21.6641  21.6641  21.7244  21.7247  21.7457  21.7460  21.8154  21.8156
    21.8651  21.8654  21.8676  21.8676  21.8679  21.8679

          k = 0.3934-0.5058-0.5058 ( 12108 PWs)   bands (ev):

   -51.3162 -51.3161 -51.3158 -51.3157 -51.2842 -51.2840 -51.2838 -51.2837
   -51.1654 -51.1653 -51.1650 -51.1650 -51.1468 -51.1467 -51.1465 -51.1464
   -22.9511 -22.9511 -22.9511 -22.9511 -22.9474 -22.9474 -22.9472 -22.9471
   -22.8870 -22.8870 -22.8868 -22.8868 -22.8445 -22.8444 -22.8442 -22.8442
   -22.8400 -22.8400 -22.8399 -22.8399 -22.7854 -22.7854 -22.7853 -22.7853
   -22.3856 -22.3856 -22.3855 -22.3854 -22.3346 -22.3346 -22.3345 -22.3345
   -22.3154 -22.3154 -22.3153 -22.3152 -22.2890 -22.2889 -22.2888 -22.2887
   -22.2679 -22.2679 -22.2677 -22.2677 -22.2302 -22.2302 -22.2301 -22.2301
    15.4964  15.4965  15.4968  15.4970  16.2582  16.2583  16.2586  16.2587
    17.3850  17.3850  17.3853  17.3853  17.6424  17.6424  17.6427  17.6428
    17.7662  17.7662  17.7664  17.7665  17.7690  17.7690  17.7692  17.7693
    18.2105  18.2105  18.2106  18.2106  18.2428  18.2429  18.2429  18.2430
    18.2445  18.2445  18.2447  18.2447  18.4212  18.4212  18.4213  18.4213
    18.4974  18.4975  18.4975  18.4976  18.6757  18.6757  18.6757  18.6757
    21.5680  21.5680  21.5682  21.5683  21.6444  21.6444  21.6447  21.6447
    21.7500  21.7500  21.7503  21.7503  21.8380  21.8380  21.8382  21.8382
    21.8471  21.8471  21.8474  21.8474  21.8869  21.8870

          k =-0.5058-0.5058-0.5058 ( 12160 PWs)   bands (ev):

   -51.3014 -51.3012 -51.3012 -51.3011 -51.3009 -51.3009 -51.3008 -51.3008
   -51.1552 -51.1549 -51.1549 -51.1549 -51.1547 -51.1546 -51.1546 -51.1545
   -22.9007 -22.9007 -22.9006 -22.9006 -22.9006 -22.9005 -22.9005 -22.9004
   -22.9004 -22.9003 -22.9003 -22.9003 -22.9002 -22.9002 -22.9002 -22.9002
   -22.8360 -22.8360 -22.8360 -22.8359 -22.8358 -22.8358 -22.8358 -22.8358
   -22.3475 -22.3475 -22.3475 -22.3474 -22.3473 -22.3473 -22.3473 -22.3472
   -22.2778 -22.2778 -22.2777 -22.2776 -22.2776 -22.2776 -22.2776 -22.2775
   -22.2774 -22.2774 -22.2774 -22.2774 -22.2773 -22.2773 -22.2773 -22.2773
    15.8798  15.8799  15.8799  15.8801  15.8803  15.8804  15.8804  15.8805
    17.7040  17.7040  17.7041  17.7041  17.7041  17.7041  17.7041  17.7041
    17.7043  17.7043  17.7044  17.7044  17.7044  17.7044  17.7044  17.7044
    18.3020  18.3020  18.3020  18.3021  18.3021  18.3022  18.3022  18.3022
    18.3147  18.3147  18.3147  18.3148  18.3148  18.3148  18.3148  18.3148
    18.3150  18.3150  18.3150  18.3150  18.3150  18.3150  18.3150  18.3151
    21.7033  21.7033  21.7034  21.7034  21.7034  21.7034  21.7034  21.7034
    21.7036  21.7037  21.7037  21.7037  21.7037  21.7037  21.7037  21.7037
    22.1057  22.1057  22.1058  22.1058  22.1059  22.1059

 ------ SPIN DOWN ----------


          k = 0.0562 0.0562 0.0562 ( 12071 PWs)   bands (ev):

   -51.4591 -51.2560 -51.2560 -51.2558 -51.2203 -51.2203 -51.2202 -51.2200
   -51.2199 -51.2197 -51.2152 -51.2152 -51.2149 -51.2003 -51.1964 -51.0519
   -23.1939 -23.1938 -23.1938 -23.1888 -23.1888 -23.1887 -22.8660 -22.8660
   -22.8547 -22.7590 -22.7537 -22.7537 -22.7537 -22.7144 -22.7144 -22.6927
   -22.6926 -22.6926 -22.6240 -22.6240 -22.5792 -22.5294 -22.5293 -22.5293
   -22.5104 -22.5104 -22.5103 -22.4823 -22.4823 -22.4823 -22.4756 -22.4756
   -22.4756 -22.4666 -22.4665 -22.4665 -22.4488 -22.4488 -22.4486 -22.1655
   -22.1655 -22.1654 -22.1638 -22.1602 -22.1601 -22.1601 -22.1515 -22.1515
    12.4743  15.8250  15.8250  15.8250  15.8456  15.8456  15.8456  15.9106
    15.9106  16.1932  16.1932  16.1933  16.6129  16.6129  16.6129  17.8416
    17.8732  17.8733  17.8733  17.8900  17.8900  17.8901  17.9536  17.9536
    18.1378  18.1378  18.2046  18.2653  18.2654  18.2654  18.7474  18.7475
    18.7475  19.4987  19.4987  19.5572  19.8644  19.8644  19.8646  19.9873
    19.9873  19.9873  20.0951  20.0951  20.0951  20.2106  20.2107  20.2107
    21.1430  21.1431  21.1431  21.2440  21.2441  21.2441  21.4517  21.4517
    21.4517  21.4995  21.4995  21.4995  21.6711  21.6712  21.6712  21.6801
    21.6801  21.7368  21.7368  21.7368  22.0585  22.0585

          k = 0.0562 0.0562 0.1686 ( 12089 PWs)   bands (ev):

   -51.4518 -51.2921 -51.2542 -51.2541 -51.2240 -51.2239 -51.2194 -51.2193
   -51.2189 -51.2141 -51.2139 -51.2137 -51.2015 -51.1975 -51.1859 -51.0570
   -23.1791 -23.1791 -23.1778 -23.1732 -23.1643 -23.1642 -22.8734 -22.8546
   -22.8372 -22.8252 -22.8067 -22.8066 -22.8039 -22.8021 -22.7480 -22.7480
   -22.6847 -22.6346 -22.6205 -22.5917 -22.5716 -22.5354 -22.5289 -22.5289
   -22.5105 -22.4948 -22.4888 -22.4888 -22.4873 -22.4718 -22.4718 -22.4673
   -22.4673 -22.4630 -22.4629 -22.4055 -22.4035 -22.4034 -22.3890 -22.1911
   -22.1819 -22.1818 -22.1799 -22.1754 -22.1654 -22.1654 -22.1614 -22.1560
    12.6152  15.6375  15.8606  15.8606  15.9234  15.9234  15.9408  15.9601
    15.9838  15.9958  16.2315  16.2315  16.6419  16.6419  16.8480  17.7043
    17.7964  17.8304  17.8534  17.8671  17.8686  17.9337  17.9337  17.9839
    17.9839  18.0020  18.2286  18.2286  18.3803  18.3868  18.6493  18.6493
    19.2020  19.4648  19.4905  19.6019  19.6020  19.6328  19.6863  19.8182
    19.8183  19.8585  20.1951  20.1951  20.3406  20.3407  20.3795  20.5032
    20.6546  20.6546  20.8440  20.9550  20.9551  20.9662  21.1029  21.4299
    21.4299  21.5793  21.5829  21.5829  21.6865  21.6865  21.6966  21.7204
    21.7272  21.7313  21.7313  21.7609  22.0625  22.0915

          k = 0.0562 0.0562 0.2810 ( 12109 PWs)   bands (ev):

   -51.4377 -51.3276 -51.2509 -51.2508 -51.2291 -51.2290 -51.2181 -51.2180
   -51.2167 -51.2134 -51.2133 -51.2119 -51.2038 -51.1996 -51.1544 -51.0671
   -23.1461 -23.1457 -23.1457 -23.1426 -23.1210 -23.1209 -22.9004 -22.8899
   -22.8805 -22.8805 -22.8774 -22.8375 -22.8320 -22.8260 -22.8260 -22.8115
   -22.6547 -22.6517 -22.6307 -22.6228 -22.5412 -22.5251 -22.5251 -22.5178
   -22.5084 -22.4964 -22.4964 -22.4691 -22.4691 -22.4670 -22.4670 -22.4514
   -22.4363 -22.4027 -22.4027 -22.3479 -22.3466 -22.3465 -22.3328 -22.2379
   -22.2083 -22.2082 -22.2079 -22.2055 -22.1816 -22.1816 -22.1812 -22.1728
    12.8913  15.0131  15.9444  15.9444  16.0532  16.0532  16.1290  16.1551
    16.1634  16.1799  16.2703  16.2703  16.6457  16.6457  16.8937  17.3588
    17.5237  17.5966  17.7616  17.8191  17.8320  17.8373  18.0690  18.0690
    18.1519  18.1520  18.2578  18.2578  18.6013  18.6014  18.6814  18.7020
    19.2479  19.2479  19.4406  19.4422  19.4423  19.4674  19.4782  19.5592
    19.7441  19.9651  20.0188  20.0189  20.2623  20.2623  20.5098  20.5113
    20.5113  20.5582  20.5585  20.5585  20.5627  20.7192  20.8559  21.3823
    21.4449  21.4450  21.5762  21.5763  21.7448  21.7648  21.7981  21.8109
    21.8109  22.0370  22.0398  22.0612  22.0700  22.1011

          k = 0.0562 0.0562 0.3934 ( 12113 PWs)   bands (ev):

   -51.4173 -51.3611 -51.2462 -51.2461 -51.2348 -51.2347 -51.2166 -51.2165
   -51.2139 -51.2138 -51.2137 -51.2090 -51.2068 -51.2025 -51.1262 -51.0822
   -23.0997 -23.0980 -23.0953 -23.0953 -23.0615 -23.0614 -22.9740 -22.9696
   -22.9581 -22.9581 -22.9093 -22.9093 -22.8781 -22.8607 -22.7993 -22.7777
   -22.7076 -22.6858 -22.6207 -22.5983 -22.5488 -22.5366 -22.5193 -22.5193
   -22.5044 -22.5044 -22.4675 -22.4675 -22.4668 -22.4668 -22.4579 -22.3741
   -22.3655 -22.3433 -22.3433 -22.3006 -22.2953 -22.2924 -22.2923 -22.2815
   -22.2496 -22.2491 -22.2444 -22.2443 -22.2108 -22.2084 -22.2083 -22.2002
    13.2912  14.3831  16.0599  16.0599  16.2223  16.2223  16.2581  16.2581
    16.3438  16.3659  16.4743  16.4857  16.5645  16.5645  16.7889  16.9650
    17.2171  17.2356  17.7381  17.7641  17.7800  17.7912  18.2733  18.2734
    18.3869  18.3869  18.4548  18.4549  18.6927  18.6928  18.9292  18.9293
    19.0613  19.0678  19.0679  19.0816  19.4096  19.4097  19.4296  19.4690
    19.4793  19.4852  19.6207  19.6208  19.8939  20.0054  20.0126  20.3068
    20.3410  20.8055  20.8055  20.8435  20.8435  21.0986  21.1096  21.2583
    21.2637  21.2637  21.3958  21.3958  21.8107  21.8239  21.9082  21.9658
    21.9702  21.9747  22.0800  22.1023  22.1099  22.1201

          k = 0.0562 0.0562-0.5058 ( 12112 PWs)   bands (ev):

   -51.3916 -51.3912 -51.2409 -51.2409 -51.2405 -51.2404 -51.2152 -51.2152
   -51.2148 -51.2147 -51.2106 -51.2099 -51.2060 -51.2055 -51.1022 -51.1018
   -23.0412 -23.0407 -23.0405 -23.0401 -23.0315 -23.0314 -23.0314 -23.0314
   -22.9896 -22.9895 -22.9895 -22.9895 -22.8736 -22.8733 -22.7575 -22.7571
   -22.7355 -22.7352 -22.5846 -22.5841 -22.5683 -22.5679 -22.5124 -22.5124
   -22.5120 -22.5120 -22.4671 -22.4671 -22.4666 -22.4666 -22.3760 -22.3757
   -22.3065 -22.3060 -22.3024 -22.3020 -22.2898 -22.2897 -22.2897 -22.2897
   -22.2494 -22.2489 -22.2457 -22.2456 -22.2456 -22.2455 -22.2370 -22.2367
    13.7969  13.7974  16.1778  16.1778  16.1780  16.1780  16.4064  16.4064
    16.4066  16.4066  16.5930  16.5934  16.6240  16.6245  16.8444  16.8449
    16.8467  16.8471  17.7483  17.7487  17.7614  17.7617  18.5334  18.5334
    18.5335  18.5336  18.6506  18.6507  18.6508  18.6509  18.9143  18.9143
    18.9146  18.9146  19.1080  19.1081  19.1083  19.1084  19.4391  19.4394
    19.4705  19.4709  19.5081  19.5082  19.5201  19.5202  20.0821  20.0825
    20.7430  20.7433  21.0468  21.0469  21.0469  21.0469  21.1469  21.1469
    21.1470  21.1470  21.5363  21.5366  21.6940  21.6944  21.8869  21.8874
    21.8950  21.8954  22.0453  22.0457  22.0911  22.0916

          k = 0.0562 0.1686 0.1686 ( 12102 PWs)   bands (ev):

   -51.4448 -51.2893 -51.2892 -51.2524 -51.2341 -51.2227 -51.2226 -51.2186
   -51.2129 -51.2127 -51.2062 -51.2030 -51.1984 -51.1864 -51.1863 -51.0619
   -23.1746 -23.1637 -23.1637 -23.1502 -23.1501 -23.1298 -22.8863 -22.8671
   -22.8521 -22.8520 -22.8482 -22.8405 -22.8306 -22.8099 -22.7851 -22.7036
   -22.6778 -22.6777 -22.6146 -22.5902 -22.5901 -22.5407 -22.5230 -22.5230
   -22.5063 -22.5030 -22.5030 -22.4994 -22.4832 -22.4832 -22.4760 -22.4590
   -22.4567 -22.4233 -22.4075 -22.4074 -22.3689 -22.3464 -22.3463 -22.2287
   -22.2081 -22.1928 -22.1927 -22.1794 -22.1793 -22.1698 -22.1597 -22.1517
    12.7537  15.6953  15.6953  15.8428  15.9773  15.9773  16.0346  16.0365
    16.0365  16.0588  16.0772  16.2813  16.6869  16.8813  16.8813  17.5782
    17.7173  17.8004  17.8004  17.9103  17.9104  17.9355  17.9553  17.9553
    17.9602  18.0898  18.1102  18.1672  18.3752  18.4038  18.5346  19.0111
    19.0112  19.3868  19.4387  19.4388  19.4688  19.4982  19.6674  19.7590
    20.0853  20.0854  20.1500  20.1501  20.1805  20.2908  20.4216  20.4802
    20.4802  20.5571  20.5572  20.6870  20.6870  20.8144  21.1313  21.1314
    21.4365  21.5628  21.6118  21.6118  21.6522  21.6897  21.6897  21.6909
    21.7045  21.9106  22.0212  22.0286  22.0287  22.0705

          k = 0.0562 0.1686 0.2810 ( 12103 PWs)   bands (ev):

   -51.4310 -51.3238 -51.2838 -51.2491 -51.2450 -51.2276 -51.2202 -51.2173
   -51.2124 -51.2109 -51.2056 -51.2002 -51.1996 -51.1872 -51.1558 -51.0717
   -23.1511 -23.1333 -23.1321 -23.1227 -23.1097 -23.0776 -22.9206 -22.9205
   -22.8997 -22.8963 -22.8963 -22.8838 -22.8459 -22.8265 -22.7756 -22.7585
   -22.6813 -22.6492 -22.6058 -22.5990 -22.5828 -22.5817 -22.5442 -22.5294
   -22.5242 -22.5130 -22.5039 -22.4811 -22.4804 -22.4611 -22.4437 -22.4314
   -22.4110 -22.4003 -22.3736 -22.3513 -22.3244 -22.2944 -22.2936 -22.2840
   -22.2438 -22.2150 -22.2142 -22.2071 -22.1922 -22.1892 -22.1646 -22.1583
    13.0250  15.0931  15.7851  15.8588  16.0612  16.1650  16.1905  16.1977
    16.2014  16.2383  16.2527  16.3416  16.7190  16.8751  16.9377  17.3927
    17.4417  17.5556  17.8472  17.8699  17.8937  17.9067  17.9669  18.0351
    18.0612  18.1066  18.1496  18.3093  18.4448  18.5670  18.6282  18.8784
    19.1185  19.2342  19.2514  19.3135  19.3356  19.3914  19.4429  19.6384
    19.6932  19.9054  19.9195  20.0849  20.1607  20.2523  20.2545  20.2677
    20.4035  20.5178  20.5471  20.6133  20.6478  20.8432  20.8448  21.2674
    21.4129  21.4777  21.5139  21.5799  21.6230  21.6691  21.7224  21.7493
    21.9503  22.0134  22.0174  22.0489  22.0999  22.1064

          k = 0.0562 0.1686 0.3934 ( 12117 PWs)   bands (ev):

   -51.4111 -51.3564 -51.2762 -51.2561 -51.2445 -51.2333 -51.2169 -51.2158
   -51.2129 -51.2092 -51.2082 -51.2025 -51.1948 -51.1888 -51.1286 -51.0862
   -23.1108 -23.0892 -23.0852 -23.0833 -23.0546 -23.0104 -22.9912 -22.9784
   -22.9672 -22.9616 -22.9169 -22.9083 -22.9027 -22.8458 -22.7944 -22.7356
   -22.7041 -22.6452 -22.6378 -22.5870 -22.5718 -22.5646 -22.5416 -22.5409
   -22.5311 -22.5234 -22.5154 -22.4815 -22.4805 -22.4326 -22.4163 -22.3985
   -22.3625 -22.3529 -22.3428 -22.3249 -22.2999 -22.2880 -22.2812 -22.2480
   -22.2478 -22.2470 -22.2466 -22.2437 -22.2177 -22.2137 -22.1811 -22.1772
    13.4173  14.4827  15.8640  15.8872  16.1750  16.3325  16.3524  16.3803
    16.3976  16.4562  16.5134  16.5502  16.6614  16.7661  16.8389  17.0244
    17.2156  17.2573  17.7838  17.8240  17.8467  17.8544  18.1550  18.2143
    18.2320  18.2785  18.3008  18.4562  18.5709  18.7339  18.9008  18.9608
    18.9833  19.0228  19.0939  19.1019  19.2524  19.2622  19.2925  19.3516
    19.3565  19.4140  19.5084  19.6690  19.7619  19.7721  20.1090  20.5374
[...]
    21.3627  21.3628  21.3689  21.3692  21.4724  21.4726  21.6467  21.6470
    21.6696  21.6699  21.8241  21.8245  21.8703  21.8705

          k = 0.1686-0.5058-0.5058 ( 12100 PWs)   bands (ev):

   -51.3362 -51.3360 -51.3358 -51.3355 -51.2463 -51.2461 -51.2459 -51.2456
   -51.1926 -51.1923 -51.1922 -51.1918 -51.1367 -51.1364 -51.1363 -51.1359
   -23.0180 -23.0180 -23.0179 -23.0179 -23.0029 -23.0027 -23.0027 -23.0024
   -22.9713 -22.9712 -22.9711 -22.9709 -22.7253 -22.7251 -22.7250 -22.7246
   -22.7064 -22.7064 -22.7063 -22.7063 -22.6985 -22.6985 -22.6984 -22.6984
   -22.4755 -22.4754 -22.4754 -22.4753 -22.4703 -22.4703 -22.4702 -22.4702
   -22.3093 -22.3091 -22.3090 -22.3086 -22.2727 -22.2725 -22.2725 -22.2724
   -22.2560 -22.2558 -22.2557 -22.2556 -22.1682 -22.1682 -22.1681 -22.1681
    14.9290  14.9291  14.9294  14.9296  16.7686  16.7687  16.7689  16.7690
    16.8790  16.8791  16.8793  16.8795  17.2734  17.2735  17.2736  17.2737
    17.5474  17.5476  17.5478  17.5481  17.8747  17.8749  17.8750  17.8751
    18.0386  18.0387  18.0388  18.0389  18.5183  18.5184  18.5184  18.5187
    18.5916  18.5916  18.5917  18.5917  18.7388  18.7388  18.7389  18.7390
    18.9929  18.9929  18.9930  18.9931  19.5444  19.5445  19.5445  19.5445
    21.2460  21.2461  21.2461  21.2463  21.3729  21.3730  21.3731  21.3733
    21.5187  21.5189  21.5190  21.5192  21.5228  21.5230  21.5230  21.5232
    21.5577  21.5578  21.5578  21.5578  21.8020  21.8024

          k = 0.2810 0.2810 0.2810 ( 12091 PWs)   bands (ev):

   -51.3996 -51.3059 -51.3059 -51.3058 -51.2549 -51.2549 -51.2547 -51.2243
   -51.1927 -51.1877 -51.1877 -51.1875 -51.1625 -51.1625 -51.1623 -51.0926
   -23.0924 -23.0923 -23.0923 -23.0069 -23.0069 -23.0068 -22.9744 -22.9686
   -22.9686 -22.9684 -22.8875 -22.8875 -22.8493 -22.8493 -22.7557 -22.7556
   -22.7556 -22.6938 -22.6937 -22.6937 -22.6377 -22.6242 -22.6242 -22.6241
   -22.4456 -22.4343 -22.4343 -22.4342 -22.4331 -22.4331 -22.4306 -22.4306
   -22.4306 -22.3655 -22.3654 -22.3654 -22.3029 -22.2713 -22.2713 -22.2713
   -22.2278 -22.2278 -22.2277 -22.2011 -22.2010 -22.2010 -22.1852 -22.1852
    13.6686  15.5034  15.5034  15.5035  16.1561  16.1561  16.1561  16.5792
    16.5792  16.6651  16.6652  16.6652  17.2139  17.2139  17.2139  17.3411
    17.4831  17.4832  17.4832  17.8455  17.8455  17.8615  18.0449  18.0450
    18.0450  18.2872  18.2872  18.2873  18.3320  18.3320  18.6639  18.6639
    18.6639  18.8984  18.8984  18.8985  19.0399  19.0399  19.0399  19.0919
    19.0919  19.3177  19.3177  19.3178  19.4027  19.4028  19.4028  20.5737
    20.7457  20.8709  20.8710  20.8710  21.1567  21.1568  21.1568  21.3502
    21.3502  21.3502  21.5587  21.5587  21.6299  21.6299  21.6299  21.7811
    21.7812  21.7812  21.9688  21.9691  21.9696  21.9761

          k = 0.2810 0.2810 0.3934 ( 12098 PWs)   bands (ev):

   -51.3821 -51.3343 -51.2961 -51.2960 -51.2698 -51.2697 -51.2486 -51.2328
   -51.1902 -51.1879 -51.1788 -51.1787 -51.1663 -51.1662 -51.1396 -51.1045
   -23.0659 -23.0658 -23.0483 -22.9983 -22.9966 -22.9965 -22.9821 -22.9660
   -22.9483 -22.9483 -22.9247 -22.9229 -22.8524 -22.8167 -22.8166 -22.7975
   -22.7538 -22.6997 -22.6997 -22.6804 -22.6784 -22.6599 -22.6599 -22.5856
   -22.5184 -22.4812 -22.4447 -22.4427 -22.4085 -22.4085 -22.3830 -22.3830
   -22.3746 -22.3746 -22.3600 -22.3087 -22.3025 -22.3025 -22.2832 -22.2673
   -22.2424 -22.2171 -22.2158 -22.2157 -22.2045 -22.2017 -22.2016 -22.1826
    14.0299  14.9816  15.7164  15.7164  16.0657  16.0657  16.5061  16.7457
    16.7987  16.8485  16.8485  16.9328  17.1852  17.1896  17.1896  17.2081
    17.3337  17.3992  17.6990  17.6991  17.8676  17.9803  18.1122  18.1267
    18.1478  18.1617  18.1617  18.3827  18.3827  18.4933  18.4933  18.5257
    18.7077  18.7077  18.7767  18.7768  18.7985  18.8466  18.8979  18.9020
    18.9531  19.0001  19.0002  19.0105  19.0902  19.0903  19.5855  20.2927
    20.8641  21.0448  21.0985  21.0985  21.2248  21.2248  21.2808  21.2808
    21.4123  21.4776  21.4962  21.5222  21.5223  21.5421  21.6923  21.6978
    21.8836  21.8860  21.9743  21.9744  21.9764  21.9812

          k = 0.2810 0.2810-0.5058 ( 12112 PWs)   bands (ev):

   -51.3602 -51.3598 -51.2840 -51.2839 -51.2836 -51.2835 -51.2413 -51.2409
   -51.1888 -51.1884 -51.1719 -51.1718 -51.1715 -51.1714 -51.1205 -51.1200
   -23.0317 -23.0316 -23.0316 -23.0315 -22.9921 -22.9916 -22.9900 -22.9897
   -22.9502 -22.9501 -22.8831 -22.8831 -22.8830 -22.8829 -22.8074 -22.8070
   -22.7400 -22.7398 -22.6870 -22.6869 -22.6867 -22.6867 -22.5977 -22.5977
   -22.5332 -22.5330 -22.4475 -22.4472 -22.3889 -22.3889 -22.3886 -22.3886
   -22.3400 -22.3400 -22.3399 -22.3398 -22.2961 -22.2957 -22.2713 -22.2710
   -22.2589 -22.2584 -22.2068 -22.2067 -22.2067 -22.2066 -22.1892 -22.1892
    14.4775  14.4780  15.9177  15.9177  15.9180  15.9181  16.9325  16.9330
    16.9580  16.9585  17.0227  17.0231  17.0339  17.0340  17.0341  17.0342
    17.1954  17.1957  17.9164  17.9167  18.0340  18.0341  18.0729  18.0729
    18.0733  18.0734  18.3193  18.3193  18.3195  18.3195  18.5031  18.5032
    18.7208  18.7211  18.8004  18.8005  18.8005  18.8006  18.8211  18.8211
    18.8212  18.8212  18.8664  18.8665  18.9122  18.9125  19.8919  19.8920
    21.1758  21.1758  21.2344  21.2346  21.2468  21.2468  21.2468  21.2469
    21.3291  21.3291  21.3293  21.3294  21.7277  21.7280  21.7864  21.7868
    21.8494  21.8498  21.8523  21.8526  21.9810  21.9814

          k = 0.2810 0.3934 0.3934 ( 12096 PWs)   bands (ev):

   -51.3660 -51.3220 -51.3219 -51.2889 -51.2868 -51.2625 -51.2624 -51.2433
   -51.1856 -51.1802 -51.1801 -51.1694 -51.1655 -51.1460 -51.1459 -51.1149
   -23.0449 -23.0259 -23.0258 -22.9948 -22.9864 -22.9863 -22.9729 -22.9542
   -22.9542 -22.9358 -22.9315 -22.8842 -22.8580 -22.8477 -22.8131 -22.7588
   -22.7587 -22.7437 -22.7436 -22.7303 -22.7178 -22.7177 -22.7052 -22.5893
   -22.5319 -22.4300 -22.4299 -22.4172 -22.4128 -22.4127 -22.3813 -22.3701
   -22.3444 -22.3398 -22.3335 -22.3191 -22.3190 -22.2860 -22.2860 -22.2761
   -22.2385 -22.2384 -22.2341 -22.2230 -22.2004 -22.2003 -22.1973 -22.1889
    14.3737  15.2546  15.2546  15.8369  15.9744  16.4123  16.4123  16.8937
    16.9905  17.0188  17.1217  17.1217  17.1661  17.1662  17.2166  17.4245
    17.4292  17.5069  17.5069  17.6245  17.9509  18.0683  18.0692  18.0834
    18.0834  18.1557  18.1557  18.2571  18.2708  18.3535  18.4337  18.5894
    18.5895  18.5977  18.6185  18.6186  18.6266  18.6390  18.6391  18.7510
    18.7511  18.8059  18.8210  18.8346  18.8970  19.2017  19.2017  19.8455
    21.1908  21.2343  21.2344  21.2619  21.3055  21.3973  21.4633  21.4788
    21.4789  21.5099  21.5099  21.5263  21.6046  21.6047  21.6735  21.8166
    21.8518  21.8518  21.8538  21.8828  21.9592  21.9706

          k = 0.2810 0.3934-0.5058 ( 12094 PWs)   bands (ev):

   -51.3459 -51.3454 -51.3068 -51.3064 -51.2756 -51.2752 -51.2536 -51.2532
   -51.1825 -51.1821 -51.1742 -51.1738 -51.1548 -51.1544 -51.1290 -51.1286
   -23.0159 -23.0158 -23.0051 -23.0049 -22.9775 -22.9770 -22.9642 -22.9642
   -22.9628 -22.9625 -22.9057 -22.9055 -22.8143 -22.8142 -22.8102 -22.8098
   -22.7737 -22.7736 -22.7405 -22.7402 -22.7369 -22.7367 -22.6661 -22.6661
   -22.4799 -22.4797 -22.4145 -22.4143 -22.3929 -22.3927 -22.3824 -22.3823
   -22.3400 -22.3397 -22.3118 -22.3117 -22.2847 -22.2844 -22.2770 -22.2768
   -22.2714 -22.2710 -22.2314 -22.2313 -22.1973 -22.1973 -22.1919 -22.1919
    14.7932  14.7937  15.5554  15.5558  16.2283  16.2287  16.8222  16.8227
    17.0415  17.0419  17.0991  17.0994  17.2761  17.2764  17.3189  17.3191
    17.3739  17.3742  17.8802  17.8806  17.9044  17.9048  18.0060  18.0061
    18.0084  18.0086  18.2161  18.2164  18.3046  18.3047  18.4006  18.4007
    18.5142  18.5144  18.5268  18.5270  18.6409  18.6410  18.6806  18.6806
    18.7352  18.7353  18.8061  18.8062  18.8745  18.8745  19.4646  19.4647
    21.3714  21.3716  21.3876  21.3877  21.4162  21.4165  21.4430  21.4433
    21.4784  21.4785  21.5395  21.5395  21.7092  21.7096  21.7131  21.7134
    21.7910  21.7914  21.7918  21.7920  21.8849  21.8853

          k = 0.2810-0.5058-0.5058 ( 12124 PWs)   bands (ev):

   -51.3279 -51.3277 -51.3275 -51.3272 -51.2654 -51.2652 -51.2650 -51.2647
   -51.1778 -51.1776 -51.1775 -51.1771 -51.1406 -51.1404 -51.1403 -51.1399
   -22.9907 -22.9907 -22.9906 -22.9906 -22.9823 -22.9822 -22.9821 -22.9818
   -22.9334 -22.9333 -22.9332 -22.9331 -22.7841 -22.7839 -22.7838 -22.7835
   -22.7718 -22.7718 -22.7717 -22.7717 -22.7405 -22.7404 -22.7403 -22.7403
   -22.4294 -22.4293 -22.4292 -22.4292 -22.3993 -22.3993 -22.3991 -22.3991
   -22.3000 -22.2998 -22.2997 -22.2994 -22.2905 -22.2904 -22.2903 -22.2902
   -22.2603 -22.2601 -22.2601 -22.2599 -22.1932 -22.1932 -22.1931 -22.1931
    15.1663  15.1664  15.1667  15.1669  16.5621  16.5623  16.5625  16.5627
    17.0923  17.0925  17.0926  17.0929  17.5148  17.5149  17.5150  17.5151
    17.5878  17.5880  17.5882  17.5885  17.8234  17.8235  17.8237  17.8238
    18.1168  18.1169  18.1169  18.1170  18.3218  18.3220  18.3220  18.3222
    18.5176  18.5177  18.5178  18.5178  18.5182  18.5182  18.5183  18.5183
    18.7426  18.7427  18.7427  18.7429  19.1076  19.1077  19.1077  19.1077
    21.4552  21.4553  21.4554  21.4556  21.5795  21.5797  21.5798  21.5801
    21.5906  21.5907  21.5907  21.5909  21.6424  21.6425  21.6426  21.6427
    21.7827  21.7830  21.7831  21.7834  21.9195  21.9195

          k = 0.3934 0.3934 0.3934 ( 12091 PWs)   bands (ev):

   -51.3511 -51.3107 -51.3107 -51.3105 -51.2801 -51.2801 -51.2799 -51.2566
   -51.1783 -51.1685 -51.1685 -51.1683 -51.1515 -51.1515 -51.1513 -51.1241
   -23.0029 -23.0028 -23.0028 -22.9753 -22.9753 -22.9751 -22.9510 -22.9032
   -22.9032 -22.9032 -22.8983 -22.8983 -22.8851 -22.8851 -22.7941 -22.7940
   -22.7940 -22.7928 -22.7927 -22.7927 -22.7675 -22.7675 -22.7673 -22.6529
   -22.4796 -22.3852 -22.3851 -22.3851 -22.3665 -22.3665 -22.3664 -22.3480
   -22.3480 -22.3208 -22.3207 -22.3207 -22.3123 -22.3123 -22.3123 -22.2801
   -22.2365 -22.2365 -22.2365 -22.2230 -22.2230 -22.2170 -22.2170 -22.2168
    14.7104  15.5527  15.5527  15.5527  16.1867  16.1867  16.1868  17.0004
    17.1375  17.1375  17.2838  17.2839  17.2839  17.4505  17.4506  17.4506
    17.5062  17.5062  17.5062  17.6014  18.0088  18.0088  18.1368  18.1368
    18.1741  18.1741  18.1741  18.2410  18.2411  18.2411  18.3040  18.3040
    18.3040  18.4751  18.4752  18.4752  18.4881  18.4881  18.4882  18.5391
    18.5391  18.5392  18.7077  18.7077  18.8266  18.8267  18.8267  19.3978
    21.3766  21.3767  21.3767  21.5507  21.5808  21.5808  21.5809  21.5938
    21.5938  21.6144  21.6145  21.6145  21.6559  21.6559  21.6559  21.8448
    21.8448  21.8781  21.8781  21.8783  21.9005  21.9005

          k = 0.3934 0.3934-0.5058 ( 12090 PWs)   bands (ev):

   -51.3326 -51.3321 -51.2966 -51.2966 -51.2962 -51.2961 -51.2693 -51.2688
   -51.1729 -51.1724 -51.1592 -51.1591 -51.1588 -51.1586 -51.1365 -51.1360
   -22.9811 -22.9810 -22.9809 -22.9809 -22.9492 -22.9487 -22.9422 -22.9421
   -22.9266 -22.9264 -22.8509 -22.8505 -22.8479 -22.8479 -22.8478 -22.8477
   -22.8291 -22.8289 -22.7977 -22.7976 -22.7975 -22.7974 -22.7226 -22.7226
   -22.4304 -22.4303 -22.3593 -22.3591 -22.3457 -22.3456 -22.3455 -22.3455
   -22.3349 -22.3348 -22.3347 -22.3346 -22.2922 -22.2920 -22.2874 -22.2870
   -22.2676 -22.2672 -22.2304 -22.2303 -22.2303 -22.2302 -22.2171 -22.2171
    15.1162  15.1167  15.8835  15.8835  15.8839  15.8840  16.6005  16.6010
    17.2844  17.2848  17.3781  17.3784  17.4060  17.4060  17.4062  17.4062
    17.5869  17.5872  17.8538  17.8539  17.8542  17.8543  18.0474  18.0475
    18.0868  18.0871  18.1941  18.1943  18.1959  18.1962  18.3082  18.3082
    18.3083  18.3084  18.4584  18.4584  18.4586  18.4587  18.5174  18.5174
    18.5174  18.5174  18.5794  18.5796  18.5946  18.5949  19.0304  19.0304
    21.4919  21.4922  21.5233  21.5233  21.5236  21.5236  21.6641  21.6642
    21.6642  21.6642  21.7249  21.7253  21.7462  21.7466  21.8156  21.8158
    21.8657  21.8660  21.8681  21.8681  21.8685  21.8685

          k = 0.3934-0.5058-0.5058 ( 12108 PWs)   bands (ev):

   -51.3160 -51.3158 -51.3156 -51.3152 -51.2840 -51.2837 -51.2836 -51.2832
   -51.1652 -51.1650 -51.1648 -51.1644 -51.1466 -51.1464 -51.1463 -51.1459
   -22.9509 -22.9509 -22.9508 -22.9508 -22.9473 -22.9471 -22.9470 -22.9468
   -22.8868 -22.8867 -22.8866 -22.8865 -22.8444 -22.8442 -22.8441 -22.8438
   -22.8398 -22.8397 -22.8396 -22.8396 -22.7852 -22.7851 -22.7850 -22.7850
   -22.3854 -22.3853 -22.3852 -22.3852 -22.3344 -22.3343 -22.3342 -22.3342
   -22.3152 -22.3151 -22.3150 -22.3149 -22.2888 -22.2887 -22.2886 -22.2883
   -22.2677 -22.2676 -22.2675 -22.2673 -22.2299 -22.2299 -22.2298 -22.2298
    15.4956  15.4958  15.4960  15.4962  16.2575  16.2576  16.2579  16.2581
    17.3849  17.3850  17.3852  17.3854  17.6422  17.6424  17.6426  17.6428
    17.7660  17.7661  17.7663  17.7665  17.7687  17.7689  17.7690  17.7691
    18.2103  18.2103  18.2104  18.2105  18.2426  18.2427  18.2427  18.2428
    18.2442  18.2444  18.2444  18.2447  18.4210  18.4211  18.4212  18.4212
    18.4972  18.4973  18.4973  18.4975  18.6754  18.6755  18.6755  18.6755
    21.5684  21.5685  21.5686  21.5689  21.6447  21.6450  21.6451  21.6453
    21.7504  21.7506  21.7507  21.7510  21.8381  21.8382  21.8383  21.8384
    21.8475  21.8477  21.8478  21.8481  21.8869  21.8870

          k =-0.5058-0.5058-0.5058 ( 12160 PWs)   bands (ev):

   -51.3012 -51.3010 -51.3010 -51.3008 -51.3007 -51.3006 -51.3006 -51.3001
   -51.1549 -51.1547 -51.1547 -51.1546 -51.1544 -51.1543 -51.1543 -51.1538
   -22.9005 -22.9005 -22.9004 -22.9004 -22.9004 -22.9003 -22.9003 -22.9003
   -22.9001 -22.9001 -22.9001 -22.9000 -22.9000 -22.8998 -22.8998 -22.8998
   -22.8358 -22.8357 -22.8357 -22.8357 -22.8356 -22.8355 -22.8355 -22.8355
   -22.3473 -22.3472 -22.3472 -22.3471 -22.3471 -22.3470 -22.3470 -22.3470
   -22.2775 -22.2775 -22.2775 -22.2775 -22.2775 -22.2774 -22.2774 -22.2774
   -22.2772 -22.2772 -22.2772 -22.2771 -22.2771 -22.2769 -22.2768 -22.2768
    15.8790  15.8791  15.8791  15.8793  15.8794  15.8796  15.8796  15.8798
    17.7038  17.7038  17.7039  17.7039  17.7040  17.7040  17.7041  17.7041
    17.7042  17.7042  17.7043  17.7043  17.7043  17.7043  17.7046  17.7046
    18.3017  18.3018  18.3018  18.3018  18.3019  18.3019  18.3019  18.3020
    18.3145  18.3145  18.3145  18.3145  18.3145  18.3145  18.3146  18.3147
    18.3147  18.3148  18.3148  18.3148  18.3148  18.3151  18.3151  18.3151
    21.7037  21.7037  21.7038  21.7038  21.7039  21.7039  21.7039  21.7040
    21.7040  21.7041  21.7041  21.7041  21.7042  21.7042  21.7046  21.7046
    22.1057  22.1057  22.1058  22.1059  22.1059  22.1060

     the Fermi energy is    20.4397 ev

!    total energy              =   -3971.52179839 Ry
     Harris-Foulkes estimate   =   -3971.52179679 Ry
     estimated scf accuracy    <       0.00000011 Ry

     total all-electron energy =    -33628.044678 Ry

     The total energy is the sum of the following terms:

     one-electron contribution =    -844.21183910 Ry
     hartree contribution      =     566.82728358 Ry
     xc contribution           =    -357.15835197 Ry
     ewald contribution        =   -2148.98730590 Ry
     one-center paw contrib.   =   -1188.00377152 Ry
     smearing contrib. (-TS)   =       0.01218651 Ry

     total magnetization       =    -0.00 Bohr mag/cell
     absolute magnetization    =     0.06 Bohr mag/cell

     convergence has been achieved in  24 iterations

     Forces acting on atoms (cartesian axes, Ry/au):

     atom    1 type  1   force =     0.00000000    0.00000000    0.00000000
     atom    2 type  2   force =     0.00000434    0.00000434    0.00000434
     atom    3 type  1   force =     0.00000000   -0.00000000    0.00000000
     atom    4 type  2   force =     0.00000434    0.00000434   -0.00000434
     atom    5 type  1   force =     0.00000000    0.00000000    0.00000000
     atom    6 type  2   force =     0.00000434   -0.00000434    0.00000434
     atom    7 type  1   force =     0.00000000    0.00000000    0.00000000
     atom    8 type  2   force =     0.00000434   -0.00000434   -0.00000434
     atom    9 type  1   force =     0.00000000    0.00000000    0.00000000
     atom   10 type  2   force =    -0.00000434    0.00000434    0.00000434
     atom   11 type  1   force =     0.00000000    0.00000000    0.00000000
     atom   12 type  2   force =    -0.00000434    0.00000434   -0.00000434
     atom   13 type  1   force =     0.00000000    0.00000000    0.00000000
     atom   14 type  2   force =    -0.00000434   -0.00000434    0.00000434
     atom   15 type  1   force =     0.00000000    0.00000000    0.00000000
     atom   16 type  2   force =    -0.00000434   -0.00000434   -0.00000434

     Total force =     0.000021     Total SCF correction =     0.000762
     SCF correction compared to forces is large: reduce conv_thr to get better values


     Computing stress (Cartesian axis) and pressure

          total   stress  (Ry/bohr**3)                   (kbar)     P=  101.64
   0.00069094   0.00000000   0.00000000        101.64      0.00      0.00
   0.00000000   0.00069094   0.00000000          0.00    101.64      0.00
   0.00000000   0.00000000   0.00069094          0.00      0.00    101.64


     Writing output data file kkObEgeKnFLrUXyS.save/
 
     init_run     :      9.25s CPU      9.62s WALL (       1 calls)
     electrons    :    764.44s CPU    782.15s WALL (       1 calls)
     forces       :      3.15s CPU      3.30s WALL (       1 calls)
     stress       :     12.13s CPU     12.30s WALL (       1 calls)

     Called by init_run:
     wfcinit      :      8.59s CPU      8.90s WALL (       1 calls)
     potinit      :      0.34s CPU      0.36s WALL (       1 calls)
     hinit0       :      0.11s CPU      0.12s WALL (       1 calls)

     Called by electrons:
     c_bands      :    685.40s CPU    699.49s WALL (      25 calls)
     sum_band     :     69.38s CPU     72.36s WALL (      25 calls)
     v_of_rho     :      0.75s CPU      0.79s WALL (      25 calls)
     newd         :      1.70s CPU      2.02s WALL (      25 calls)
     PAW_pot      :      7.20s CPU      7.45s WALL (      25 calls)
     mix_rho      :      0.22s CPU      0.24s WALL (      25 calls)

     Called by c_bands:
     init_us_2    :      4.46s CPU      4.53s WALL (    3710 calls)
     cegterg      :    659.12s CPU    672.99s WALL (    1750 calls)

     Called by sum_band:
     sum_band:bec :      0.75s CPU      0.76s WALL (    1750 calls)
     addusdens    :      3.05s CPU      3.46s WALL (      25 calls)

     Called by *egterg:
     h_psi        :    281.12s CPU    290.94s WALL (    7287 calls)
     s_psi        :     26.50s CPU     26.56s WALL (    7287 calls)
     g_psi        :      1.46s CPU      1.47s WALL (    5467 calls)
     cdiaghg      :    268.32s CPU    268.93s WALL (    7147 calls)

     Called by h_psi:
     h_psi:pot    :    279.52s CPU    289.32s WALL (    7287 calls)
     h_psi:calbec :     29.38s CPU     31.72s WALL (    7287 calls)
     vloc_psi     :    224.02s CPU    231.42s WALL (    7287 calls)
     add_vuspsi   :     26.05s CPU     26.13s WALL (    7287 calls)

     General routines
     calbec       :     45.48s CPU     48.97s WALL (    9387 calls)
     fft          :      0.59s CPU      0.63s WALL (     667 calls)
     ffts         :      0.05s CPU      0.06s WALL (     100 calls)
     fftw         :    254.38s CPU    262.66s WALL ( 1353234 calls)
     interpolate  :      0.09s CPU      0.09s WALL (      50 calls)
 
     Parallel routines
     fft_scatt_xy :     21.36s CPU     22.01s WALL ( 1354001 calls)
     fft_scatt_yz :    123.59s CPU    128.09s WALL ( 1354001 calls)
 
     PWSCF        : 13m13.87s CPU    13m41.51s WALL

 
   This run was terminated on:   5:16:24  15Jun2020            

=------------------------------------------------------------------------------=
   JOB DONE.
=------------------------------------------------------------------------------=
