
     Program PWSCF v.6.3 starts on 15Jun2020 at  7:22:17 

     This program is part of the open-source Quantum ESPRESSO suite
     for quantum simulation of materials; please cite
         "P. Giannozzi et al., J. Phys.:Condens. Matter 21 395502 (2009);
         "P. Giannozzi et al., J. Phys.:Condens. Matter 29 465901 (2017);
          URL http://www.quantum-espresso.org", 
     in publications or presentations arising from this work. More details at
     http://www.quantum-espresso.org/quote

     Parallel version (MPI & OpenMP), running on      20 processor cores
     Number of MPI processes:                20
     Threads/MPI process:                     1

     MPI processes distributed on     1 nodes
     R & G space division:  proc/nbgrp/npool/nimage =      20
     Reading input from wd/eos/eos_015.in
Warning: card &IONS ignored
Warning: card ION_DYNAMICS = 'BFGS', ignored
Warning: card / ignored
Warning: card &CELL ignored
Warning: card CELL_DYNAMICS = 'BFGS', ignored
Warning: card CELL_FACTOR = 2.0, ignored
Warning: card PRESS = 0.0, ignored
Warning: card / ignored

     Current dimensions of program PWSCF are:
     Max number of different atomic species (ntypx) = 10
     Max number of k-points (npk) =  40000
     Max angular momentum in pseudopotentials (lmaxx) =  3
     Message from routine read_upf::
     Pseudo file /rds/homes/b/bxp912/pp/Cr.pbe-spn-kjpaw_psl.1.0.0.UPF has been successfully fixed on the fly.
To avoid this message in the future you can permanently fix 
 your pseudo files following instructions given in: 
https://gitlab.com/QEF/q-e/blob/master/upftools/how_to_fix_upf.md
               file Cr.pbe-spn-kjpaw_psl.1.0.0.UPF: wavefunction(s)  3S 3P 3D renormalized
     Message from routine read_upf::
     Pseudo file /rds/homes/b/bxp912/pp/Cr.pbe-spn-kjpaw_psl.1.0.0.UPF has been successfully fixed on the fly.
To avoid this message in the future you can permanently fix 
 your pseudo files following instructions given in: 
https://gitlab.com/QEF/q-e/blob/master/upftools/how_to_fix_upf.md
               file Cr.pbe-spn-kjpaw_psl.1.0.0.UPF: wavefunction(s)  3S 3P 3D renormalized

     Subspace diagonalization in iterative solution of the eigenvalue problem:
     a serial algorithm will be used

     Found symmetry operation: I + (  0.0000  0.0000  0.5000)
     This is a supercell, fractional translations are disabled
 
     Parallelization info
     --------------------
     sticks:   dense  smooth     PW     G-vecs:    dense   smooth      PW
     Min         205     135     38                 9907     5305     788
     Max         206     136     39                 9910     5310     792
     Sum        4117    2709    761               198173   106143   15791
 


     bravais-lattice index     =            0
     lattice parameter (alat)  =      10.7442  a.u.
     unit-cell volume          =    1316.2025 (a.u.)^3
     number of atoms/cell      =           16
     number of atomic types    =            2
     number of electrons       =       224.00
     number of Kohn-Sham states=          134
     kinetic-energy cutoff     =      71.0000  Ry
     charge density cutoff     =     430.0000  Ry
     convergence threshold     =      1.0E-06
     mixing beta               =       0.1000
     number of iterations used =           10  plain     mixing
     Exchange-correlation      = SLA PW PBX PBC ( 1  4  3  4 0 0)

     celldm(1)=  10.744199  celldm(2)=   0.000000  celldm(3)=   0.000000
     celldm(4)=   0.000000  celldm(5)=   0.000000  celldm(6)=   0.000000

     crystal axes: (cart. coord. in units of alat)
               a(1) = (   1.020000   0.000000   0.000000 )  
               a(2) = (   0.000000   1.020000   0.000000 )  
               a(3) = (   0.000000   0.000000   1.020000 )  

     reciprocal axes: (cart. coord. in units 2 pi/alat)
               b(1) = (  0.980392  0.000000  0.000000 )  
               b(2) = (  0.000000  0.980392  0.000000 )  
               b(3) = (  0.000000  0.000000  0.980392 )  


     PseudoPot. # 1 for Cr read from file:
     /rds/homes/b/bxp912/pp/Cr.pbe-spn-kjpaw_psl.1.0.0.UPF
     MD5 check sum: cb1c17117da000fe5e03c4f1a6841d9c
     Pseudo is Projector augmented-wave + core cor, Zval = 14.0
     Generated using "atomic" code by A. Dal Corso v.5.1
     Shape of augmentation charge: PSQ
     Using radial grid of 1183 points,  6 beta functions with: 
                l(1) =   0
                l(2) =   0
                l(3) =   1
                l(4) =   1
                l(5) =   2
                l(6) =   2
     Q(r) pseudized with 0 coefficients 


     PseudoPot. # 2 for Cr read from file:
     /rds/homes/b/bxp912/pp/Cr.pbe-spn-kjpaw_psl.1.0.0.UPF
     MD5 check sum: cb1c17117da000fe5e03c4f1a6841d9c
     Pseudo is Projector augmented-wave + core cor, Zval = 14.0
     Generated using "atomic" code by A. Dal Corso v.5.1
     Shape of augmentation charge: PSQ
     Using radial grid of 1183 points,  6 beta functions with: 
                l(1) =   0
                l(2) =   0
                l(3) =   1
                l(4) =   1
                l(5) =   2
                l(6) =   2
     Q(r) pseudized with 0 coefficients 


     atomic species   valence    mass     pseudopotential
        Cr1           14.00    55.84500     Cr( 1.00)
        Cr2           14.00    55.84500     Cr( 1.00)

     Starting magnetic structure 
     atomic species   magnetization
        Cr1          0.100
        Cr2          0.100

     48 Sym. Ops., with inversion, found



   Cartesian axes

     site n.     atom                  positions (alat units)
         1           Cr1 tau(   1) = (   0.0000000   0.0000000   0.0000000  )
         2           Cr2 tau(   2) = (   0.2550004   0.2550004   0.2550000  )
         3           Cr1 tau(   3) = (   0.0000000   0.0000000   0.5099990  )
         4           Cr2 tau(   4) = (   0.2550004   0.2550004   0.7649990  )
         5           Cr1 tau(   5) = (   0.0000000   0.5099999   0.0000000  )
         6           Cr2 tau(   6) = (   0.2550004   0.7649993   0.2550000  )
         7           Cr1 tau(   7) = (   0.0000000   0.5099999   0.5099990  )
         8           Cr2 tau(   8) = (   0.2550004   0.7649993   0.7649990  )
         9           Cr1 tau(   9) = (   0.5099999   0.0000000   0.0000000  )
        10           Cr2 tau(  10) = (   0.7649993   0.2550004   0.2550000  )
        11           Cr1 tau(  11) = (   0.5099999   0.0000000   0.5099990  )
        12           Cr2 tau(  12) = (   0.7649993   0.2550004   0.7649990  )
        13           Cr1 tau(  13) = (   0.5099999   0.5099999   0.0000000  )
        14           Cr2 tau(  14) = (   0.7649993   0.7649993   0.2550000  )
        15           Cr1 tau(  15) = (   0.5099999   0.5099999   0.5099990  )
        16           Cr2 tau(  16) = (   0.7649993   0.7649993   0.7649990  )

     number of k points=    35  Marzari-Vanderbilt smearing, width (Ry)=  0.0400
                       cart. coord. in units 2pi/alat
        k(    1) = (   0.0544662   0.0544662   0.0544662), wk =   0.0109739
        k(    2) = (   0.0544662   0.0544662   0.1633987), wk =   0.0329218
        k(    3) = (   0.0544662   0.0544662   0.2723312), wk =   0.0329218
        k(    4) = (   0.0544662   0.0544662   0.3812636), wk =   0.0329218
        k(    5) = (   0.0544662   0.0544662  -0.4901961), wk =   0.0164609
        k(    6) = (   0.0544662   0.1633987   0.1633987), wk =   0.0329218
        k(    7) = (   0.0544662   0.1633987   0.2723312), wk =   0.0658436
        k(    8) = (   0.0544662   0.1633987   0.3812636), wk =   0.0658436
        k(    9) = (   0.0544662   0.1633987  -0.4901961), wk =   0.0329218
        k(   10) = (   0.0544662   0.2723312   0.2723312), wk =   0.0329218
        k(   11) = (   0.0544662   0.2723312   0.3812636), wk =   0.0658436
        k(   12) = (   0.0544662   0.2723312  -0.4901961), wk =   0.0329218
        k(   13) = (   0.0544662   0.3812636   0.3812636), wk =   0.0329218
        k(   14) = (   0.0544662   0.3812636  -0.4901961), wk =   0.0329218
        k(   15) = (   0.0544662  -0.4901961  -0.4901961), wk =   0.0082305
        k(   16) = (   0.1633987   0.1633987   0.1633987), wk =   0.0109739
        k(   17) = (   0.1633987   0.1633987   0.2723312), wk =   0.0329218
        k(   18) = (   0.1633987   0.1633987   0.3812636), wk =   0.0329218
        k(   19) = (   0.1633987   0.1633987  -0.4901961), wk =   0.0164609
        k(   20) = (   0.1633987   0.2723312   0.2723312), wk =   0.0329218
        k(   21) = (   0.1633987   0.2723312   0.3812636), wk =   0.0658436
        k(   22) = (   0.1633987   0.2723312  -0.4901961), wk =   0.0329218
        k(   23) = (   0.1633987   0.3812636   0.3812636), wk =   0.0329218
        k(   24) = (   0.1633987   0.3812636  -0.4901961), wk =   0.0329218
        k(   25) = (   0.1633987  -0.4901961  -0.4901961), wk =   0.0082305
        k(   26) = (   0.2723312   0.2723312   0.2723312), wk =   0.0109739
        k(   27) = (   0.2723312   0.2723312   0.3812636), wk =   0.0329218
        k(   28) = (   0.2723312   0.2723312  -0.4901961), wk =   0.0164609
        k(   29) = (   0.2723312   0.3812636   0.3812636), wk =   0.0329218
        k(   30) = (   0.2723312   0.3812636  -0.4901961), wk =   0.0329218
        k(   31) = (   0.2723312  -0.4901961  -0.4901961), wk =   0.0082305
        k(   32) = (   0.3812636   0.3812636   0.3812636), wk =   0.0109739
        k(   33) = (   0.3812636   0.3812636  -0.4901961), wk =   0.0164609
        k(   34) = (   0.3812636  -0.4901961  -0.4901961), wk =   0.0082305
        k(   35) = (  -0.4901961  -0.4901961  -0.4901961), wk =   0.0013717

     Dense  grid:   198173 G-vectors     FFT dimensions: (  75,  75,  75)

     Smooth grid:   106143 G-vectors     FFT dimensions: (  60,  60,  60)

     Estimated max dynamical RAM per process >     151.38 MB

     Estimated total dynamical RAM >       2.96 GB
     Generating pointlists ...
     new r_m :   0.1822 (alat units)  1.9575 (a.u.) for type    1
     new r_m :   0.1822 (alat units)  1.9575 (a.u.) for type    2

     Check: negative/imaginary core charge=   -0.000008    0.000000

     Initial potential from superposition of free atoms

     starting charge  223.98764, renormalised to  224.00000
     Starting wfcs are  160 randomized atomic wfcs
     Checking if some PAW data can be deallocated... 

     total cpu time spent up to now is       11.9 secs

     Self-consistent Calculation

     iteration #  1     ecut=    71.00 Ry     beta= 0.10
     Davidson diagonalization with overlap
     ethr =  1.00E-02,  avg # of iterations =  3.1

     Threshold (ethr) on eigenvalues was too large:
     Diagonalizing with lowered threshold

     Davidson diagonalization with overlap
     ethr =  7.75E-04,  avg # of iterations =  3.6

     total cpu time spent up to now is       73.6 secs

     total energy              =   -3971.36489058 Ry
     Harris-Foulkes estimate   =   -3971.55101479 Ry
     estimated scf accuracy    <       1.94245993 Ry

     total magnetization       =     5.06 Bohr mag/cell
     absolute magnetization    =     5.35 Bohr mag/cell

     iteration #  2     ecut=    71.00 Ry     beta= 0.10
     Davidson diagonalization with overlap
     ethr =  8.67E-04,  avg # of iterations =  1.1

     total cpu time spent up to now is       94.8 secs

     total energy              =   -3971.05821179 Ry
     Harris-Foulkes estimate   =   -3971.38898981 Ry
     estimated scf accuracy    <       1.23708760 Ry

     total magnetization       =     4.97 Bohr mag/cell
     absolute magnetization    =     5.20 Bohr mag/cell

     iteration #  3     ecut=    71.00 Ry     beta= 0.10
     Davidson diagonalization with overlap
     ethr =  5.52E-04,  avg # of iterations =  3.1

     total cpu time spent up to now is      128.5 secs

     total energy              =   -3971.35389729 Ry
     Harris-Foulkes estimate   =   -3971.40717362 Ry
     estimated scf accuracy    <       0.31355261 Ry

     total magnetization       =     4.20 Bohr mag/cell
     absolute magnetization    =     4.36 Bohr mag/cell

     iteration #  4     ecut=    71.00 Ry     beta= 0.10
     Davidson diagonalization with overlap
     ethr =  1.40E-04,  avg # of iterations =  1.5

     total cpu time spent up to now is      151.1 secs

     total energy              =   -3971.36046829 Ry
     Harris-Foulkes estimate   =   -3971.36451671 Ry
     estimated scf accuracy    <       0.20273898 Ry

     total magnetization       =     4.06 Bohr mag/cell
     absolute magnetization    =     4.25 Bohr mag/cell

     iteration #  5     ecut=    71.00 Ry     beta= 0.10
     Davidson diagonalization with overlap
     ethr =  9.05E-05,  avg # of iterations =  2.6

     total cpu time spent up to now is      181.0 secs

     total energy              =   -3971.45940485 Ry
     Harris-Foulkes estimate   =   -3971.39516361 Ry
     estimated scf accuracy    <       0.17534294 Ry

     total magnetization       =     3.29 Bohr mag/cell
     absolute magnetization    =     3.53 Bohr mag/cell

     iteration #  6     ecut=    71.00 Ry     beta= 0.10
     Davidson diagonalization with overlap
     ethr =  7.83E-05,  avg # of iterations =  2.1

     total cpu time spent up to now is      208.0 secs

     total energy              =   -3971.51118512 Ry
     Harris-Foulkes estimate   =   -3971.51079786 Ry
     estimated scf accuracy    <       0.01255462 Ry

     total magnetization       =     0.30 Bohr mag/cell
     absolute magnetization    =     0.60 Bohr mag/cell

     iteration #  7     ecut=    71.00 Ry     beta= 0.10
     Davidson diagonalization with overlap
     ethr =  5.60E-06,  avg # of iterations =  5.2

     total cpu time spent up to now is      244.2 secs

     total energy              =   -3971.50813939 Ry
     Harris-Foulkes estimate   =   -3971.51230047 Ry
     estimated scf accuracy    <       0.01090610 Ry

     total magnetization       =     0.20 Bohr mag/cell
     absolute magnetization    =     0.56 Bohr mag/cell

     iteration #  8     ecut=    71.00 Ry     beta= 0.10
     Davidson diagonalization with overlap
     ethr =  4.87E-06,  avg # of iterations =  3.5

     total cpu time spent up to now is      279.5 secs

     total energy              =   -3971.51330239 Ry
     Harris-Foulkes estimate   =   -3971.51135901 Ry
     estimated scf accuracy    <       0.00367654 Ry

     total magnetization       =     0.23 Bohr mag/cell
     absolute magnetization    =     0.50 Bohr mag/cell

     iteration #  9     ecut=    71.00 Ry     beta= 0.10
     Davidson diagonalization with overlap
     c_bands:  1 eigenvalues not converged
     ethr =  1.64E-06,  avg # of iterations =  4.7

     total cpu time spent up to now is      316.5 secs

     total energy              =   -3971.51114940 Ry
     Harris-Foulkes estimate   =   -3971.51391272 Ry
     estimated scf accuracy    <       0.00805033 Ry

     total magnetization       =     0.18 Bohr mag/cell
     absolute magnetization    =     0.31 Bohr mag/cell

     iteration # 10     ecut=    71.00 Ry     beta= 0.10
     Davidson diagonalization with overlap
     ethr =  1.64E-06,  avg # of iterations =  3.7

     total cpu time spent up to now is      356.7 secs

     total energy              =   -3971.51252586 Ry
     Harris-Foulkes estimate   =   -3971.51246599 Ry
     estimated scf accuracy    <       0.00012226 Ry

     total magnetization       =     0.06 Bohr mag/cell
     absolute magnetization    =     0.17 Bohr mag/cell

     iteration # 11     ecut=    71.00 Ry     beta= 0.10
     Davidson diagonalization with overlap
     ethr =  5.46E-08,  avg # of iterations =  5.9

     total cpu time spent up to now is      411.0 secs

     total energy              =   -3971.51264570 Ry
     Harris-Foulkes estimate   =   -3971.51259925 Ry
     estimated scf accuracy    <       0.00007051 Ry

     total magnetization       =    -0.01 Bohr mag/cell
     absolute magnetization    =     0.09 Bohr mag/cell

     iteration # 12     ecut=    71.00 Ry     beta= 0.10
     Davidson diagonalization with overlap
     ethr =  3.15E-08,  avg # of iterations =  4.9

     total cpu time spent up to now is      460.5 secs

     total energy              =   -3971.51268661 Ry
     Harris-Foulkes estimate   =   -3971.51270136 Ry
     estimated scf accuracy    <       0.00031114 Ry

     total magnetization       =    -0.04 Bohr mag/cell
     absolute magnetization    =     0.06 Bohr mag/cell

     iteration # 13     ecut=    71.00 Ry     beta= 0.10
     Davidson diagonalization with overlap
     ethr =  3.15E-08,  avg # of iterations =  3.5

     total cpu time spent up to now is      497.9 secs

     total energy              =   -3971.51270105 Ry
     Harris-Foulkes estimate   =   -3971.51270253 Ry
     estimated scf accuracy    <       0.00002844 Ry

     total magnetization       =    -0.01 Bohr mag/cell
     absolute magnetization    =     0.05 Bohr mag/cell

     iteration # 14     ecut=    71.00 Ry     beta= 0.10
     Davidson diagonalization with overlap
     ethr =  1.27E-08,  avg # of iterations =  4.5

     total cpu time spent up to now is      538.8 secs

     total energy              =   -3971.51270894 Ry
     Harris-Foulkes estimate   =   -3971.51270487 Ry
     estimated scf accuracy    <       0.00000868 Ry

     total magnetization       =    -0.00 Bohr mag/cell
     absolute magnetization    =     0.05 Bohr mag/cell

     iteration # 15     ecut=    71.00 Ry     beta= 0.10
     Davidson diagonalization with overlap
     ethr =  3.88E-09,  avg # of iterations =  4.4

     total cpu time spent up to now is      578.7 secs

     total energy              =   -3971.51271979 Ry
     Harris-Foulkes estimate   =   -3971.51271187 Ry
     estimated scf accuracy    <       0.00002580 Ry

     total magnetization       =    -0.00 Bohr mag/cell
     absolute magnetization    =     0.05 Bohr mag/cell

     iteration # 16     ecut=    71.00 Ry     beta= 0.10
     Davidson diagonalization with overlap
     ethr =  3.88E-09,  avg # of iterations =  5.1

     total cpu time spent up to now is      632.5 secs

     total energy              =   -3971.51271913 Ry
     Harris-Foulkes estimate   =   -3971.51272643 Ry
     estimated scf accuracy    <       0.00012681 Ry

     total magnetization       =    -0.00 Bohr mag/cell
     absolute magnetization    =     0.05 Bohr mag/cell

     iteration # 17     ecut=    71.00 Ry     beta= 0.10
     Davidson diagonalization with overlap
     ethr =  3.88E-09,  avg # of iterations =  4.6

     total cpu time spent up to now is      674.0 secs

     total energy              =   -3971.51272296 Ry
     Harris-Foulkes estimate   =   -3971.51272253 Ry
     estimated scf accuracy    <       0.00000700 Ry

     total magnetization       =    -0.00 Bohr mag/cell
     absolute magnetization    =     0.05 Bohr mag/cell

     iteration # 18     ecut=    71.00 Ry     beta= 0.10
     Davidson diagonalization with overlap
     ethr =  3.12E-09,  avg # of iterations =  2.6
 
     Magnetic moment per site:
     atom:    1    charge:   12.2598    magn:    0.0018    constr:    0.0000
     atom:    2    charge:   12.2592    magn:   -0.0028    constr:    0.0000
     atom:    3    charge:   12.2592    magn:    0.0028    constr:    0.0000
     atom:    4    charge:   12.2592    magn:   -0.0028    constr:    0.0000
     atom:    5    charge:   12.2592    magn:    0.0028    constr:    0.0000
     atom:    6    charge:   12.2592    magn:   -0.0028    constr:    0.0000
     atom:    7    charge:   12.2592    magn:    0.0031    constr:    0.0000
     atom:    8    charge:   12.2592    magn:   -0.0028    constr:    0.0000
     atom:    9    charge:   12.2592    magn:    0.0028    constr:    0.0000
     atom:   10    charge:   12.2592    magn:   -0.0028    constr:    0.0000
     atom:   11    charge:   12.2592    magn:    0.0031    constr:    0.0000
     atom:   12    charge:   12.2592    magn:   -0.0028    constr:    0.0000
     atom:   13    charge:   12.2592    magn:    0.0031    constr:    0.0000
     atom:   14    charge:   12.2592    magn:   -0.0028    constr:    0.0000
     atom:   15    charge:   12.2588    magn:    0.0038    constr:    0.0000
     atom:   16    charge:   12.2592    magn:   -0.0028    constr:    0.0000

     total cpu time spent up to now is      699.7 secs

     End of self-consistent calculation

 ------ SPIN UP ------------


          k = 0.0545 0.0545 0.0545 ( 13283 PWs)   bands (ev):

   -53.5522 -53.4115 -53.4115 -53.4115 -53.3878 -53.3878 -53.3878 -53.3866
   -53.3866 -53.3865 -53.3841 -53.3841 -53.3841 -53.3748 -53.3718 -53.2694
   -25.1760 -25.1760 -25.1760 -25.1720 -25.1720 -25.1720 -24.9414 -24.9414
   -24.9327 -24.8510 -24.8471 -24.8471 -24.8471 -24.8180 -24.8180 -24.8011
   -24.8011 -24.8010 -24.7506 -24.7506 -24.7173 -24.6870 -24.6869 -24.6869
   -24.6725 -24.6725 -24.6724 -24.6528 -24.6528 -24.6528 -24.6476 -24.6476
   -24.6476 -24.6398 -24.6397 -24.6397 -24.6262 -24.6262 -24.6262 -24.4113
   -24.4112 -24.4112 -24.4111 -24.4067 -24.4067 -24.4067 -24.4020 -24.4020
    10.6848  14.1625  14.1625  14.1625  14.1855  14.1855  14.1855  14.2388
    14.2388  14.2388  14.3618  14.3618  14.6887  14.6887  14.6887  15.9806
    16.0695  16.0695  16.0696  16.0755  16.0755  16.0841  16.0842  16.0842
    16.2256  16.2256  16.2753  16.4639  16.4639  16.4639  16.8875  16.8875
    16.8875  17.4931  17.4931  17.5442  17.8127  17.8127  17.8127  17.9232
    17.9232  17.9232  18.0150  18.0151  18.0151  18.1169  18.1169  18.1169
    18.9435  18.9435  18.9435  18.9597  18.9597  18.9598  19.1649  19.1651
    19.1651  19.2143  19.2143  19.2143  19.3992  19.3992  19.3992  19.4272
    19.4272  19.4464  19.4464  19.4464  19.7430  19.7431

          k = 0.0545 0.0545 0.1634 ( 13306 PWs)   bands (ev):

   -53.5472 -53.4366 -53.4104 -53.4104 -53.3903 -53.3903 -53.3870 -53.3861
   -53.3861 -53.3834 -53.3832 -53.3832 -53.3756 -53.3726 -53.3629 -53.2730
   -25.1650 -25.1650 -25.1638 -25.1603 -25.1535 -25.1534 -24.9460 -24.9326
   -24.9191 -24.9007 -24.8875 -24.8875 -24.8849 -24.8841 -24.8432 -24.8432
   -24.7963 -24.7591 -24.7476 -24.7340 -24.7185 -24.6868 -24.6868 -24.6848
   -24.6666 -24.6614 -24.6575 -24.6575 -24.6556 -24.6446 -24.6446 -24.6404
   -24.6404 -24.6361 -24.6360 -24.5939 -24.5913 -24.5913 -24.5814 -24.4319
   -24.4234 -24.4234 -24.4217 -24.4180 -24.4110 -24.4109 -24.4097 -24.4055
    10.8143  13.6765  14.1827  14.1827  14.2531  14.2531  14.2658  14.2847
    14.2848  14.2876  14.4277  14.4317  14.7243  14.7244  14.9741  15.8642
    15.9795  15.9932  16.0489  16.0502  16.0634  16.1123  16.1228  16.1228
    16.1665  16.1665  16.4216  16.4216  16.4220  16.4338  16.7887  16.7887
    17.2785  17.4638  17.4861  17.5838  17.5838  17.6107  17.6568  17.7737
    17.7737  17.8186  18.1102  18.1102  18.2343  18.2343  18.2647  18.3728
    18.4430  18.4430  18.6804  18.6849  18.6850  18.7009  18.8049  19.1926
    19.1926  19.3238  19.3239  19.3416  19.4108  19.4109  19.4219  19.4476
    19.4569  19.4569  19.4615  19.4850  19.7465  19.7703

          k = 0.0545 0.0545 0.2723 ( 13311 PWs)   bands (ev):

   -53.5375 -53.4612 -53.4082 -53.4081 -53.3937 -53.3937 -53.3856 -53.3854
   -53.3854 -53.3827 -53.3827 -53.3820 -53.3771 -53.3740 -53.3410 -53.2800
   -25.1402 -25.1401 -25.1400 -25.1374 -25.1213 -25.1212 -24.9565 -24.9489
   -24.9480 -24.9430 -24.9430 -24.9155 -24.9117 -24.9018 -24.9017 -24.8998
   -24.7792 -24.7748 -24.7631 -24.7510 -24.6885 -24.6839 -24.6839 -24.6778
   -24.6709 -24.6631 -24.6630 -24.6424 -24.6424 -24.6403 -24.6403 -24.6223
   -24.6114 -24.5901 -24.5901 -24.5506 -24.5479 -24.5479 -24.5389 -24.4661
   -24.4433 -24.4433 -24.4424 -24.4404 -24.4249 -24.4233 -24.4232 -24.4183
    11.0690  13.0662  14.2374  14.2374  14.3487  14.3487  14.3605  14.3605
    14.4645  14.4835  14.5584  14.5614  14.7557  14.7558  15.0810  15.6597
    15.6957  15.7480  15.9310  15.9852  16.0162  16.0272  16.2417  16.2417
    16.3139  16.3140  16.4218  16.4219  16.6798  16.7021  16.7228  16.7228
    17.2738  17.2739  17.4431  17.4446  17.4447  17.4757  17.4809  17.5461
    17.7090  17.8813  17.8814  17.9409  18.0745  18.0746  18.2880  18.3218
    18.3901  18.3901  18.4292  18.4292  18.4326  18.5628  18.6822  19.1740
    19.2056  19.2056  19.3172  19.3172  19.4648  19.4819  19.5242  19.5243
    19.5274  19.7227  19.7251  19.7471  19.7528  19.7781

          k = 0.0545 0.0545 0.3813 ( 13312 PWs)   bands (ev):

   -53.5233 -53.4844 -53.4051 -53.4051 -53.3975 -53.3975 -53.3845 -53.3845
   -53.3836 -53.3829 -53.3829 -53.3801 -53.3791 -53.3758 -53.3213 -53.2906
   -25.1054 -25.1040 -25.1029 -25.1029 -25.0773 -25.0773 -25.0114 -25.0081
   -25.0009 -25.0009 -24.9638 -24.9638 -24.9470 -24.9305 -24.8906 -24.8740
   -24.8213 -24.8046 -24.7506 -24.7342 -24.6997 -24.6906 -24.6796 -24.6796
   -24.6688 -24.6688 -24.6411 -24.6410 -24.6401 -24.6401 -24.6272 -24.5651
   -24.5590 -24.5452 -24.5451 -24.5122 -24.5110 -24.5070 -24.5070 -24.5003
   -24.4730 -24.4729 -24.4706 -24.4705 -24.4473 -24.4436 -24.4435 -24.4390
    11.4395  12.4637  14.3089  14.3089  14.3861  14.3862  14.4942  14.4942
    14.7284  14.7284  14.7298  14.7421  14.7515  14.7564  15.0398  15.3082
    15.4128  15.4236  15.9214  15.9404  15.9759  15.9851  16.4212  16.4212
    16.5200  16.5201  16.5581  16.5581  16.7739  16.7740  16.9870  16.9870
    17.0080  17.0296  17.1153  17.1154  17.3488  17.3489  17.4337  17.4682
    17.4768  17.4848  17.5185  17.5186  17.8392  17.8401  17.8415  18.2067
    18.2781  18.6482  18.6482  18.6816  18.6816  18.9057  18.9317  19.0357
    19.0491  19.0491  19.1619  19.1619  19.5233  19.5346  19.6203  19.6603
    19.6641  19.6656  19.7612  19.7800  19.7862  19.7944

          k = 0.0545 0.0545-0.4902 ( 13294 PWs)   bands (ev):

   -53.5056 -53.5053 -53.4016 -53.4016 -53.4013 -53.4013 -53.3838 -53.3837
   -53.3834 -53.3834 -53.3814 -53.3813 -53.3783 -53.3777 -53.3046 -53.3043
   -25.0615 -25.0612 -25.0612 -25.0608 -25.0554 -25.0554 -25.0553 -25.0553
   -25.0236 -25.0235 -25.0234 -25.0234 -24.9419 -24.9417 -24.8591 -24.8587
   -24.8421 -24.8418 -24.7250 -24.7247 -24.7131 -24.7127 -24.6746 -24.6746
   -24.6742 -24.6742 -24.6406 -24.6406 -24.6403 -24.6402 -24.5673 -24.5670
   -24.5150 -24.5147 -24.5122 -24.5119 -24.5049 -24.5048 -24.5048 -24.5047
   -24.4764 -24.4761 -24.4718 -24.4717 -24.4717 -24.4716 -24.4668 -24.4665
    11.9112  11.9117  14.3690  14.3690  14.3693  14.3693  14.6296  14.6296
    14.6298  14.6298  14.9041  14.9045  15.0029  15.0034  15.0732  15.0736
    15.0792  15.0796  15.9402  15.9404  15.9502  15.9505  16.6488  16.6489
    16.6490  16.6490  16.7430  16.7430  16.7431  16.7432  16.9370  16.9371
    16.9373  16.9374  17.0922  17.0923  17.0925  17.0926  17.3973  17.3974
    17.4119  17.4120  17.4421  17.4423  17.4702  17.4705  18.0081  18.0084
    18.6264  18.6267  18.8603  18.8603  18.8603  18.8604  18.9462  18.9462
    18.9462  18.9463  19.2807  19.2808  19.4185  19.4187  19.5908  19.5912
    19.5977  19.5981  19.7353  19.7356  19.7706  19.7709

          k = 0.0545 0.1634 0.1634 ( 13302 PWs)   bands (ev):

   -53.5424 -53.4347 -53.4347 -53.4092 -53.3972 -53.3894 -53.3894 -53.3857
   -53.3825 -53.3825 -53.3778 -53.3766 -53.3732 -53.3632 -53.3632 -53.2764
   -25.1618 -25.1534 -25.1534 -25.1430 -25.1429 -25.1277 -24.9555 -24.9319
   -24.9275 -24.9224 -24.9223 -24.9130 -24.9048 -24.8982 -24.8712 -24.8103
   -24.7908 -24.7908 -24.7440 -24.7328 -24.7327 -24.6950 -24.6811 -24.6810
   -24.6705 -24.6674 -24.6674 -24.6583 -24.6526 -24.6526 -24.6464 -24.6333
   -24.6285 -24.6062 -24.5955 -24.5955 -24.5653 -24.5487 -24.5486 -24.4598
   -24.4431 -24.4316 -24.4316 -24.4214 -24.4213 -24.4162 -24.4064 -24.4024
    10.9421  13.7399  13.7399  14.1440  14.2872  14.2872  14.3385  14.3541
    14.3541  14.3600  14.4917  14.5019  14.7708  15.0108  15.0108  15.7578
    15.8775  16.0434  16.0434  16.0645  16.1004  16.1004  16.1393  16.1394
    16.1464  16.1892  16.2771  16.3627  16.4052  16.4456  16.6818  17.0968
    17.0968  17.3962  17.4411  17.4411  17.4675  17.4876  17.6390  17.7212
    18.0083  18.0084  18.0319  18.0805  18.0806  18.2004  18.2801  18.2801
    18.3090  18.4226  18.4226  18.4392  18.4393  18.5289  18.9300  18.9300
    19.1988  19.3273  19.3496  19.3496  19.3861  19.4158  19.4158  19.4248
    19.4365  19.6124  19.7124  19.7170  19.7170  19.7522

          k = 0.0545 0.1634 0.2723 ( 13297 PWs)   bands (ev):

   -53.5329 -53.4586 -53.4310 -53.4070 -53.4047 -53.3928 -53.3878 -53.3849
   -53.3821 -53.3813 -53.3783 -53.3743 -53.3733 -53.3640 -53.3420 -53.2832
   -25.1446 -25.1306 -25.1300 -25.1226 -25.1129 -25.0887 -24.9737 -24.9718
   -24.9646 -24.9549 -24.9536 -24.9471 -24.9168 -24.9111 -24.8723 -24.8512
   -24.7943 -24.7772 -24.7381 -24.7325 -24.7273 -24.7252 -24.6976 -24.6862
   -24.6838 -24.6746 -24.6674 -24.6507 -24.6496 -24.6340 -24.6232 -24.6080
   -24.5982 -24.5852 -24.5687 -24.5532 -24.5316 -24.5090 -24.5089 -24.5006
   -24.4700 -24.4481 -24.4478 -24.4419 -24.4312 -24.4307 -24.4105 -24.4073
    11.1929  13.1478  13.8473  14.1243  14.3425  14.4173  14.4605  14.4879
    14.5008  14.5473  14.6138  14.6364  14.8221  15.0309  15.1263  15.6340
    15.6802  15.7241  15.9963  16.0610  16.0908  16.0925  16.0979  16.2101
    16.2355  16.2721  16.3295  16.4516  16.5714  16.5877  16.6372  16.9614
    17.1600  17.2670  17.2763  17.3327  17.3522  17.3939  17.4454  17.5569
    17.6652  17.7753  17.8622  17.9119  17.9878  18.0387  18.0502  18.1984
    18.2875  18.4026  18.4268  18.4800  18.5059  18.6736  18.6763  19.0533
    19.1994  19.2348  19.2635  19.3223  19.3571  19.4004  19.4462  19.4860
    19.6454  19.7026  19.7061  19.7315  19.7775  19.7824

          k = 0.0545 0.1634 0.3813 ( 13301 PWs)   bands (ev):

   -53.5191 -53.4812 -53.4258 -53.4123 -53.4040 -53.3965 -53.3857 -53.3840
   -53.3823 -53.3806 -53.3796 -53.3758 -53.3697 -53.3652 -53.3230 -53.2934
   -25.1149 -25.0976 -25.0953 -25.0932 -25.0721 -25.0384 -25.0262 -25.0150
   -25.0067 -25.0036 -24.9698 -24.9696 -24.9625 -24.9162 -24.8867 -24.8418
   -24.8185 -24.7687 -24.7676 -24.7254 -24.7190 -24.7110 -24.6966 -24.6950
   -24.6863 -24.6821 -24.6708 -24.6506 -24.6501 -24.6146 -24.6022 -24.5864
   -24.5568 -24.5514 -24.5429 -24.5319 -24.5146 -24.5032 -24.4990 -24.4736
   -24.4730 -24.4726 -24.4720 -24.4702 -24.4526 -24.4477 -24.4230 -24.4216
    11.5575  12.5609  13.9637  14.1023  14.4128  14.4721  14.5931  14.6655
    14.7681  14.7827  14.8138  14.8141  14.8221  14.9706  15.0929  15.3483
    15.4195  15.4423  15.9589  16.0058  16.0146  16.0397  16.2911  16.3673
    16.3856  16.4126  16.4416  16.5767  16.6805  16.8257  16.8624  16.9250
    17.0184  17.0540  17.0821  17.1331  17.2803  17.2883  17.2985  17.3137
    17.3694  17.4155  17.4207  17.5449  17.6254  17.6299  18.0290  18.4343
    18.4474  18.6113  18.6186  18.6898  18.6965  18.7176  18.9010  18.9849
    18.9890  19.0821  19.1661  19.2144  19.3555  19.4708  19.5004  19.5810
    19.6059  19.6322  19.6405  19.7124  19.7738  19.7765

          k = 0.0545 0.1634-0.4902 ( 13286 PWs)   bands (ev):

   -53.5018 -53.5015 -53.4196 -53.4193 -53.4005 -53.4003 -53.3833 -53.3832
   -53.3831 -53.3829 -53.3779 -53.3774 -53.3672 -53.3669 -53.3069 -53.3065
   -25.0746 -25.0745 -25.0567 -25.0563 -25.0558 -25.0554 -25.0520 -25.0519
   -25.0231 -25.0230 -24.9800 -24.9799 -24.9696 -24.9695 -24.8557 -24.8553
   -24.8066 -24.8065 -24.7398 -24.7395 -24.7087 -24.7084 -24.7069 -24.7066
   -24.6896 -24.6893 -24.6504 -24.6500 -24.6093 -24.6091 -24.6078 -24.6074
   -24.5424 -24.5423 -24.5109 -24.5106 -24.5048 -24.5045 -24.4985 -24.4984
   -24.4809 -24.4805 -24.4705 -24.4704 -24.4443 -24.4441 -24.4441 -24.4440
    12.0205  12.0210  14.0532  14.0535  14.4675  14.4677  14.7252  14.7254
    14.8337  14.8339  14.9600  14.9603  15.0591  15.0595  15.1000  15.1004
    15.1218  15.1222  15.9745  15.9748  16.0007  16.0009  16.5306  16.5307
    16.5427  16.5430  16.5893  16.5894  16.6225  16.6229  16.9919  16.9920
    17.0135  17.0137  17.0729  17.0730  17.1850  17.1852  17.2206  17.2208
    17.2637  17.2638  17.2691  17.2692  17.3970  17.3973  18.2214  18.2215
    18.7266  18.7268  18.7530  18.7530  18.8971  18.8972  18.9524  18.9525
    18.9731  18.9732  18.9959  18.9959  19.3403  19.3405  19.5513  19.5517
    19.5684  19.5688  19.7000  19.7004  19.7720  19.7723

          k = 0.0545 0.2723 0.2723 ( 13313 PWs)   bands (ev):

   -53.5238 -53.4536 -53.4536 -53.4160 -53.4049 -53.3911 -53.3910 -53.3841
   -53.3810 -53.3810 -53.3804 -53.3751 -53.3649 -53.3441 -53.3441 -53.2895
   -25.1354 -25.1102 -25.1102 -25.0970 -25.0970 -25.0437 -24.9936 -24.9935
   -24.9934 -24.9822 -24.9782 -24.9758 -24.9448 -24.8958 -24.8395 -24.7956
   -24.7934 -24.7934 -24.7693 -24.7692 -24.7316 -24.7100 -24.7044 -24.6960
   -24.6960 -24.6782 -24.6782 -24.6660 -24.6660 -24.6592 -24.6058 -24.5751
   -24.5586 -24.5585 -24.5538 -24.5487 -24.5408 -24.5095 -24.5027 -24.4741
   -24.4741 -24.4578 -24.4577 -24.4472 -24.4472 -24.4445 -24.4060 -24.4030
    11.4359  13.2976  13.2976  14.0058  14.5265  14.5436  14.5436  14.6507
    14.6507  14.6577  14.7184  14.7800  14.9156  15.1540  15.1540  15.5670
    15.6371  15.7780  15.7781  16.0565  16.1354  16.1550  16.1551  16.2010
    16.2010  16.2332  16.2935  16.4487  16.5154  16.6155  16.6518  17.0504
    17.0504  17.1608  17.1640  17.1647  17.1647  17.2189  17.2605  17.4034
    17.5743  17.5743  17.6292  17.6293  17.7629  17.9323  17.9324  18.0528
    18.4990  18.4990  18.5659  18.6081  18.6424  18.6424  18.8960  19.0001
    19.0002  19.1931  19.2942  19.2942  19.3330  19.3522  19.3522  19.3667
    19.4567  19.6512  19.6551  19.6595  19.7737  19.7824

          k = 0.0545 0.2723 0.3813 ( 13279 PWs)   bands (ev):

   -53.5108 -53.4749 -53.4464 -53.4271 -53.4019 -53.3947 -53.3887 -53.3831
   -53.3831 -53.3813 -53.3795 -53.3763 -53.3577 -53.3474 -53.3265 -53.2989
   -25.1135 -25.0821 -25.0809 -25.0746 -25.0626 -25.0398 -25.0196 -25.0102
   -25.0101 -25.0032 -24.9957 -24.9887 -24.9820 -24.8727 -24.8599 -24.8084
   -24.8030 -24.7791 -24.7571 -24.7311 -24.7239 -24.7232 -24.7215 -24.7211
   -24.7147 -24.7054 -24.6850 -24.6660 -24.6645 -24.6297 -24.6053 -24.5901
   -24.5665 -24.5407 -24.5372 -24.5229 -24.5224 -24.5137 -24.4881 -24.4736
   -24.4717 -24.4708 -24.4647 -24.4565 -24.4447 -24.4445 -24.4100 -24.4081
    11.7877  12.7459  13.4892  13.8638  14.6097  14.6213  14.7788  14.8216
    14.8223  14.8616  14.9086  14.9581  14.9768  15.1003  15.1346  15.4333
    15.4422  15.4800  16.0078  16.0308  16.0785  16.0918  16.1229  16.2369
    16.2768  16.3161  16.3860  16.4121  16.6757  16.7427  16.7727  16.8039
    16.9142  17.0146  17.0423  17.0878  17.1104  17.1273  17.1855  17.2244
    17.2449  17.2932  17.3104  17.3541  17.4321  17.5660  18.2443  18.2648
    18.6343  18.6718  18.7443  18.7628  18.7775  18.7883  18.7898  18.8598
    18.9784  19.0737  19.1512  19.2007  19.2325  19.3396  19.3787  19.4129
    19.4798  19.5186  19.5715  19.5793  19.6864  19.7789

          k = 0.0545 0.2723-0.4902 ( 13292 PWs)   bands (ev):

   -53.4944 -53.4941 -53.4375 -53.4372 -53.3986 -53.3983 -53.3860 -53.3858
   -53.3823 -53.3819 -53.3781 -53.3776 -53.3521 -53.3517 -53.3115 -53.3111
   -25.0809 -25.0808 -25.0480 -25.0478 -25.0478 -25.0475 -25.0461 -25.0460
   -25.0229 -25.0228 -25.0033 -25.0032 -24.9263 -24.9263 -24.8435 -24.8431
   -24.7636 -24.7635 -24.7529 -24.7526 -24.7419 -24.7416 -24.7126 -24.7124
   -24.7049 -24.7047 -24.6674 -24.6673 -24.6663 -24.6660 -24.5834 -24.5833
   -24.5772 -24.5769 -24.5015 -24.5012 -24.4957 -24.4955 -24.4911 -24.4908
   -24.4905 -24.4904 -24.4702 -24.4701 -24.4229 -24.4229 -24.4224 -24.4224
    12.2318  12.2323  13.6878  13.6882  14.6489  14.6491  14.8995  14.8997
    14.9780  14.9783  15.0166  15.0170  15.1415  15.1418  15.1929  15.1933
    15.2120  15.2124  16.0409  16.0411  16.0686  16.0688  16.3307  16.3309
    16.3456  16.3460  16.3670  16.3673  16.5853  16.5854  16.9602  16.9603
    16.9883  16.9883  17.0000  17.0001  17.0277  17.0279  17.0665  17.0665
    17.1980  17.1981  17.2199  17.2200  17.3029  17.3030  18.4947  18.4948
    18.5971  18.5971  18.6727  18.6727  18.8828  18.8830  18.9781  18.9782
    19.0019  19.0020  19.0429  19.0430  19.1497  19.1499  19.4759  19.4762
    19.4935  19.4938  19.6360  19.6364  19.6639  19.6640

          k = 0.0545 0.3813 0.3813 ( 13300 PWs)   bands (ev):

   -53.4988 -53.4659 -53.4659 -53.4414 -53.3991 -53.3921 -53.3921 -53.3860
   -53.3820 -53.3800 -53.3800 -53.3772 -53.3473 -53.3316 -53.3316 -53.3072
   -25.0996 -25.0618 -25.0617 -25.0504 -25.0504 -25.0421 -25.0421 -25.0271
   -25.0224 -25.0219 -25.0183 -25.0007 -24.9299 -24.8519 -24.7974 -24.7973
   -24.7929 -24.7929 -24.7756 -24.7615 -24.7496 -24.7329 -24.7328 -24.7301
   -24.7147 -24.6848 -24.6848 -24.6762 -24.6740 -24.6739 -24.6668 -24.5821
   -24.5683 -24.5341 -24.5341 -24.5132 -24.5038 -24.4973 -24.4825 -24.4789
   -24.4775 -24.4774 -24.4708 -24.4707 -24.4226 -24.4226 -24.4052 -24.4036
    12.1184  12.9989  12.9990  13.5892  14.7805  14.8740  14.8740  14.9569
    14.9616  15.0219  15.0219  15.0883  15.1207  15.1207  15.1921  15.3636
    15.4066  15.7233  15.7234  16.0735  16.0925  16.1334  16.1771  16.1771
    16.1862  16.1862  16.2611  16.3928  16.4974  16.6162  16.7266  16.8213
    16.8213  16.9097  16.9853  16.9854  16.9855  16.9887  17.0194  17.0194
    17.1705  17.1705  17.1848  17.2774  17.2836  17.8668  17.8668  18.5197
    18.5872  18.6764  18.7368  18.7369  18.9072  18.9072  18.9272  18.9346
    19.0648  19.0649  19.1143  19.1987  19.2199  19.2516  19.2516  19.2764
    19.2764  19.4797  19.4865  19.4903  19.5973  19.6990

          k = 0.0545 0.3813-0.4902 ( 13328 PWs)   bands (ev):

   -53.4837 -53.4834 -53.4547 -53.4543 -53.3958 -53.3956 -53.3893 -53.3890
   -53.3811 -53.3807 -53.3788 -53.3784 -53.3388 -53.3384 -53.3183 -53.3180
   -25.0753 -25.0753 -25.0408 -25.0405 -25.0405 -25.0404 -25.0379 -25.0376
   -25.0343 -25.0342 -25.0246 -25.0245 -24.8650 -24.8650 -24.8251 -24.8247
   -24.7733 -24.7729 -24.7586 -24.7585 -24.7361 -24.7360 -24.7323 -24.7322
   -24.7180 -24.7179 -24.7023 -24.7022 -24.6828 -24.6827 -24.6271 -24.6270
   -24.5496 -24.5492 -24.5062 -24.5058 -24.4901 -24.4899 -24.4883 -24.4881
   -24.4852 -24.4851 -24.4731 -24.4730 -24.4094 -24.4094 -24.4088 -24.4087
    12.5306  12.5310  13.2911  13.2916  14.8746  14.8749  15.0589  15.0592
    15.0601  15.0605  15.1074  15.1076  15.1545  15.1548  15.2623  15.2625
    15.4470  15.4474  16.0400  16.0404  16.1002  16.1002  16.1021  16.1022
    16.1582  16.1585  16.2201  16.2203  16.6362  16.6362  16.7553  16.7554
    16.8413  16.8414  16.8525  16.8526  16.8843  16.8843  16.9144  16.9144
    17.1784  17.1785  17.2223  17.2224  17.5078  17.5079  18.2105  18.2106
    18.6672  18.6673  18.7863  18.7864  18.9343  18.9344  19.0414  19.0416
    19.0981  19.0983  19.1059  19.1061  19.1063  19.1064  19.3674  19.3677
    19.3787  19.3790  19.3854  19.3855  19.5632  19.5636

          k = 0.0545-0.4902-0.4902 ( 13300 PWs)   bands (ev):

   -53.4703 -53.4703 -53.4700 -53.4699 -53.3927 -53.3926 -53.3924 -53.3924
   -53.3799 -53.3798 -53.3795 -53.3794 -53.3275 -53.3274 -53.3271 -53.3271
   -25.0589 -25.0589 -25.0589 -25.0588 -25.0380 -25.0380 -25.0378 -25.0378
   -25.0296 -25.0295 -25.0294 -25.0293 -24.8013 -24.8012 -24.8010 -24.8009
   -24.7992 -24.7992 -24.7992 -24.7991 -24.7529 -24.7529 -24.7529 -24.7528
   -24.6955 -24.6955 -24.6955 -24.6954 -24.6722 -24.6722 -24.6721 -24.6721
   -24.5258 -24.5257 -24.5255 -24.5253 -24.4844 -24.4844 -24.4843 -24.4843
   -24.4800 -24.4800 -24.4798 -24.4798 -24.4044 -24.4044 -24.4044 -24.4043
    12.8938  12.8939  12.8943  12.8944  15.0699  15.0700  15.0702  15.0702
    15.0809  15.0810  15.0812  15.0813  15.2543  15.2543  15.2545  15.2545
    15.7320  15.7322  15.7324  15.7325  16.0864  16.0865  16.0866  16.0867
    16.1368  16.1369  16.1370  16.1370  16.7361  16.7362  16.7362  16.7362
    16.7379  16.7379  16.7379  16.7379  16.8239  16.8240  16.8241  16.8241
    17.1790  17.1790  17.1791  17.1791  17.8418  17.8419  17.8419  17.8419
    18.7589  18.7589  18.7590  18.7591  19.0803  19.0803  19.0803  19.0803
    19.1371  19.1371  19.1372  19.1373  19.2357  19.2358  19.2359  19.2360
    19.2414  19.2415  19.2417  19.2417  19.5381  19.5382

          k = 0.1634 0.1634 0.1634 ( 13271 PWs)   bands (ev):

   -53.5376 -53.4328 -53.4328 -53.4328 -53.3962 -53.3962 -53.3961 -53.3786
   -53.3774 -53.3774 -53.3773 -53.3727 -53.3635 -53.3635 -53.3635 -53.2797
   -25.1501 -25.1500 -25.1500 -25.1191 -25.1191 -25.1190 -24.9593 -24.9466
   -24.9466 -24.9446 -24.9445 -24.9445 -24.8759 -24.8759 -24.8720 -24.8207
   -24.8207 -24.8207 -24.7430 -24.7430 -24.7430 -24.6831 -24.6831 -24.6831
   -24.6793 -24.6793 -24.6482 -24.6482 -24.6481 -24.6397 -24.6397 -24.6397
   -24.5993 -24.5993 -24.5993 -24.5942 -24.5267 -24.5267 -24.5267 -24.4880
   -24.4480 -24.4480 -24.4479 -24.4175 -24.4175 -24.4175 -24.4102 -24.4102
    11.0682  13.8086  13.8087  13.8087  14.2521  14.2521  14.2521  14.4584
    14.4584  14.4584  14.5632  14.5632  15.0616  15.0617  15.0617  15.6687
    15.9885  15.9885  16.0205  16.0205  16.0205  16.1242  16.1242  16.1243
    16.2394  16.2395  16.2395  16.2892  16.3644  16.3644  16.9398  16.9398
    16.9399  17.3552  17.3552  17.3552  17.3803  17.3803  17.8078  17.8078
    17.8078  17.8444  17.9233  17.9233  17.9233  18.2070  18.2070  18.2070
    18.2535  18.2536  18.2536  18.5082  18.5082  18.5083  19.1455  19.1456
    19.1456  19.2406  19.2406  19.2406  19.3671  19.3671  19.4192  19.4192
    19.4192  19.7162  19.7163  19.7163  19.7553  19.7557

          k = 0.1634 0.1634 0.2723 ( 13295 PWs)   bands (ev):

   -53.5284 -53.4561 -53.4292 -53.4292 -53.4035 -53.4035 -53.3942 -53.3814
   -53.3765 -53.3730 -53.3730 -53.3727 -53.3642 -53.3642 -53.3430 -53.2863
   -25.1335 -25.1334 -25.1267 -25.1025 -25.0830 -25.0829 -24.9886 -24.9821
   -24.9821 -24.9660 -24.9628 -24.9388 -24.9292 -24.8691 -24.8690 -24.8439
   -24.8416 -24.7895 -24.7637 -24.7452 -24.7451 -24.7063 -24.6991 -24.6991
   -24.6903 -24.6893 -24.6514 -24.6288 -24.6288 -24.6179 -24.6080 -24.6080
   -24.6033 -24.6033 -24.5588 -24.5548 -24.5307 -24.4979 -24.4979 -24.4918
   -24.4701 -24.4701 -24.4582 -24.4393 -24.4259 -24.4206 -24.4206 -24.4110
    11.3158  13.2328  13.9263  13.9264  14.2349  14.2350  14.4606  14.5978
    14.5978  14.6454  14.6845  14.6955  15.1067  15.1067  15.1889  15.5825
    15.6834  15.8264  15.9565  16.0425  16.0425  16.0847  16.1754  16.2085
    16.2086  16.2093  16.3929  16.3930  16.3943  16.5882  16.7917  16.7918
    17.1093  17.1581  17.1582  17.2568  17.2926  17.3512  17.4874  17.4875
    17.5304  17.5304  17.7184  17.8246  17.8247  17.8499  18.0086  18.0162
    18.3382  18.4559  18.4559  18.6076  18.6076  18.7790  18.8940  19.1098
    19.1098  19.2322  19.3162  19.3535  19.3535  19.3860  19.4422  19.4439
    19.4439  19.4447  19.6963  19.7020  19.7232  19.7525

          k = 0.1634 0.1634 0.3813 ( 13319 PWs)   bands (ev):

   -53.5149 -53.4781 -53.4242 -53.4241 -53.4109 -53.4108 -53.3914 -53.3847
   -53.3754 -53.3733 -53.3696 -53.3696 -53.3653 -53.3653 -53.3247 -53.2961
   -25.1055 -25.1055 -25.0926 -25.0793 -25.0363 -25.0362 -25.0257 -25.0257
   -25.0199 -24.9970 -24.9772 -24.9742 -24.9254 -24.9253 -24.9038 -24.8326
   -24.8090 -24.8080 -24.7394 -24.7394 -24.7372 -24.7317 -24.7147 -24.7147
   -24.7027 -24.6885 -24.6656 -24.6199 -24.6199 -24.6077 -24.6077 -24.5829
   -24.5679 -24.5678 -24.5618 -24.5260 -24.5143 -24.4979 -24.4978 -24.4746
   -24.4714 -24.4702 -24.4702 -24.4617 -24.4489 -24.4305 -24.4305 -24.4203
    11.6750  12.6600  14.0561  14.0562  14.2125  14.2126  14.7536  14.7623
    14.7623  14.8628  14.8660  14.8998  15.0638  15.0638  15.1659  15.3701
    15.4318  15.4821  15.9607  16.0366  16.0840  16.1056  16.2028  16.2028
    16.3464  16.3464  16.5639  16.5640  16.6750  16.6789  16.6790  16.8537
    17.0089  17.0089  17.0712  17.0712  17.2028  17.2057  17.2272  17.2379
    17.2380  17.3125  17.3895  17.3895  17.4249  17.4469  18.1985  18.2874
    18.5578  18.6455  18.7167  18.7167  18.7361  18.7361  18.9723  18.9723
    18.9969  19.0402  19.1050  19.2100  19.2100  19.4129  19.4964  19.5452
    19.6146  19.6350  19.7172  19.7172  19.7316  19.7474

          k = 0.1634 0.1634-0.4902 ( 13284 PWs)   bands (ev):

   -53.4981 -53.4978 -53.4181 -53.4180 -53.4177 -53.4177 -53.3883 -53.3880
   -53.3744 -53.3740 -53.3673 -53.3672 -53.3669 -53.3669 -53.3091 -53.3087
   -25.0684 -25.0684 -25.0684 -25.0683 -25.0510 -25.0507 -25.0490 -25.0486
   -24.9827 -24.9826 -24.9825 -24.9825 -24.9796 -24.9794 -24.8714 -24.8710
   -24.7727 -24.7724 -24.7711 -24.7709 -24.7288 -24.7288 -24.7285 -24.7285
   -24.6793 -24.6790 -24.6415 -24.6413 -24.6130 -24.6130 -24.6127 -24.6127
   -24.5308 -24.5307 -24.5306 -24.5306 -24.5126 -24.5122 -24.4975 -24.4973
   -24.4787 -24.4783 -24.4472 -24.4471 -24.4471 -24.4471 -24.4373 -24.4372
    12.1303  12.1308  14.1574  14.1574  14.1577  14.1577  14.9308  14.9308
    14.9310  14.9310  15.0391  15.0394  15.0933  15.0937  15.1061  15.1065
    15.1832  15.1836  15.9911  15.9914  16.0599  16.0601  16.4833  16.4833
    16.4837  16.4837  16.5201  16.5201  16.5203  16.5203  16.9903  16.9904
    16.9904  16.9905  17.0256  17.0258  17.0869  17.0870  17.0871  17.0871
    17.1474  17.1476  17.1946  17.1946  17.2659  17.2661  18.4116  18.4117
    18.6210  18.6211  18.8065  18.8067  18.8390  18.8390  18.8390  18.8391
    18.9972  18.9972  18.9973  18.9973  19.4681  19.4683  19.5164  19.5168
    19.5630  19.5634  19.6689  19.6693  19.7401  19.7404

          k = 0.1634 0.2723 0.2723 ( 13308 PWs)   bands (ev):

   -53.5195 -53.4511 -53.4511 -53.4258 -53.4145 -53.4011 -53.4011 -53.3853
   -53.3725 -53.3725 -53.3717 -53.3649 -53.3647 -53.3450 -53.3450 -53.2923
   -25.1239 -25.1114 -25.1114 -25.0718 -25.0718 -25.0410 -25.0051 -25.0002
   -24.9984 -24.9984 -24.9730 -24.9513 -24.9251 -24.9014 -24.8589 -24.8137
   -24.8136 -24.8065 -24.7912 -24.7911 -24.7602 -24.7266 -24.7266 -24.7235
   -24.6692 -24.6486 -24.6486 -24.6387 -24.6387 -24.6098 -24.6092 -24.5947
   -24.5764 -24.5752 -24.5596 -24.5596 -24.5331 -24.4975 -24.4820 -24.4724
   -24.4723 -24.4682 -24.4682 -24.4405 -24.4405 -24.4355 -24.4167 -24.4112
    11.5565  13.3892  13.3893  14.0652  14.1207  14.4486  14.4486  14.7538
    14.7809  14.7809  14.7944  14.8321  15.2095  15.2447  15.2447  15.5489
    15.7524  15.7524  15.7636  15.9916  16.0169  16.1607  16.1607  16.2518
    16.2664  16.2695  16.2951  16.2951  16.5631  16.5662  16.6277  16.9265
    16.9265  17.0458  17.0928  17.0928  17.1185  17.1918  17.2848  17.3292
    17.3510  17.3511  17.4882  17.4882  17.5516  17.6966  17.6966  18.2087
    18.5693  18.5693  18.6096  18.7391  18.8104  18.8105  18.9818  18.9945
    19.2042  19.2042  19.2100  19.2101  19.2380  19.3372  19.3789  19.3789
    19.4111  19.6603  19.6631  19.6636  19.6670  19.7352

          k = 0.1634 0.2723 0.3813 ( 13296 PWs)   bands (ev):

   -53.5068 -53.4719 -53.4441 -53.4253 -53.4209 -53.4081 -53.3978 -53.3896
   -53.3720 -53.3713 -53.3694 -53.3657 -53.3580 -53.3481 -53.3279 -53.3014
   -25.1028 -25.0873 -25.0796 -25.0568 -25.0361 -25.0326 -25.0266 -25.0220
   -25.0040 -24.9938 -24.9898 -24.9887 -24.9430 -24.9028 -24.8721 -24.8352
   -24.8337 -24.7823 -24.7689 -24.7648 -24.7616 -24.7534 -24.7465 -24.7449
   -24.6893 -24.6656 -24.6499 -24.6314 -24.6289 -24.6157 -24.6062 -24.5923
   -24.5674 -24.5503 -24.5433 -24.5298 -24.5199 -24.5101 -24.4914 -24.4793
   -24.4695 -24.4667 -24.4567 -24.4462 -24.4454 -24.4438 -24.4195 -24.4149
    11.9044  12.8484  13.5898  13.9787  14.2241  14.4239  14.7490  14.9197
    14.9429  14.9437  15.0199  15.0253  15.2017  15.2245  15.2324  15.4720
    15.4799  15.4810  15.9685  16.0167  16.0685  16.1026  16.1517  16.1903
    16.2779  16.3795  16.3932  16.4543  16.5117  16.6645  16.7199  16.7320
    16.8410  16.9148  16.9864  17.0041  17.0140  17.0925  17.1038  17.1132
    17.1167  17.1315  17.1600  17.2255  17.2541  17.3776  17.9271  18.4346
    18.5995  18.7420  18.8062  18.8225  18.8245  18.8639  18.8799  18.9427
    19.0833  19.0958  19.1189  19.2391  19.2405  19.3343  19.4355  19.4881
    19.5278  19.5761  19.5919  19.6769  19.7326  19.7330

          k = 0.1634 0.2723-0.4902 ( 13288 PWs)   bands (ev):

   -53.4909 -53.4906 -53.4355 -53.4352 -53.4150 -53.4147 -53.3940 -53.3937
   -53.3716 -53.3713 -53.3673 -53.3670 -53.3526 -53.3523 -53.3135 -53.3131
   -25.0725 -25.0725 -25.0575 -25.0574 -25.0397 -25.0396 -25.0394 -25.0392
   -25.0001 -25.0000 -24.9883 -24.9882 -24.9324 -24.9324 -24.8716 -24.8712
   -24.7996 -24.7994 -24.7669 -24.7666 -24.7588 -24.7586 -24.7297 -24.7296
   -24.6916 -24.6915 -24.6598 -24.6595 -24.6216 -24.6214 -24.5786 -24.5783
   -24.5662 -24.5662 -24.5150 -24.5149 -24.5069 -24.5066 -24.4919 -24.4917
   -24.4855 -24.4851 -24.4542 -24.4542 -24.4296 -24.4295 -24.4259 -24.4259
    12.3426  12.3431  13.7974  13.7977  14.3531  14.3534  15.0781  15.0784
    15.1080  15.1084  15.1085  15.1089  15.1097  15.1099  15.2365  15.2368
    15.2829  15.2832  16.0483  16.0486  16.1228  16.1230  16.2861  16.2864
    16.3004  16.3008  16.4076  16.4078  16.5398  16.5399  16.7611  16.7613
    16.9155  16.9155  16.9387  16.9389  16.9457  16.9458  17.0244  17.0244
    17.0565  17.0566  17.0797  17.0797  17.1625  17.1627  18.2339  18.2339
    18.6796  18.6796  18.8211  18.8211  18.9398  18.9400  18.9805  18.9806
    19.0468  19.0470  19.0562  19.0564  19.4068  19.4070  19.4619  19.4623
    19.5107  19.5111  19.6123  19.6126  19.7110  19.7112

          k = 0.1634 0.3813 0.3813 ( 13293 PWs)   bands (ev):

   -53.4951 -53.4631 -53.4631 -53.4392 -53.4163 -53.4044 -53.4044 -53.3947
   -53.3701 -53.3693 -53.3693 -53.3663 -53.3480 -53.3329 -53.3329 -53.3094
   -25.0887 -25.0619 -25.0619 -25.0356 -25.0356 -25.0322 -25.0285 -25.0285
   -25.0233 -25.0084 -25.0067 -24.9679 -24.9351 -24.8850 -24.8361 -24.8222
   -24.8222 -24.8128 -24.8127 -24.7834 -24.7803 -24.7803 -24.7761 -24.7282
   -24.6888 -24.6553 -24.6463 -24.6463 -24.6390 -24.6390 -24.6237 -24.5681
   -24.5656 -24.5313 -24.5312 -24.5244 -24.5202 -24.4976 -24.4881 -24.4880
   -24.4747 -24.4671 -24.4670 -24.4647 -24.4281 -24.4280 -24.4154 -24.4126
    12.2333  13.1063  13.1064  13.7049  14.4289  14.7156  14.7157  15.0471
    15.0561  15.1792  15.1792  15.2217  15.2217  15.2303  15.3392  15.3619
    15.4958  15.7227  15.7227  15.9929  16.0810  16.1332  16.1973  16.1973
    16.2243  16.2244  16.3782  16.3853  16.3937  16.4650  16.6800  16.7768
    16.7768  16.7846  16.8382  16.8382  16.9066  16.9067  16.9544  16.9705
    16.9992  17.0321  17.0321  17.1077  17.1505  17.5795  17.5795  18.2098
    18.6976  18.8440  18.9461  18.9461  18.9750  18.9791  18.9791  19.0116
    19.1565  19.2354  19.2426  19.2426  19.2681  19.2681  19.3120  19.3120
    19.4667  19.5005  19.5032  19.5083  19.5977  19.6894

          k = 0.1634 0.3813-0.4902 ( 13318 PWs)   bands (ev):

   -53.4805 -53.4802 -53.4521 -53.4518 -53.4108 -53.4105 -53.3999 -53.3996
   -53.3696 -53.3693 -53.3677 -53.3673 -53.3398 -53.3394 -53.3201 -53.3197
   -25.0654 -25.0653 -25.0447 -25.0445 -25.0330 -25.0327 -25.0254 -25.0253
   -25.0253 -25.0251 -24.9976 -24.9975 -24.8748 -24.8748 -24.8572 -24.8569
   -24.8139 -24.8137 -24.8023 -24.8020 -24.7890 -24.7889 -24.7506 -24.7506
   -24.6871 -24.6870 -24.6479 -24.6478 -24.6311 -24.6309 -24.6048 -24.6048
   -24.5477 -24.5474 -24.5017 -24.5016 -24.5003 -24.5000 -24.4946 -24.4943
   -24.4901 -24.4899 -24.4651 -24.4650 -24.4183 -24.4182 -24.4168 -24.4168
    12.6426  12.6431  13.4036  13.4040  14.6101  14.6104  15.0473  15.0477
    15.1532  15.1536  15.1594  15.1597  15.3260  15.3261  15.4006  15.4008
    15.4720  15.4724  16.0397  16.0401  16.1031  16.1034  16.1178  16.1178
    16.1266  16.1267  16.2886  16.2888  16.5673  16.5674  16.5994  16.5994
    16.7204  16.7205  16.7755  16.7756  16.8471  16.8471  16.8606  16.8606
    17.0272  17.0272  17.0833  17.0835  17.2658  17.2659  17.8607  17.8607
    18.8819  18.8819  18.9711  18.9712  19.0866  19.0868  19.1289  19.1291
    19.1374  19.1375  19.1490  19.1492  19.2241  19.2243  19.3847  19.3850
    19.4079  19.4082  19.5480  19.5483  19.5774  19.5775

          k = 0.1634-0.4902-0.4902 ( 13336 PWs)   bands (ev):

   -53.4674 -53.4673 -53.4671 -53.4670 -53.4057 -53.4056 -53.4054 -53.4053
   -53.3684 -53.3684 -53.3681 -53.3680 -53.3289 -53.3288 -53.3286 -53.3285
   -25.0487 -25.0487 -25.0487 -25.0486 -25.0348 -25.0348 -25.0346 -25.0345
   -25.0105 -25.0105 -25.0103 -25.0103 -24.8332 -24.8331 -24.8329 -24.8328
   -24.8130 -24.8130 -24.8130 -24.8129 -24.8098 -24.8098 -24.8098 -24.8097
   -24.6454 -24.6454 -24.6453 -24.6453 -24.6396 -24.6395 -24.6395 -24.6395
   -24.5213 -24.5212 -24.5209 -24.5208 -24.4933 -24.4933 -24.4931 -24.4931
   -24.4794 -24.4794 -24.4792 -24.4792 -24.4140 -24.4140 -24.4140 -24.4139
    13.0067  13.0068  13.0072  13.0072  14.8693  14.8694  14.8697  14.8697
    15.1781  15.1782  15.1784  15.1785  15.4566  15.4566  15.4568  15.4568
    15.7508  15.7510  15.7512  15.7514  16.0405  16.0406  16.0407  16.0408
    16.1973  16.1973  16.1974  16.1975  16.5693  16.5694  16.5695  16.5695
    16.7023  16.7023  16.7023  16.7023  16.7742  16.7743  16.7743  16.7743
    17.0341  17.0341  17.0342  17.0342  17.5308  17.5308  17.5308  17.5308
    19.0268  19.0268  19.0269  19.0269  19.1541  19.1542  19.1543  19.1544
    19.2772  19.2773  19.2774  19.2775  19.2786  19.2787  19.2789  19.2789
    19.2946  19.2946  19.2947  19.2947  19.5299  19.5302

          k = 0.2723 0.2723 0.2723 ( 13283 PWs)   bands (ev):

   -53.5112 -53.4464 -53.4464 -53.4464 -53.4115 -53.4115 -53.4115 -53.3909
   -53.3690 -53.3650 -53.3650 -53.3649 -53.3468 -53.3468 -53.3468 -53.2980
   -25.1013 -25.1012 -25.1012 -25.0361 -25.0361 -25.0361 -25.0130 -25.0105
   -25.0105 -25.0105 -24.9548 -24.9548 -24.9196 -24.9196 -24.8496 -24.8496
   -24.8496 -24.8088 -24.8088 -24.8088 -24.7683 -24.7564 -24.7564 -24.7564
   -24.6208 -24.6147 -24.6147 -24.6147 -24.6119 -24.6119 -24.6118 -24.6100
   -24.6100 -24.5630 -24.5630 -24.5630 -24.5147 -24.4915 -24.4915 -24.4915
   -24.4592 -24.4592 -24.4592 -24.4376 -24.4376 -24.4376 -24.4277 -24.4277
    11.7921  13.5589  13.5590  13.5590  14.3435  14.3435  14.3435  14.9346
    14.9346  14.9348  14.9348  14.9348  15.3783  15.3783  15.3783  15.5633
    15.7403  15.7403  15.7403  15.8493  16.0143  16.0143  16.2174  16.2174
    16.2175  16.3995  16.3995  16.4262  16.4262  16.4262  16.7709  16.7709
    16.7709  16.9552  16.9553  16.9553  17.0286  17.0286  17.0286  17.1407
    17.1407  17.2252  17.2253  17.2253  17.4078  17.4078  17.4078  18.4324
    18.5845  18.7220  18.7220  18.7220  18.9510  18.9510  18.9511  19.1257
    19.1257  19.1257  19.3222  19.3222  19.3697  19.3697  19.3697  19.4932
    19.4933  19.4933  19.6687  19.6687  19.6688  19.6718

          k = 0.2723 0.2723 0.3813 ( 13280 PWs)   bands (ev):

   -53.4991 -53.4660 -53.4397 -53.4397 -53.4218 -53.4218 -53.4074 -53.3967
   -53.3671 -53.3652 -53.3587 -53.3586 -53.3496 -53.3496 -53.3309 -53.3063
   -25.0821 -25.0821 -25.0684 -25.0312 -25.0312 -25.0303 -25.0185 -25.0098
   -24.9926 -24.9926 -24.9801 -24.9759 -24.9281 -24.8951 -24.8951 -24.8820
   -24.8539 -24.8128 -24.8128 -24.7969 -24.7923 -24.7829 -24.7829 -24.7290
   -24.6744 -24.6502 -24.6200 -24.6192 -24.5950 -24.5950 -24.5761 -24.5760
   -24.5697 -24.5696 -24.5556 -24.5204 -24.5154 -24.5153 -24.5005 -24.4890
   -24.4683 -24.4518 -24.4499 -24.4499 -24.4415 -24.4383 -24.4382 -24.4254
    12.1315  13.0438  13.7786  13.7787  14.2009  14.2010  14.6597  15.0837
    15.1034  15.1034  15.1134  15.1741  15.3904  15.3904  15.3973  15.4682
    15.4962  15.5525  15.8923  15.8924  16.0429  16.1560  16.2235  16.2269
    16.2774  16.3208  16.3208  16.4957  16.4957  16.5672  16.6159  16.6160
    16.7586  16.7586  16.8389  16.8389  16.8682  16.8871  16.8987  16.9173
    16.9743  16.9744  17.0187  17.0705  17.1307  17.1307  17.5660  18.1849
    18.6860  18.8755  18.9179  18.9179  19.0121  19.0122  19.0644  19.0644
    19.1955  19.2301  19.2399  19.2794  19.2794  19.2925  19.4298  19.4358
    19.5908  19.5924  19.6724  19.6724  19.6743  19.6769

          k = 0.2723 0.2723-0.4902 ( 13292 PWs)   bands (ev):

   -53.4840 -53.4837 -53.4315 -53.4315 -53.4312 -53.4312 -53.4025 -53.4022
   -53.3661 -53.3657 -53.3537 -53.3537 -53.3534 -53.3534 -53.3175 -53.3172
   -25.0571 -25.0570 -25.0570 -25.0570 -25.0263 -25.0259 -25.0243 -25.0240
   -24.9991 -24.9990 -24.9444 -24.9444 -24.9443 -24.9442 -24.8943 -24.8939
   -24.8402 -24.8400 -24.8031 -24.8031 -24.8029 -24.8029 -24.7328 -24.7328
   -24.6893 -24.6892 -24.6223 -24.6221 -24.5803 -24.5803 -24.5801 -24.5801
   -24.5435 -24.5435 -24.5434 -24.5433 -24.5084 -24.5080 -24.4918 -24.4916
   -24.4832 -24.4828 -24.4427 -24.4426 -24.4426 -24.4426 -24.4303 -24.4303
    12.5569  12.5573  14.0064  14.0065  14.0068  14.0068  15.0459  15.0463
    15.2676  15.2676  15.2678  15.2678  15.2735  15.2738  15.2880  15.2883
    15.4148  15.4151  16.0936  16.0939  16.1800  16.1801  16.2033  16.2033
    16.2037  16.2037  16.4602  16.4602  16.4604  16.4604  16.5268  16.5269
    16.7394  16.7397  16.8345  16.8345  16.8346  16.8346  16.8888  16.8888
    16.8888  16.8889  16.9400  16.9401  16.9854  16.9857  17.8327  17.8328
    18.9586  18.9586  19.0332  19.0332  19.0332  19.0332  19.0411  19.0413
    19.1153  19.1153  19.1155  19.1155  19.4538  19.4541  19.5075  19.5079
    19.5575  19.5577  19.5685  19.5688  19.6775  19.6778

          k = 0.2723 0.3813 0.3813 ( 13301 PWs)   bands (ev):

   -53.4880 -53.4576 -53.4576 -53.4350 -53.4334 -53.4168 -53.4168 -53.4039
   -53.3638 -53.3597 -53.3597 -53.3520 -53.3493 -53.3355 -53.3355 -53.3137
   -25.0671 -25.0522 -25.0522 -25.0299 -25.0248 -25.0248 -25.0117 -24.9974
   -24.9974 -24.9892 -24.9815 -24.9452 -24.9260 -24.9242 -24.8941 -24.8573
   -24.8573 -24.8409 -24.8409 -24.8349 -24.8248 -24.8248 -24.8167 -24.7267
   -24.6885 -24.6117 -24.6116 -24.5990 -24.5974 -24.5973 -24.5742 -24.5663
   -24.5471 -24.5434 -24.5364 -24.5281 -24.5281 -24.5034 -24.5033 -24.4957
   -24.4656 -24.4656 -24.4644 -24.4551 -24.4382 -24.4382 -24.4353 -24.4301
    12.4565  13.3116  13.3117  13.9286  14.0280  14.5132  14.5132  15.2059
    15.2451  15.2489  15.3044  15.3460  15.3460  15.4158  15.4159  15.5851
    15.6348  15.7151  15.7151  15.8421  16.1155  16.1875  16.1925  16.2476
    16.2477  16.2957  16.2957  16.3685  16.4058  16.4893  16.4958  16.6685
    16.6685  16.6703  16.6703  16.6800  16.6997  16.6997  16.7240  16.8294
    16.8295  16.8460  16.8903  16.8996  16.9697  17.2276  17.2276  17.7900
    18.9708  19.0375  19.0375  19.0591  19.0837  19.1637  19.2318  19.2319
    19.2376  19.2638  19.2638  19.2838  19.3517  19.3518  19.4195  19.5353
    19.5554  19.5555  19.5628  19.5966  19.6578  19.6687

          k = 0.2723 0.3813-0.4902 ( 13278 PWs)   bands (ev):

   -53.4741 -53.4738 -53.4473 -53.4469 -53.4258 -53.4255 -53.4109 -53.4106
   -53.3616 -53.3612 -53.3555 -53.3552 -53.3418 -53.3414 -53.3236 -53.3233
   -25.0462 -25.0461 -25.0373 -25.0371 -25.0160 -25.0157 -25.0093 -25.0092
   -25.0041 -25.0039 -24.9615 -24.9614 -24.8959 -24.8955 -24.8934 -24.8933
   -24.8654 -24.8653 -24.8431 -24.8429 -24.8393 -24.8391 -24.7836 -24.7836
   -24.6493 -24.6492 -24.5977 -24.5975 -24.5826 -24.5824 -24.5757 -24.5756
   -24.5437 -24.5434 -24.5227 -24.5226 -24.5001 -24.4998 -24.4965 -24.4964
   -24.4924 -24.4921 -24.4610 -24.4609 -24.4356 -24.4356 -24.4320 -24.4320
    12.8590  12.8595  13.6199  13.6203  14.2916  14.2920  14.8838  14.8842
    15.3286  15.3289  15.3523  15.3526  15.5166  15.5168  15.5193  15.5196
    15.5763  15.5765  16.0340  16.0344  16.0615  16.0619  16.1519  16.1519
    16.1749  16.1751  16.3650  16.3652  16.3888  16.3889  16.5328  16.5329
    16.5723  16.5725  16.6025  16.6027  16.7181  16.7181  16.7796  16.7796
    16.7985  16.7986  16.8866  16.8867  16.9400  16.9400  17.4554  17.4554
    19.1534  19.1534  19.1568  19.1571  19.1918  19.1920  19.2144  19.2146
    19.2354  19.2355  19.2756  19.2756  19.4405  19.4407  19.4428  19.4431
    19.5044  19.5045  19.5186  19.5190  19.5975  19.5978

          k = 0.2723-0.4902-0.4902 ( 13284 PWs)   bands (ev):

   -53.4617 -53.4617 -53.4614 -53.4613 -53.4188 -53.4188 -53.4185 -53.4185
   -53.3581 -53.3580 -53.3578 -53.3577 -53.3317 -53.3317 -53.3314 -53.3313
   -25.0282 -25.0282 -25.0282 -25.0281 -25.0200 -25.0200 -25.0198 -25.0197
   -24.9822 -24.9822 -24.9821 -24.9820 -24.8759 -24.8759 -24.8757 -24.8756
   -24.8646 -24.8645 -24.8645 -24.8644 -24.8387 -24.8386 -24.8386 -24.8385
   -24.6111 -24.6111 -24.6110 -24.6110 -24.5865 -24.5865 -24.5865 -24.5864
   -24.5136 -24.5136 -24.5133 -24.5132 -24.5068 -24.5067 -24.5066 -24.5066
   -24.4820 -24.4820 -24.4819 -24.4818 -24.4327 -24.4327 -24.4327 -24.4326
    13.2246  13.2247  13.2250  13.2251  14.6086  14.6086  14.6090  14.6090
    15.3635  15.3635  15.3638  15.3638  15.6904  15.6904  15.6906  15.6906
    15.7862  15.7863  15.7866  15.7867  15.9935  15.9936  15.9938  15.9939
    16.2712  16.2713  16.2713  16.2714  16.4255  16.4256  16.4257  16.4257
    16.5956  16.5957  16.5958  16.5958  16.6365  16.6365  16.6366  16.6366
    16.8215  16.8216  16.8217  16.8217  17.1421  17.1421  17.1421  17.1421
    19.2266  19.2267  19.2268  19.2269  19.3290  19.3290  19.3291  19.3291
    19.3320  19.3322  19.3324  19.3325  19.3787  19.3787  19.3789  19.3789
    19.5120  19.5122  19.5124  19.5125  19.6069  19.6069

          k = 0.3813 0.3813 0.3813 ( 13271 PWs)   bands (ev):

   -53.4777 -53.4498 -53.4498 -53.4498 -53.4289 -53.4289 -53.4289 -53.4129
   -53.3587 -53.3515 -53.3515 -53.3515 -53.3394 -53.3394 -53.3394 -53.3201
   -25.0357 -25.0356 -25.0356 -25.0162 -25.0161 -25.0161 -24.9956 -24.9611
   -24.9611 -24.9598 -24.9598 -24.9597 -24.9477 -24.9477 -24.8825 -24.8825
   -24.8825 -24.8777 -24.8777 -24.8776 -24.8620 -24.8620 -24.8620 -24.7739
   -24.6492 -24.5779 -24.5779 -24.5778 -24.5628 -24.5628 -24.5628 -24.5476
   -24.5476 -24.5288 -24.5287 -24.5287 -24.5233 -24.5233 -24.5232 -24.4991
   -24.4645 -24.4644 -24.4644 -24.4556 -24.4556 -24.4505 -24.4505 -24.4505
    12.7741  13.5945  13.5946  13.5946  14.2429  14.2430  14.2430  14.9884
    15.4101  15.4101  15.5028  15.5028  15.5028  15.6861  15.6861  15.6861
    15.6881  15.6881  15.6882  15.7994  16.1737  16.1737  16.2456  16.2456
    16.3297  16.3297  16.3297  16.3400  16.3400  16.3401  16.4342  16.4343
    16.4343  16.5677  16.5677  16.5677  16.5979  16.5979  16.5980  16.6437
    16.6437  16.6437  16.8041  16.8041  16.8944  16.8944  16.8944  17.3932
    19.1598  19.1598  19.1598  19.2839  19.3237  19.3237  19.3237  19.3496
    19.3496  19.3610  19.3610  19.3611  19.3871  19.3871  19.3872  19.5604
    19.5604  19.5912  19.5913  19.5915  19.6095  19.6096

          k = 0.3813 0.3813-0.4902 ( 13286 PWs)   bands (ev):

   -53.4650 -53.4647 -53.4403 -53.4403 -53.4399 -53.4399 -53.4216 -53.4213
   -53.3547 -53.3544 -53.3449 -53.3449 -53.3445 -53.3445 -53.3289 -53.3286
   -25.0200 -25.0200 -25.0199 -25.0199 -24.9956 -24.9953 -24.9926 -24.9925
   -24.9773 -24.9772 -24.9254 -24.9250 -24.9187 -24.9187 -24.9185 -24.9185
   -24.9070 -24.9069 -24.8847 -24.8847 -24.8846 -24.8845 -24.8258 -24.8257
   -24.6122 -24.6121 -24.5566 -24.5564 -24.5482 -24.5482 -24.5481 -24.5480
   -24.5392 -24.5392 -24.5391 -24.5391 -24.5084 -24.5082 -24.5024 -24.5021
   -24.4891 -24.4888 -24.4602 -24.4602 -24.4602 -24.4602 -24.4509 -24.4508
    13.1637  13.1641  13.9208  13.9208  13.9212  13.9212  14.6163  14.6167
    15.5407  15.5410  15.6032  15.6035  15.6204  15.6204  15.6207  15.6207
    15.7729  15.7732  16.0096  16.0096  16.0100  16.0100  16.1951  16.1952
    16.2483  16.2485  16.2983  16.2986  16.3257  16.3258  16.4487  16.4488
    16.4489  16.4490  16.5649  16.5649  16.5650  16.5651  16.6196  16.6196
    16.6197  16.6197  16.6882  16.6884  16.7041  16.7043  17.0697  17.0697
    19.2605  19.2607  19.2847  19.2847  19.2850  19.2850  19.3949  19.3949
    19.3950  19.3950  19.4570  19.4574  19.4793  19.4797  19.5278  19.5280
    19.5793  19.5796  19.5822  19.5823  19.5826  19.5826

          k = 0.3813-0.4902-0.4902 ( 13320 PWs)   bands (ev):

   -53.4535 -53.4535 -53.4532 -53.4532 -53.4316 -53.4315 -53.4313 -53.4312
   -53.3492 -53.3492 -53.3489 -53.3488 -53.3360 -53.3360 -53.3357 -53.3356
   -24.9986 -24.9986 -24.9985 -24.9985 -24.9947 -24.9946 -24.9944 -24.9944
   -24.9478 -24.9478 -24.9476 -24.9476 -24.9199 -24.9198 -24.9196 -24.9196
   -24.9152 -24.9152 -24.9152 -24.9151 -24.8722 -24.8722 -24.8721 -24.8721
   -24.5783 -24.5783 -24.5782 -24.5782 -24.5383 -24.5383 -24.5382 -24.5382
   -24.5254 -24.5254 -24.5253 -24.5253 -24.5048 -24.5048 -24.5045 -24.5045
   -24.4880 -24.4880 -24.4878 -24.4878 -24.4602 -24.4601 -24.4601 -24.4601
    13.5301  13.5302  13.5305  13.5306  14.2717  14.2718  14.2722  14.2722
    15.6164  15.6165  15.6167  15.6168  15.8337  15.8338  15.8341  15.8342
    15.9276  15.9277  15.9279  15.9279  15.9423  15.9424  15.9426  15.9427
    16.3582  16.3582  16.3583  16.3583  16.3672  16.3672  16.3672  16.3673
    16.3827  16.3827  16.3829  16.3829  16.5500  16.5500  16.5500  16.5500
    16.6123  16.6123  16.6124  16.6124  16.7561  16.7561  16.7562  16.7562
    19.3248  19.3248  19.3250  19.3251  19.3893  19.3894  19.3896  19.3897
    19.4828  19.4830  19.4832  19.4833  19.5467  19.5467  19.5469  19.5469
    19.5640  19.5640  19.5643  19.5644  19.5879  19.5880

          k =-0.4902-0.4902-0.4902 ( 13264 PWs)   bands (ev):

   -53.4434 -53.4433 -53.4433 -53.4433 -53.4430 -53.4430 -53.4430 -53.4429
   -53.3419 -53.3418 -53.3418 -53.3418 -53.3415 -53.3415 -53.3415 -53.3414
   -24.9607 -24.9607 -24.9607 -24.9606 -24.9606 -24.9605 -24.9605 -24.9604
   -24.9604 -24.9603 -24.9603 -24.9603 -24.9602 -24.9602 -24.9602 -24.9602
   -24.9099 -24.9099 -24.9099 -24.9098 -24.9097 -24.9097 -24.9096 -24.9095
   -24.5494 -24.5494 -24.5494 -24.5493 -24.5492 -24.5492 -24.5492 -24.5491
   -24.4957 -24.4957 -24.4957 -24.4956 -24.4956 -24.4956 -24.4955 -24.4954
   -24.4954 -24.4953 -24.4953 -24.4953 -24.4953 -24.4953 -24.4952 -24.4952
    13.8939  13.8941  13.8941  13.8941  13.8944  13.8945  13.8946  13.8946
    15.8876  15.8876  15.8877  15.8877  15.8877  15.8877  15.8878  15.8878
    15.8879  15.8879  15.8881  15.8881  15.8881  15.8881  15.8881  15.8882
    16.4223  16.4223  16.4223  16.4223  16.4224  16.4224  16.4224  16.4224
    16.4536  16.4536  16.4537  16.4537  16.4537  16.4537  16.4537  16.4537
    16.4539  16.4539  16.4539  16.4539  16.4539  16.4540  16.4540  16.4540
    19.4413  19.4413  19.4413  19.4413  19.4414  19.4414  19.4415  19.4415
    19.4415  19.4416  19.4417  19.4417  19.4417  19.4417  19.4418  19.4418
    19.7783  19.7783  19.7784  19.7784  19.7785  19.7785

 ------ SPIN DOWN ----------


          k = 0.0545 0.0545 0.0545 ( 13283 PWs)   bands (ev):

   -53.5520 -53.4113 -53.4113 -53.4113 -53.3875 -53.3875 -53.3874 -53.3865
   -53.3863 -53.3863 -53.3839 -53.3839 -53.3839 -53.3744 -53.3718 -53.2692
   -25.1759 -25.1759 -25.1759 -25.1720 -25.1720 -25.1720 -24.9413 -24.9413
   -24.9326 -24.8510 -24.8470 -24.8470 -24.8470 -24.8179 -24.8179 -24.8010
   -24.8010 -24.8009 -24.7505 -24.7505 -24.7172 -24.6869 -24.6869 -24.6869
   -24.6724 -24.6724 -24.6723 -24.6526 -24.6526 -24.6525 -24.6476 -24.6476
   -24.6476 -24.6397 -24.6397 -24.6397 -24.6262 -24.6261 -24.6261 -24.4112
   -24.4111 -24.4111 -24.4110 -24.4066 -24.4066 -24.4066 -24.4020 -24.4020
    10.6841  14.1622  14.1622  14.1622  14.1852  14.1852  14.1852  14.2379
    14.2380  14.2380  14.3607  14.3607  14.6878  14.6879  14.6879  15.9808
    16.0700  16.0700  16.0701  16.0757  16.0757  16.0846  16.0847  16.0847
    16.2257  16.2257  16.2754  16.4629  16.4629  16.4629  16.8865  16.8865
    16.8866  17.4937  17.4937  17.5448  17.8131  17.8132  17.8132  17.9236
    17.9236  17.9237  18.0155  18.0156  18.0156  18.1174  18.1174  18.1175
    18.9441  18.9441  18.9442  18.9588  18.9588  18.9590  19.1641  19.1643
    19.1643  19.2149  19.2150  19.2150  19.3988  19.3988  19.3988  19.4262
    19.4262  19.4460  19.4460  19.4460  19.7422  19.7427

          k = 0.0545 0.0545 0.1634 ( 13306 PWs)   bands (ev):

   -53.5470 -53.4364 -53.4101 -53.4101 -53.3900 -53.3900 -53.3867 -53.3860
   -53.3859 -53.3832 -53.3830 -53.3830 -53.3752 -53.3725 -53.3627 -53.2727
   -25.1650 -25.1649 -25.1638 -25.1603 -25.1534 -25.1534 -24.9460 -24.9325
   -24.9190 -24.9007 -24.8874 -24.8874 -24.8848 -24.8841 -24.8431 -24.8431
   -24.7963 -24.7591 -24.7475 -24.7339 -24.7184 -24.6867 -24.6867 -24.6847
   -24.6665 -24.6612 -24.6574 -24.6573 -24.6557 -24.6446 -24.6446 -24.6403
   -24.6403 -24.6360 -24.6359 -24.5938 -24.5912 -24.5912 -24.5813 -24.4318
   -24.4233 -24.4233 -24.4216 -24.4179 -24.4109 -24.4109 -24.4097 -24.4054
    10.8136  13.6758  14.1824  14.1824  14.2528  14.2528  14.2656  14.2840
    14.2840  14.2873  14.4267  14.4306  14.7235  14.7236  14.9731  15.8645
    15.9797  15.9933  16.0478  16.0507  16.0639  16.1124  16.1233  16.1233
    16.1670  16.1670  16.4206  16.4207  16.4220  16.4339  16.7879  16.7879
    17.2778  17.4645  17.4867  17.5843  17.5844  17.6113  17.6574  17.7742
    17.7742  17.8188  18.1105  18.1105  18.2347  18.2347  18.2652  18.3733
    18.4421  18.4422  18.6811  18.6841  18.6842  18.7002  18.8044  19.1932
    19.1932  19.3234  19.3235  19.3406  19.4105  19.4105  19.4214  19.4472
    19.4575  19.4575  19.4605  19.4856  19.7456  19.7714

          k = 0.0545 0.0545 0.2723 ( 13311 PWs)   bands (ev):

   -53.5372 -53.4610 -53.4079 -53.4079 -53.3934 -53.3934 -53.3854 -53.3852
   -53.3851 -53.3826 -53.3825 -53.3819 -53.3767 -53.3739 -53.3407 -53.2798
   -25.1401 -25.1401 -25.1400 -25.1373 -25.1212 -25.1212 -24.9564 -24.9489
   -24.9480 -24.9429 -24.9429 -24.9154 -24.9116 -24.9017 -24.9017 -24.8997
   -24.7791 -24.7747 -24.7631 -24.7509 -24.6884 -24.6839 -24.6838 -24.6777
   -24.6709 -24.6630 -24.6629 -24.6424 -24.6424 -24.6402 -24.6402 -24.6223
   -24.6114 -24.5900 -24.5900 -24.5505 -24.5479 -24.5478 -24.5389 -24.4660
   -24.4432 -24.4432 -24.4423 -24.4403 -24.4248 -24.4232 -24.4232 -24.4182
    11.0682  13.0654  14.2371  14.2371  14.3479  14.3480  14.3601  14.3601
    14.4642  14.4833  14.5574  14.5603  14.7550  14.7550  15.0801  15.6587
    15.6959  15.7481  15.9313  15.9854  16.0166  16.0276  16.2422  16.2423
    16.3144  16.3145  16.4210  16.4210  16.6798  16.7021  16.7221  16.7222
    17.2743  17.2744  17.4437  17.4452  17.4452  17.4763  17.4810  17.5467
    17.7096  17.8804  17.8805  17.9403  18.0737  18.0738  18.2876  18.3215
    18.3901  18.3901  18.4293  18.4293  18.4332  18.5633  18.6827  19.1730
    19.2053  19.2053  19.3168  19.3169  19.4643  19.4814  19.5249  19.5249
    19.5264  19.7221  19.7242  19.7477  19.7520  19.7808

          k = 0.0545 0.0545 0.3813 ( 13312 PWs)   bands (ev):

   -53.5231 -53.4842 -53.4049 -53.4048 -53.3973 -53.3972 -53.3844 -53.3843
   -53.3832 -53.3827 -53.3826 -53.3800 -53.3787 -53.3757 -53.3211 -53.2904
   -25.1054 -25.1039 -25.1028 -25.1028 -25.0772 -25.0772 -25.0114 -25.0081
   -25.0009 -25.0009 -24.9637 -24.9637 -24.9469 -24.9305 -24.8905 -24.8739
   -24.8212 -24.8045 -24.7505 -24.7341 -24.6996 -24.6906 -24.6796 -24.6795
   -24.6687 -24.6687 -24.6411 -24.6410 -24.6400 -24.6399 -24.6272 -24.5650
   -24.5589 -24.5451 -24.5451 -24.5121 -24.5110 -24.5070 -24.5069 -24.5002
   -24.4729 -24.4728 -24.4705 -24.4705 -24.4473 -24.4435 -24.4435 -24.4389
    11.4388  12.4630  14.3085  14.3085  14.3855  14.3856  14.4938  14.4938
    14.7278  14.7278  14.7288  14.7419  14.7504  14.7562  15.0388  15.3071
    15.4128  15.4235  15.9218  15.9407  15.9763  15.9855  16.4217  16.4217
    16.5205  16.5206  16.5573  16.5573  16.7734  16.7735  16.9873  16.9873
    17.0079  17.0295  17.1158  17.1158  17.3479  17.3480  17.4343  17.4688
    17.4774  17.4853  17.5177  17.5178  17.8390  17.8399  17.8421  18.2073
    18.2772  18.6481  18.6482  18.6815  18.6815  18.9062  18.9307  19.0362
    19.0489  19.0489  19.1616  19.1616  19.5228  19.5341  19.6194  19.6597
    19.6634  19.6662  19.7604  19.7792  19.7853  19.7936

          k = 0.0545 0.0545-0.4902 ( 13294 PWs)   bands (ev):

   -53.5055 -53.5049 -53.4015 -53.4014 -53.4009 -53.4009 -53.3838 -53.3836
   -53.3831 -53.3831 -53.3813 -53.3807 -53.3783 -53.3774 -53.3045 -53.3039
   -25.0616 -25.0613 -25.0609 -25.0606 -25.0553 -25.0553 -25.0552 -25.0552
   -25.0235 -25.0234 -25.0234 -25.0234 -24.9420 -24.9414 -24.8592 -24.8585
   -24.8421 -24.8416 -24.7251 -24.7245 -24.7133 -24.7124 -24.6747 -24.6746
   -24.6740 -24.6740 -24.6407 -24.6407 -24.6401 -24.6400 -24.5673 -24.5668
   -24.5151 -24.5144 -24.5123 -24.5117 -24.5048 -24.5048 -24.5047 -24.5046
   -24.4765 -24.4758 -24.4717 -24.4717 -24.4716 -24.4715 -24.4668 -24.4663
    11.9105  11.9110  14.3685  14.3685  14.3688  14.3688  14.6291  14.6291
    14.6293  14.6293  14.9030  14.9035  15.0018  15.0024  15.0730  15.0736
    15.0790  15.0796  15.9404  15.9409  15.9505  15.9510  16.6493  16.6494
    16.6495  16.6495  16.7431  16.7432  16.7433  16.7434  16.9364  16.9365
    16.9368  16.9369  17.0915  17.0916  17.0918  17.0919  17.3971  17.3973
    17.4118  17.4119  17.4426  17.4429  17.4706  17.4712  18.0086  18.0091
    18.6253  18.6258  18.8602  18.8602  18.8602  18.8602  18.9460  18.9461
    18.9461  18.9461  19.2811  19.2815  19.4189  19.4194  19.5901  19.5907
    19.5969  19.5977  19.7342  19.7348  19.7696  19.7702

          k = 0.0545 0.1634 0.1634 ( 13302 PWs)   bands (ev):

   -53.5421 -53.4345 -53.4344 -53.4090 -53.3970 -53.3892 -53.3891 -53.3855
   -53.3824 -53.3823 -53.3776 -53.3762 -53.3730 -53.3630 -53.3630 -53.2762
   -25.1617 -25.1533 -25.1533 -25.1429 -25.1429 -25.1277 -24.9554 -24.9319
   -24.9274 -24.9223 -24.9223 -24.9129 -24.9047 -24.8981 -24.8711 -24.8103
   -24.7908 -24.7907 -24.7440 -24.7327 -24.7327 -24.6949 -24.6810 -24.6809
   -24.6704 -24.6673 -24.6673 -24.6583 -24.6526 -24.6526 -24.6463 -24.6332
   -24.6284 -24.6061 -24.5954 -24.5954 -24.5652 -24.5486 -24.5486 -24.4597
   -24.4431 -24.4315 -24.4315 -24.4213 -24.4213 -24.4162 -24.4063 -24.4024
    10.9413  13.7391  13.7392  14.1437  14.2869  14.2869  14.3378  14.3538
    14.3538  14.3596  14.4907  14.5008  14.7700  15.0099  15.0099  15.7581
    15.8777  16.0424  16.0424  16.0646  16.1009  16.1009  16.1398  16.1399
    16.1469  16.1893  16.2776  16.3618  16.4052  16.4456  16.6812  17.0963
    17.0963  17.3968  17.4416  17.4416  17.4681  17.4881  17.6394  17.7218
    18.0088  18.0089  18.0310  18.0805  18.0806  18.2006  18.2793  18.2794
    18.3093  18.4230  18.4231  18.4386  18.4387  18.5281  18.9306  18.9307
    19.1984  19.3263  19.3492  19.3492  19.3866  19.4154  19.4155  19.4245
    19.4355  19.6129  19.7116  19.7175  19.7176  19.7514

          k = 0.0545 0.1634 0.2723 ( 13297 PWs)   bands (ev):

   -53.5326 -53.4584 -53.4308 -53.4068 -53.4045 -53.3925 -53.3876 -53.3848
   -53.3819 -53.3811 -53.3780 -53.3742 -53.3730 -53.3637 -53.3418 -53.2830
   -25.1445 -25.1306 -25.1299 -25.1226 -25.1129 -25.0887 -24.9736 -24.9718
   -24.9645 -24.9549 -24.9535 -24.9470 -24.9167 -24.9110 -24.8722 -24.8512
   -24.7942 -24.7771 -24.7381 -24.7324 -24.7272 -24.7252 -24.6975 -24.6861
   -24.6837 -24.6745 -24.6673 -24.6507 -24.6495 -24.6339 -24.6231 -24.6079
   -24.5981 -24.5851 -24.5686 -24.5531 -24.5316 -24.5089 -24.5088 -24.5005
   -24.4699 -24.4480 -24.4478 -24.4418 -24.4312 -24.4307 -24.4104 -24.4073
    11.1922  13.1471  13.8466  14.1239  14.3421  14.4166  14.4602  14.4877
    14.5004  14.5470  14.6128  14.6353  14.8214  15.0301  15.1253  15.6342
    15.6792  15.7242  15.9964  16.0615  16.0908  16.0930  16.0969  16.2105
    16.2360  16.2726  16.3287  16.4521  16.5714  16.5871  16.6372  16.9610
    17.1605  17.2674  17.2764  17.3333  17.3526  17.3943  17.4460  17.5560
    17.6657  17.7745  17.8628  17.9113  17.9872  18.0380  18.0498  18.1979
    18.2880  18.4024  18.4268  18.4802  18.5062  18.6740  18.6769  19.0529
    19.1984  19.2345  19.2641  19.3219  19.3568  19.4000  19.4457  19.4851
    19.6459  19.7020  19.7053  19.7321  19.7767  19.7815

          k = 0.0545 0.1634 0.3813 ( 13301 PWs)   bands (ev):

   -53.5189 -53.4810 -53.4256 -53.4120 -53.4038 -53.3963 -53.3854 -53.3838
   -53.3821 -53.3803 -53.3794 -53.3757 -53.3695 -53.3649 -53.3228 -53.2931
   -25.1148 -25.0976 -25.0952 -25.0932 -25.0720 -25.0384 -25.0261 -25.0149
   -25.0066 -25.0035 -24.9698 -24.9695 -24.9624 -24.9162 -24.8866 -24.8417
   -24.8185 -24.7686 -24.7675 -24.7254 -24.7189 -24.7109 -24.6966 -24.6950
   -24.6862 -24.6820 -24.6707 -24.6506 -24.6499 -24.6146 -24.6021 -24.5863
   -24.5568 -24.5513 -24.5428 -24.5318 -24.5145 -24.5032 -24.4989 -24.4735
   -24.4729 -24.4725 -24.4719 -24.4701 -24.4525 -24.4476 -24.4230 -24.4215
    11.5568  12.5602  13.9631  14.1019  14.4124  14.4715  14.5927  14.6651
    14.7679  14.7817  14.8135  14.8137  14.8211  14.9699  15.0919  15.3472
    15.4195  15.4423  15.9592  16.0060  16.0150  16.0401  16.2902  16.3678
    16.3862  16.4120  16.4420  16.5763  16.6810  16.8261  16.8623  16.9249
    17.0180  17.0542  17.0811  17.1334  17.2808  17.2889  17.2977  17.3142
    17.3697  17.4149  17.4213  17.5442  17.6252  17.6295  18.0297  18.4344
    18.4471  18.6118  18.6187  18.6898  18.6964  18.7174  18.9007  18.9854
    18.9881  19.0818  19.1658  19.2141  19.3560  19.4703  19.4999  19.5801
    19.6064  19.6316  19.6399  19.7129  19.7730  19.7757

          k = 0.0545 0.1634-0.4902 ( 13286 PWs)   bands (ev):

   -53.5017 -53.5011 -53.4195 -53.4189 -53.4004 -53.3999 -53.3833 -53.3830
   -53.3827 -53.3824 -53.3779 -53.3772 -53.3671 -53.3665 -53.3068 -53.3062
   -25.0745 -25.0744 -25.0568 -25.0561 -25.0559 -25.0552 -25.0519 -25.0518
   -25.0230 -25.0229 -24.9799 -24.9799 -24.9696 -24.9693 -24.8558 -24.8551
   -24.8066 -24.8063 -24.7399 -24.7393 -24.7088 -24.7081 -24.7071 -24.7064
   -24.6896 -24.6891 -24.6504 -24.6499 -24.6093 -24.6090 -24.6079 -24.6072
   -24.5423 -24.5422 -24.5110 -24.5104 -24.5048 -24.5043 -24.4984 -24.4984
   -24.4809 -24.4803 -24.4704 -24.4703 -24.4443 -24.4441 -24.4440 -24.4439
    12.0197  12.0202  14.0527  14.0530  14.4670  14.4673  14.7247  14.7249
    14.8332  14.8334  14.9589  14.9594  15.0580  15.0585  15.0998  15.1003
    15.1216  15.1221  15.9748  15.9753  16.0009  16.0014  16.5308  16.5310
    16.5426  16.5429  16.5898  16.5899  16.6216  16.6221  16.9923  16.9924
    17.0132  17.0134  17.0724  17.0726  17.1845  17.1847  17.2205  17.2206
    17.2635  17.2636  17.2697  17.2699  17.3974  17.3978  18.2220  18.2222
    18.7256  18.7261  18.7529  18.7530  18.8970  18.8970  18.9522  18.9523
    18.9736  18.9738  18.9957  18.9957  19.3407  19.3412  19.5507  19.5513
    19.5677  19.5684  19.6989  19.6996  19.7710  19.7716

          k = 0.0545 0.2723 0.2723 ( 13313 PWs)   bands (ev):

   -53.5236 -53.4534 -53.4533 -53.4158 -53.4047 -53.3908 -53.3908 -53.3840
   -53.3809 -53.3808 -53.3800 -53.3749 -53.3646 -53.3439 -53.3439 -53.2893
   -25.1354 -25.1101 -25.1101 -25.0970 -25.0969 -25.0436 -24.9935 -24.9934
   -24.9933 -24.9821 -24.9782 -24.9757 -24.9448 -24.8957 -24.8394 -24.7955
   -24.7934 -24.7933 -24.7692 -24.7691 -24.7315 -24.7099 -24.7043 -24.6959
   -24.6959 -24.6782 -24.6781 -24.6660 -24.6659 -24.6591 -24.6057 -24.5750
   -24.5585 -24.5585 -24.5538 -24.5486 -24.5407 -24.5095 -24.5026 -24.4741
   -24.4740 -24.4577 -24.4577 -24.4471 -24.4471 -24.4444 -24.4059 -24.4029
    11.4352  13.2968  13.2969  14.0054  14.5259  14.5433  14.5433  14.6504
    14.6504  14.6572  14.7174  14.7790  14.9150  15.1531  15.1532  15.5672
    15.6372  15.7771  15.7771  16.0566  16.1354  16.1555  16.1555  16.2014
    16.2014  16.2326  16.2940  16.4483  16.5154  16.6154  16.6523  17.0508
    17.0509  17.1612  17.1630  17.1647  17.1647  17.2195  17.2608  17.4039
    17.5737  17.5737  17.6287  17.6288  17.7624  17.9328  17.9329  18.0534
    18.4986  18.4987  18.5658  18.6082  18.6427  18.6428  18.8958  19.0007
    19.0008  19.1922  19.2938  19.2938  19.3327  19.3518  19.3518  19.3672
    19.4558  19.6506  19.6544  19.6587  19.7729  19.7813

          k = 0.0545 0.2723 0.3813 ( 13279 PWs)   bands (ev):

[...]
    19.1373  19.1374  19.1485  19.1488  19.2244  19.2247  19.3844  19.3848
    19.4072  19.4077  19.5469  19.5476  19.5773  19.5776

          k = 0.1634-0.4902-0.4902 ( 13336 PWs)   bands (ev):

   -53.4675 -53.4670 -53.4669 -53.4665 -53.4058 -53.4053 -53.4052 -53.4048
   -53.3685 -53.3680 -53.3679 -53.3675 -53.3290 -53.3285 -53.3284 -53.3280
   -25.0487 -25.0486 -25.0486 -25.0485 -25.0349 -25.0347 -25.0346 -25.0342
   -25.0106 -25.0104 -25.0103 -25.0100 -24.8334 -24.8330 -24.8329 -24.8324
   -24.8130 -24.8130 -24.8129 -24.8128 -24.8098 -24.8097 -24.8097 -24.8096
   -24.6453 -24.6453 -24.6452 -24.6451 -24.6395 -24.6395 -24.6395 -24.6394
   -24.5216 -24.5210 -24.5209 -24.5204 -24.4933 -24.4932 -24.4931 -24.4929
   -24.4795 -24.4793 -24.4792 -24.4789 -24.4139 -24.4139 -24.4139 -24.4138
    13.0060  13.0062  13.0065  13.0066  14.8690  14.8691  14.8693  14.8694
    15.1771  15.1774  15.1776  15.1777  15.4565  15.4566  15.4567  15.4568
    15.7497  15.7500  15.7502  15.7505  16.0400  16.0402  16.0403  16.0405
    16.1972  16.1973  16.1974  16.1975  16.5694  16.5697  16.5697  16.5699
    16.7028  16.7028  16.7029  16.7029  16.7740  16.7741  16.7742  16.7742
    17.0341  17.0343  17.0343  17.0345  17.5312  17.5312  17.5313  17.5313
    19.0269  19.0272  19.0272  19.0273  19.1533  19.1536  19.1537  19.1540
    19.2769  19.2771  19.2772  19.2774  19.2779  19.2782  19.2783  19.2787
    19.2952  19.2952  19.2952  19.2953  19.5289  19.5295

          k = 0.2723 0.2723 0.2723 ( 13283 PWs)   bands (ev):

   -53.5110 -53.4462 -53.4462 -53.4462 -53.4113 -53.4113 -53.4113 -53.3907
   -53.3688 -53.3647 -53.3647 -53.3647 -53.3466 -53.3466 -53.3466 -53.2977
   -25.1012 -25.1012 -25.1012 -25.0361 -25.0361 -25.0360 -25.0129 -25.0105
   -25.0104 -25.0104 -24.9547 -24.9547 -24.9196 -24.9196 -24.8496 -24.8496
   -24.8495 -24.8087 -24.8087 -24.8087 -24.7682 -24.7563 -24.7563 -24.7563
   -24.6208 -24.6147 -24.6147 -24.6146 -24.6118 -24.6118 -24.6117 -24.6099
   -24.6099 -24.5629 -24.5629 -24.5629 -24.5146 -24.4915 -24.4915 -24.4914
   -24.4592 -24.4591 -24.4591 -24.4375 -24.4375 -24.4375 -24.4276 -24.4276
    11.7914  13.5582  13.5584  13.5584  14.3431  14.3432  14.3432  14.9335
    14.9335  14.9344  14.9344  14.9344  15.3775  15.3775  15.3775  15.5636
    15.7394  15.7394  15.7395  15.8490  16.0146  16.0146  16.2179  16.2179
    16.2180  16.3992  16.3992  16.4265  16.4266  16.4266  16.7709  16.7709
    16.7709  16.9557  16.9558  16.9558  17.0278  17.0278  17.0278  17.1412
    17.1412  17.2250  17.2251  17.2251  17.4081  17.4081  17.4082  18.4330
    18.5850  18.7215  18.7215  18.7216  18.9513  18.9513  18.9514  19.1255
    19.1255  19.1255  19.3213  19.3213  19.3692  19.3692  19.3692  19.4937
    19.4937  19.4937  19.6678  19.6678  19.6687  19.6710

          k = 0.2723 0.2723 0.3813 ( 13280 PWs)   bands (ev):

   -53.4989 -53.4658 -53.4395 -53.4394 -53.4216 -53.4215 -53.4071 -53.3964
   -53.3669 -53.3650 -53.3584 -53.3584 -53.3494 -53.3494 -53.3307 -53.3061
   -25.0820 -25.0820 -25.0683 -25.0312 -25.0311 -25.0302 -25.0184 -25.0098
   -24.9926 -24.9925 -24.9800 -24.9758 -24.9280 -24.8951 -24.8950 -24.8820
   -24.8538 -24.8127 -24.8127 -24.7969 -24.7922 -24.7829 -24.7829 -24.7289
   -24.6744 -24.6501 -24.6200 -24.6191 -24.5950 -24.5950 -24.5760 -24.5759
   -24.5696 -24.5696 -24.5555 -24.5203 -24.5153 -24.5152 -24.5004 -24.4890
   -24.4682 -24.4517 -24.4498 -24.4498 -24.4414 -24.4382 -24.4382 -24.4253
    12.1308  13.0431  13.7780  13.7781  14.2005  14.2005  14.6594  15.0827
    15.1030  15.1030  15.1124  15.1739  15.3897  15.3897  15.3964  15.4680
    15.4953  15.5528  15.8915  15.8916  16.0432  16.1564  16.2233  16.2270
    16.2776  16.3212  16.3213  16.4956  16.4956  16.5668  16.6161  16.6161
    16.7582  16.7582  16.8391  16.8392  16.8681  16.8873  16.8980  16.9178
    16.9742  16.9742  17.0192  17.0710  17.1310  17.1310  17.5664  18.1854
    18.6866  18.8749  18.9174  18.9174  19.0123  19.0124  19.0643  19.0643
    19.1946  19.2305  19.2404  19.2789  19.2789  19.2923  19.4293  19.4349
    19.5905  19.5917  19.6715  19.6716  19.6735  19.6761

          k = 0.2723 0.2723-0.4902 ( 13292 PWs)   bands (ev):

   -53.4839 -53.4833 -53.4314 -53.4313 -53.4308 -53.4308 -53.4024 -53.4018
   -53.3660 -53.3654 -53.3537 -53.3536 -53.3530 -53.3530 -53.3174 -53.3168
   -25.0570 -25.0570 -25.0569 -25.0569 -25.0263 -25.0257 -25.0243 -25.0239
   -24.9991 -24.9989 -24.9444 -24.9443 -24.9442 -24.9442 -24.8944 -24.8937
   -24.8402 -24.8398 -24.8031 -24.8031 -24.8028 -24.8028 -24.7328 -24.7327
   -24.6893 -24.6891 -24.6224 -24.6219 -24.5804 -24.5803 -24.5799 -24.5799
   -24.5435 -24.5434 -24.5433 -24.5433 -24.5085 -24.5078 -24.4918 -24.4915
   -24.4833 -24.4826 -24.4426 -24.4426 -24.4425 -24.4425 -24.4302 -24.4302
    12.5562  12.5567  14.0059  14.0059  14.0062  14.0063  15.0455  15.0460
    15.2670  15.2671  15.2673  15.2673  15.2724  15.2729  15.2870  15.2874
    15.4148  15.4151  16.0939  16.0944  16.1800  16.1802  16.2025  16.2026
    16.2030  16.2031  16.4605  16.4606  16.4608  16.4608  16.5268  16.5269
    16.7389  16.7392  16.8344  16.8345  16.8347  16.8347  16.8889  16.8889
    16.8890  16.8890  16.9405  16.9406  16.9857  16.9861  17.8332  17.8333
    18.9592  18.9592  19.0332  19.0333  19.0333  19.0333  19.0402  19.0406
    19.1147  19.1147  19.1151  19.1151  19.4534  19.4540  19.5067  19.5074
    19.5578  19.5583  19.5674  19.5681  19.6765  19.6770

          k = 0.2723 0.3813 0.3813 ( 13301 PWs)   bands (ev):

   -53.4878 -53.4574 -53.4574 -53.4347 -53.4332 -53.4166 -53.4166 -53.4036
   -53.3636 -53.3595 -53.3595 -53.3518 -53.3491 -53.3353 -53.3352 -53.3134
   -25.0671 -25.0521 -25.0521 -25.0298 -25.0247 -25.0247 -25.0116 -24.9974
   -24.9973 -24.9891 -24.9815 -24.9451 -24.9260 -24.9241 -24.8940 -24.8572
   -24.8572 -24.8409 -24.8408 -24.8349 -24.8247 -24.8247 -24.8166 -24.7266
   -24.6884 -24.6116 -24.6115 -24.5990 -24.5973 -24.5973 -24.5741 -24.5662
   -24.5471 -24.5433 -24.5363 -24.5280 -24.5280 -24.5033 -24.5032 -24.4956
   -24.4656 -24.4655 -24.4643 -24.4550 -24.4382 -24.4381 -24.4352 -24.4300
    12.4558  13.3109  13.3111  13.9280  14.0274  14.5128  14.5128  15.2050
    15.2446  15.2485  15.3034  15.3457  15.3457  15.4150  15.4151  15.5845
    15.6351  15.7142  15.7142  15.8413  16.1157  16.1871  16.1927  16.2480
    16.2481  16.2957  16.2957  16.3676  16.4063  16.4893  16.4954  16.6684
    16.6685  16.6698  16.6698  16.6804  16.7001  16.7001  16.7243  16.8297
    16.8297  16.8460  16.8908  16.8998  16.9701  17.2279  17.2280  17.7904
    18.9714  19.0368  19.0368  19.0585  19.0837  19.1638  19.2321  19.2322
    19.2368  19.2637  19.2637  19.2832  19.3512  19.3512  19.4186  19.5346
    19.5557  19.5557  19.5626  19.5957  19.6572  19.6678

          k = 0.2723 0.3813-0.4902 ( 13278 PWs)   bands (ev):

   -53.4740 -53.4734 -53.4471 -53.4466 -53.4257 -53.4251 -53.4108 -53.4102
   -53.3615 -53.3609 -53.3554 -53.3548 -53.3417 -53.3411 -53.3235 -53.3229
   -25.0461 -25.0461 -25.0372 -25.0370 -25.0161 -25.0155 -25.0093 -25.0091
   -25.0042 -25.0038 -24.9615 -24.9613 -24.8959 -24.8953 -24.8934 -24.8932
   -24.8654 -24.8651 -24.8431 -24.8427 -24.8392 -24.8390 -24.7836 -24.7835
   -24.6492 -24.6491 -24.5977 -24.5973 -24.5826 -24.5823 -24.5756 -24.5755
   -24.5438 -24.5432 -24.5227 -24.5225 -24.5001 -24.4996 -24.4965 -24.4962
   -24.4925 -24.4918 -24.4610 -24.4608 -24.4355 -24.4355 -24.4320 -24.4319
    12.8584  12.8588  13.6193  13.6197  14.2911  14.2915  14.8834  14.8839
    15.3276  15.3281  15.3516  15.3519  15.5162  15.5163  15.5182  15.5187
    15.5762  15.5766  16.0331  16.0336  16.0609  16.0614  16.1517  16.1517
    16.1751  16.1754  16.3652  16.3655  16.3889  16.3890  16.5332  16.5334
    16.5718  16.5720  16.6027  16.6030  16.7180  16.7181  16.7801  16.7801
    16.7985  16.7987  16.8868  16.8871  16.9403  16.9404  17.4558  17.4559
    19.1535  19.1536  19.1561  19.1564  19.1911  19.1915  19.2137  19.2141
    19.2355  19.2356  19.2761  19.2762  19.4403  19.4407  19.4420  19.4426
    19.5047  19.5050  19.5176  19.5182  19.5965  19.5971

          k = 0.2723-0.4902-0.4902 ( 13284 PWs)   bands (ev):

   -53.4618 -53.4613 -53.4612 -53.4608 -53.4189 -53.4185 -53.4183 -53.4179
   -53.3582 -53.3577 -53.3576 -53.3572 -53.3318 -53.3313 -53.3312 -53.3308
   -25.0282 -25.0282 -25.0282 -25.0281 -25.0202 -25.0199 -25.0198 -25.0194
   -24.9823 -24.9821 -24.9821 -24.9818 -24.8761 -24.8757 -24.8756 -24.8753
   -24.8645 -24.8645 -24.8645 -24.8644 -24.8386 -24.8386 -24.8385 -24.8384
   -24.6111 -24.6111 -24.6110 -24.6108 -24.5865 -24.5865 -24.5865 -24.5864
   -24.5139 -24.5134 -24.5133 -24.5129 -24.5068 -24.5067 -24.5066 -24.5064
   -24.4821 -24.4819 -24.4819 -24.4815 -24.4326 -24.4326 -24.4326 -24.4325
    13.2239  13.2240  13.2244  13.2245  14.6081  14.6082  14.6085  14.6086
    15.3625  15.3628  15.3629  15.3631  15.6903  15.6904  15.6905  15.6906
    15.7851  15.7854  15.7856  15.7859  15.9928  15.9930  15.9932  15.9934
    16.2713  16.2714  16.2714  16.2715  16.4257  16.4260  16.4260  16.4262
    16.5954  16.5954  16.5955  16.5955  16.6370  16.6370  16.6370  16.6371
    16.8216  16.8218  16.8219  16.8220  17.1424  17.1425  17.1425  17.1425
    19.2257  19.2260  19.2261  19.2264  19.3292  19.3294  19.3294  19.3295
    19.3312  19.3316  19.3317  19.3321  19.3786  19.3788  19.3788  19.3790
    19.5108  19.5114  19.5115  19.5119  19.6074  19.6076

          k = 0.3813 0.3813 0.3813 ( 13271 PWs)   bands (ev):

   -53.4775 -53.4497 -53.4496 -53.4496 -53.4287 -53.4287 -53.4287 -53.4127
   -53.3585 -53.3513 -53.3513 -53.3512 -53.3392 -53.3391 -53.3391 -53.3199
   -25.0356 -25.0356 -25.0356 -25.0161 -25.0160 -25.0160 -24.9955 -24.9610
   -24.9610 -24.9597 -24.9597 -24.9596 -24.9476 -24.9476 -24.8824 -24.8824
   -24.8824 -24.8776 -24.8776 -24.8775 -24.8620 -24.8619 -24.8619 -24.7738
   -24.6491 -24.5778 -24.5778 -24.5777 -24.5627 -24.5627 -24.5627 -24.5475
   -24.5475 -24.5287 -24.5287 -24.5287 -24.5232 -24.5232 -24.5231 -24.4990
   -24.4644 -24.4643 -24.4643 -24.4555 -24.4555 -24.4504 -24.4504 -24.4504
    12.7735  13.5939  13.5940  13.5940  14.2424  14.2425  14.2425  14.9880
    15.4091  15.4091  15.5023  15.5023  15.5023  15.6853  15.6853  15.6853
    15.6873  15.6873  15.6873  15.7998  16.1740  16.1740  16.2451  16.2451
    16.3301  16.3301  16.3302  16.3392  16.3392  16.3393  16.4344  16.4344
    16.4344  16.5677  16.5678  16.5678  16.5981  16.5981  16.5982  16.6440
    16.6441  16.6441  16.8045  16.8045  16.8947  16.8947  16.8948  17.3936
    19.1591  19.1591  19.1591  19.2845  19.3237  19.3237  19.3237  19.3488
    19.3488  19.3604  19.3604  19.3605  19.3874  19.3874  19.3875  19.5596
    19.5596  19.5904  19.5904  19.5904  19.6087  19.6088

          k = 0.3813 0.3813-0.4902 ( 13286 PWs)   bands (ev):

   -53.4649 -53.4643 -53.4402 -53.4401 -53.4396 -53.4396 -53.4215 -53.4209
   -53.3546 -53.3541 -53.3448 -53.3447 -53.3442 -53.3442 -53.3288 -53.3282
   -25.0199 -25.0199 -25.0198 -25.0198 -24.9957 -24.9950 -24.9926 -24.9924
   -24.9773 -24.9770 -24.9254 -24.9248 -24.9187 -24.9186 -24.9184 -24.9184
   -24.9070 -24.9067 -24.8847 -24.8847 -24.8844 -24.8844 -24.8257 -24.8256
   -24.6122 -24.6120 -24.5566 -24.5562 -24.5482 -24.5481 -24.5480 -24.5479
   -24.5392 -24.5392 -24.5389 -24.5389 -24.5083 -24.5081 -24.5025 -24.5018
   -24.4892 -24.4885 -24.4602 -24.4602 -24.4601 -24.4601 -24.4509 -24.4507
    13.1630  13.1635  13.9201  13.9202  13.9206  13.9207  14.6158  14.6162
    15.5397  15.5402  15.6022  15.6027  15.6198  15.6198  15.6200  15.6201
    15.7727  15.7731  16.0087  16.0088  16.0093  16.0093  16.1950  16.1951
    16.2485  16.2490  16.2976  16.2979  16.3258  16.3261  16.4491  16.4491
    16.4493  16.4493  16.5650  16.5651  16.5653  16.5654  16.6198  16.6198
    16.6199  16.6199  16.6886  16.6888  16.7043  16.7047  17.0700  17.0701
    19.2596  19.2601  19.2840  19.2840  19.2844  19.2844  19.3951  19.3951
    19.3951  19.3952  19.4562  19.4568  19.4784  19.4790  19.5277  19.5281
    19.5784  19.5789  19.5813  19.5813  19.5819  19.5819

          k = 0.3813-0.4902-0.4902 ( 13320 PWs)   bands (ev):

   -53.4537 -53.4532 -53.4531 -53.4527 -53.4317 -53.4312 -53.4311 -53.4307
   -53.3493 -53.3488 -53.3487 -53.3483 -53.3361 -53.3356 -53.3355 -53.3351
   -24.9985 -24.9985 -24.9985 -24.9984 -24.9948 -24.9945 -24.9944 -24.9941
   -24.9478 -24.9477 -24.9476 -24.9474 -24.9201 -24.9197 -24.9196 -24.9192
   -24.9152 -24.9151 -24.9151 -24.9150 -24.8722 -24.8722 -24.8721 -24.8720
   -24.5783 -24.5782 -24.5782 -24.5780 -24.5382 -24.5382 -24.5382 -24.5381
   -24.5254 -24.5253 -24.5253 -24.5251 -24.5050 -24.5046 -24.5045 -24.5041
   -24.4882 -24.4879 -24.4878 -24.4875 -24.4601 -24.4601 -24.4601 -24.4600
    13.5294  13.5296  13.5299  13.5300  14.2711  14.2713  14.2716  14.2717
    15.6154  15.6157  15.6159  15.6160  15.8326  15.8330  15.8331  15.8334
    15.9272  15.9274  15.9275  15.9277  15.9414  15.9417  15.9419  15.9421
    16.3584  16.3584  16.3585  16.3586  16.3671  16.3672  16.3672  16.3672
    16.3829  16.3832  16.3832  16.3834  16.5504  16.5504  16.5504  16.5505
    16.6124  16.6126  16.6126  16.6128  16.7565  16.7565  16.7565  16.7566
    19.3238  19.3242  19.3243  19.3246  19.3883  19.3888  19.3889  19.3893
    19.4816  19.4822  19.4823  19.4827  19.5468  19.5469  19.5470  19.5471
    19.5629  19.5633  19.5634  19.5638  19.5882  19.5883

          k =-0.4902-0.4902-0.4902 ( 13264 PWs)   bands (ev):

   -53.4437 -53.4432 -53.4432 -53.4430 -53.4428 -53.4426 -53.4426 -53.4422
   -53.3422 -53.3417 -53.3417 -53.3415 -53.3413 -53.3411 -53.3411 -53.3407
   -24.9609 -24.9609 -24.9609 -24.9607 -24.9607 -24.9607 -24.9606 -24.9605
   -24.9601 -24.9601 -24.9601 -24.9600 -24.9600 -24.9599 -24.9599 -24.9599
   -24.9098 -24.9098 -24.9098 -24.9097 -24.9096 -24.9096 -24.9096 -24.9093
   -24.5494 -24.5494 -24.5494 -24.5493 -24.5492 -24.5492 -24.5492 -24.5489
   -24.4959 -24.4959 -24.4959 -24.4957 -24.4957 -24.4957 -24.4956 -24.4955
   -24.4951 -24.4951 -24.4951 -24.4951 -24.4950 -24.4949 -24.4948 -24.4948
    13.8932  13.8935  13.8935  13.8936  13.8938  13.8939  13.8940  13.8940
    15.8865  15.8865  15.8868  15.8868  15.8869  15.8869  15.8870  15.8870
    15.8871  15.8872  15.8872  15.8872  15.8874  15.8874  15.8875  15.8875
    16.4226  16.4227  16.4227  16.4227  16.4228  16.4228  16.4228  16.4229
    16.4537  16.4537  16.4537  16.4539  16.4540  16.4540  16.4540  16.4541
    16.4542  16.4543  16.4544  16.4544  16.4544  16.4544  16.4544  16.4544
    19.4400  19.4400  19.4404  19.4404  19.4405  19.4406  19.4406  19.4407
    19.4408  19.4409  19.4409  19.4410  19.4411  19.4411  19.4414  19.4414
    19.7784  19.7784  19.7786  19.7787  19.7788  19.7789

     the Fermi energy is    18.2755 ev

!    total energy              =   -3971.51272970 Ry
     Harris-Foulkes estimate   =   -3971.51272355 Ry
     estimated scf accuracy    <       0.00000045 Ry

     total all-electron energy =    -33628.035609 Ry

     The total energy is the sum of the following terms:

     one-electron contribution =    -944.13260276 Ry
     hartree contribution      =     598.98168305 Ry
     xc contribution           =    -355.69433789 Ry
     ewald contribution        =   -2082.77201076 Ry
     one-center paw contrib.   =   -1187.93188223 Ry
     smearing contrib. (-TS)   =       0.03642089 Ry

     total magnetization       =     0.00 Bohr mag/cell
     absolute magnetization    =     0.05 Bohr mag/cell

     convergence has been achieved in  18 iterations

     Forces acting on atoms (cartesian axes, Ry/au):

     atom    1 type  1   force =     0.00000000   -0.00000000    0.00000000
     atom    2 type  2   force =     0.00002487    0.00002487    0.00002487
     atom    3 type  1   force =     0.00000000    0.00000000    0.00000000
     atom    4 type  2   force =     0.00002487    0.00002487   -0.00002487
     atom    5 type  1   force =     0.00000000    0.00000000    0.00000000
     atom    6 type  2   force =     0.00002487   -0.00002487    0.00002487
     atom    7 type  1   force =     0.00000000    0.00000000    0.00000000
     atom    8 type  2   force =     0.00002487   -0.00002487   -0.00002487
     atom    9 type  1   force =     0.00000000    0.00000000    0.00000000
     atom   10 type  2   force =    -0.00002487    0.00002487    0.00002487
     atom   11 type  1   force =     0.00000000    0.00000000    0.00000000
     atom   12 type  2   force =    -0.00002487    0.00002487   -0.00002487
     atom   13 type  1   force =     0.00000000    0.00000000    0.00000000
     atom   14 type  2   force =    -0.00002487   -0.00002487    0.00002487
     atom   15 type  1   force =     0.00000000    0.00000000    0.00000000
     atom   16 type  2   force =    -0.00002487   -0.00002487   -0.00002487

     Total force =     0.000122     Total SCF correction =     0.001533
     SCF correction compared to forces is large: reduce conv_thr to get better values


     Computing stress (Cartesian axis) and pressure

          total   stress  (Ry/bohr**3)                   (kbar)     P= -137.12
  -0.00093210   0.00000000   0.00000000       -137.12      0.00      0.00
   0.00000000  -0.00093210   0.00000000          0.00   -137.12      0.00
   0.00000000   0.00000000  -0.00093210          0.00      0.00   -137.12


     Writing output data file hdWhWtuQausrLrlR.save/
 
     init_run     :      9.72s CPU     10.07s WALL (       1 calls)
     electrons    :    673.81s CPU    687.80s WALL (       1 calls)
     forces       :      3.40s CPU      3.56s WALL (       1 calls)
     stress       :     14.69s CPU     14.75s WALL (       1 calls)

     Called by init_run:
     wfcinit      :      9.00s CPU      9.29s WALL (       1 calls)
     potinit      :      0.36s CPU      0.37s WALL (       1 calls)
     hinit0       :      0.13s CPU      0.14s WALL (       1 calls)

     Called by electrons:
     c_bands      :    610.75s CPU    621.85s WALL (      19 calls)
     sum_band     :     55.56s CPU     57.84s WALL (      19 calls)
     v_of_rho     :      0.62s CPU      0.65s WALL (      19 calls)
     newd         :      1.46s CPU      1.76s WALL (      19 calls)
     PAW_pot      :      5.44s CPU      5.67s WALL (      19 calls)
     mix_rho      :      0.18s CPU      0.19s WALL (      19 calls)

     Called by c_bands:
     init_us_2    :      4.51s CPU      4.56s WALL (    2870 calls)
     cegterg      :    588.86s CPU    599.79s WALL (    1330 calls)

     Called by sum_band:
     sum_band:bec :      0.57s CPU      0.58s WALL (    1330 calls)
     addusdens    :      2.50s CPU      2.84s WALL (      19 calls)

     Called by *egterg:
     h_psi        :    240.77s CPU    248.47s WALL (    6291 calls)
     s_psi        :     23.71s CPU     23.79s WALL (    6291 calls)
     g_psi        :      1.34s CPU      1.35s WALL (    4891 calls)
     cdiaghg      :    247.08s CPU    247.49s WALL (    6151 calls)

     Called by h_psi:
     h_psi:pot    :    239.30s CPU    246.98s WALL (    6291 calls)
     h_psi:calbec :     26.19s CPU     28.08s WALL (    6291 calls)
     vloc_psi     :    189.77s CPU    195.45s WALL (    6291 calls)
     add_vuspsi   :     23.29s CPU     23.40s WALL (    6291 calls)

     General routines
     calbec       :     38.46s CPU     41.25s WALL (    7971 calls)
     fft          :      0.49s CPU      0.53s WALL (     517 calls)
     ffts         :      0.04s CPU      0.05s WALL (      76 calls)
     fftw         :    213.23s CPU    219.58s WALL ( 1084134 calls)
     interpolate  :      0.07s CPU      0.07s WALL (      38 calls)
 
     Parallel routines
     fft_scatt_xy :     16.66s CPU     17.17s WALL ( 1084727 calls)
     fft_scatt_yz :    108.81s CPU    112.23s WALL ( 1084727 calls)
 
     PWSCF        : 11m46.42s CPU    12m10.84s WALL

 
   This run was terminated on:   7:34:27  15Jun2020            

=------------------------------------------------------------------------------=
   JOB DONE.
=------------------------------------------------------------------------------=
