
     Program PWSCF v.6.3 starts on 15Jun2020 at  7:10:46 

     This program is part of the open-source Quantum ESPRESSO suite
     for quantum simulation of materials; please cite
         "P. Giannozzi et al., J. Phys.:Condens. Matter 21 395502 (2009);
         "P. Giannozzi et al., J. Phys.:Condens. Matter 29 465901 (2017);
          URL http://www.quantum-espresso.org", 
     in publications or presentations arising from this work. More details at
     http://www.quantum-espresso.org/quote

     Parallel version (MPI & OpenMP), running on      20 processor cores
     Number of MPI processes:                20
     Threads/MPI process:                     1

     MPI processes distributed on     1 nodes
     R & G space division:  proc/nbgrp/npool/nimage =      20
     Reading input from wd/eos/eos_014.in
Warning: card &IONS ignored
Warning: card ION_DYNAMICS = 'BFGS', ignored
Warning: card / ignored
Warning: card &CELL ignored
Warning: card CELL_DYNAMICS = 'BFGS', ignored
Warning: card CELL_FACTOR = 2.0, ignored
Warning: card PRESS = 0.0, ignored
Warning: card / ignored

     Current dimensions of program PWSCF are:
     Max number of different atomic species (ntypx) = 10
     Max number of k-points (npk) =  40000
     Max angular momentum in pseudopotentials (lmaxx) =  3
     Message from routine read_upf::
     Pseudo file /rds/homes/b/bxp912/pp/Cr.pbe-spn-kjpaw_psl.1.0.0.UPF has been successfully fixed on the fly.
To avoid this message in the future you can permanently fix 
 your pseudo files following instructions given in: 
https://gitlab.com/QEF/q-e/blob/master/upftools/how_to_fix_upf.md
               file Cr.pbe-spn-kjpaw_psl.1.0.0.UPF: wavefunction(s)  3S 3P 3D renormalized
     Message from routine read_upf::
     Pseudo file /rds/homes/b/bxp912/pp/Cr.pbe-spn-kjpaw_psl.1.0.0.UPF has been successfully fixed on the fly.
To avoid this message in the future you can permanently fix 
 your pseudo files following instructions given in: 
https://gitlab.com/QEF/q-e/blob/master/upftools/how_to_fix_upf.md
               file Cr.pbe-spn-kjpaw_psl.1.0.0.UPF: wavefunction(s)  3S 3P 3D renormalized

     Subspace diagonalization in iterative solution of the eigenvalue problem:
     a serial algorithm will be used

     Found symmetry operation: I + (  0.0000  0.0000  0.5000)
     This is a supercell, fractional translations are disabled
 
     Parallelization info
     --------------------
     sticks:   dense  smooth     PW     G-vecs:    dense   smooth      PW
     Min         203     135     37                 9807     5287     773
     Max         206     136     38                 9809     5290     778
     Sum        4085    2709    749               196157   105759   15515
 


     bravais-lattice index     =            0
     lattice parameter (alat)  =      10.7442  a.u.
     unit-cell volume          =    1305.1729 (a.u.)^3
     number of atoms/cell      =           16
     number of atomic types    =            2
     number of electrons       =       224.00
     number of Kohn-Sham states=          134
     kinetic-energy cutoff     =      71.0000  Ry
     charge density cutoff     =     430.0000  Ry
     convergence threshold     =      1.0E-06
     mixing beta               =       0.1000
     number of iterations used =           10  plain     mixing
     Exchange-correlation      = SLA PW PBX PBC ( 1  4  3  4 0 0)

     celldm(1)=  10.744199  celldm(2)=   0.000000  celldm(3)=   0.000000
     celldm(4)=   0.000000  celldm(5)=   0.000000  celldm(6)=   0.000000

     crystal axes: (cart. coord. in units of alat)
               a(1) = (   1.017143   0.000000   0.000000 )  
               a(2) = (   0.000000   1.017143   0.000000 )  
               a(3) = (   0.000000   0.000000   1.017143 )  

     reciprocal axes: (cart. coord. in units 2 pi/alat)
               b(1) = (  0.983146  0.000000  0.000000 )  
               b(2) = (  0.000000  0.983146  0.000000 )  
               b(3) = (  0.000000  0.000000  0.983146 )  


     PseudoPot. # 1 for Cr read from file:
     /rds/homes/b/bxp912/pp/Cr.pbe-spn-kjpaw_psl.1.0.0.UPF
     MD5 check sum: cb1c17117da000fe5e03c4f1a6841d9c
     Pseudo is Projector augmented-wave + core cor, Zval = 14.0
     Generated using "atomic" code by A. Dal Corso v.5.1
     Shape of augmentation charge: PSQ
     Using radial grid of 1183 points,  6 beta functions with: 
                l(1) =   0
                l(2) =   0
                l(3) =   1
                l(4) =   1
                l(5) =   2
                l(6) =   2
     Q(r) pseudized with 0 coefficients 


     PseudoPot. # 2 for Cr read from file:
     /rds/homes/b/bxp912/pp/Cr.pbe-spn-kjpaw_psl.1.0.0.UPF
     MD5 check sum: cb1c17117da000fe5e03c4f1a6841d9c
     Pseudo is Projector augmented-wave + core cor, Zval = 14.0
     Generated using "atomic" code by A. Dal Corso v.5.1
     Shape of augmentation charge: PSQ
     Using radial grid of 1183 points,  6 beta functions with: 
                l(1) =   0
                l(2) =   0
                l(3) =   1
                l(4) =   1
                l(5) =   2
                l(6) =   2
     Q(r) pseudized with 0 coefficients 


     atomic species   valence    mass     pseudopotential
        Cr1           14.00    55.84500     Cr( 1.00)
        Cr2           14.00    55.84500     Cr( 1.00)

     Starting magnetic structure 
     atomic species   magnetization
        Cr1          0.100
        Cr2          0.100

     48 Sym. Ops., with inversion, found



   Cartesian axes

     site n.     atom                  positions (alat units)
         1           Cr1 tau(   1) = (   0.0000000   0.0000000   0.0000000  )
         2           Cr2 tau(   2) = (   0.2542861   0.2542861   0.2542857  )
         3           Cr1 tau(   3) = (   0.0000000   0.0000000   0.5085704  )
         4           Cr2 tau(   4) = (   0.2542861   0.2542861   0.7628561  )
         5           Cr1 tau(   5) = (   0.0000000   0.5085713   0.0000000  )
         6           Cr2 tau(   6) = (   0.2542861   0.7628564   0.2542857  )
         7           Cr1 tau(   7) = (   0.0000000   0.5085713   0.5085704  )
         8           Cr2 tau(   8) = (   0.2542861   0.7628564   0.7628561  )
         9           Cr1 tau(   9) = (   0.5085713   0.0000000   0.0000000  )
        10           Cr2 tau(  10) = (   0.7628564   0.2542861   0.2542857  )
        11           Cr1 tau(  11) = (   0.5085713   0.0000000   0.5085704  )
        12           Cr2 tau(  12) = (   0.7628564   0.2542861   0.7628561  )
        13           Cr1 tau(  13) = (   0.5085713   0.5085713   0.0000000  )
        14           Cr2 tau(  14) = (   0.7628564   0.7628564   0.2542857  )
        15           Cr1 tau(  15) = (   0.5085713   0.5085713   0.5085704  )
        16           Cr2 tau(  16) = (   0.7628564   0.7628564   0.7628561  )

     number of k points=    35  Marzari-Vanderbilt smearing, width (Ry)=  0.0400
                       cart. coord. in units 2pi/alat
        k(    1) = (   0.0546192   0.0546192   0.0546192), wk =   0.0109739
        k(    2) = (   0.0546192   0.0546192   0.1638577), wk =   0.0329218
        k(    3) = (   0.0546192   0.0546192   0.2730961), wk =   0.0329218
        k(    4) = (   0.0546192   0.0546192   0.3823346), wk =   0.0329218
        k(    5) = (   0.0546192   0.0546192  -0.4915730), wk =   0.0164609
        k(    6) = (   0.0546192   0.1638577   0.1638577), wk =   0.0329218
        k(    7) = (   0.0546192   0.1638577   0.2730961), wk =   0.0658436
        k(    8) = (   0.0546192   0.1638577   0.3823346), wk =   0.0658436
        k(    9) = (   0.0546192   0.1638577  -0.4915730), wk =   0.0329218
        k(   10) = (   0.0546192   0.2730961   0.2730961), wk =   0.0329218
        k(   11) = (   0.0546192   0.2730961   0.3823346), wk =   0.0658436
        k(   12) = (   0.0546192   0.2730961  -0.4915730), wk =   0.0329218
        k(   13) = (   0.0546192   0.3823346   0.3823346), wk =   0.0329218
        k(   14) = (   0.0546192   0.3823346  -0.4915730), wk =   0.0329218
        k(   15) = (   0.0546192  -0.4915730  -0.4915730), wk =   0.0082305
        k(   16) = (   0.1638577   0.1638577   0.1638577), wk =   0.0109739
        k(   17) = (   0.1638577   0.1638577   0.2730961), wk =   0.0329218
        k(   18) = (   0.1638577   0.1638577   0.3823346), wk =   0.0329218
        k(   19) = (   0.1638577   0.1638577  -0.4915730), wk =   0.0164609
        k(   20) = (   0.1638577   0.2730961   0.2730961), wk =   0.0329218
        k(   21) = (   0.1638577   0.2730961   0.3823346), wk =   0.0658436
        k(   22) = (   0.1638577   0.2730961  -0.4915730), wk =   0.0329218
        k(   23) = (   0.1638577   0.3823346   0.3823346), wk =   0.0329218
        k(   24) = (   0.1638577   0.3823346  -0.4915730), wk =   0.0329218
        k(   25) = (   0.1638577  -0.4915730  -0.4915730), wk =   0.0082305
        k(   26) = (   0.2730961   0.2730961   0.2730961), wk =   0.0109739
        k(   27) = (   0.2730961   0.2730961   0.3823346), wk =   0.0329218
        k(   28) = (   0.2730961   0.2730961  -0.4915730), wk =   0.0164609
        k(   29) = (   0.2730961   0.3823346   0.3823346), wk =   0.0329218
        k(   30) = (   0.2730961   0.3823346  -0.4915730), wk =   0.0329218
        k(   31) = (   0.2730961  -0.4915730  -0.4915730), wk =   0.0082305
        k(   32) = (   0.3823346   0.3823346   0.3823346), wk =   0.0109739
        k(   33) = (   0.3823346   0.3823346  -0.4915730), wk =   0.0164609
        k(   34) = (   0.3823346  -0.4915730  -0.4915730), wk =   0.0082305
        k(   35) = (  -0.4915730  -0.4915730  -0.4915730), wk =   0.0013717

     Dense  grid:   196157 G-vectors     FFT dimensions: (  75,  75,  75)

     Smooth grid:   105759 G-vectors     FFT dimensions: (  60,  60,  60)

     Estimated max dynamical RAM per process >     150.19 MB

     Estimated total dynamical RAM >       2.93 GB
     Generating pointlists ...
     new r_m :   0.1817 (alat units)  1.9520 (a.u.) for type    1
     new r_m :   0.1817 (alat units)  1.9520 (a.u.) for type    2

     Check: negative/imaginary core charge=   -0.000009    0.000000

     Initial potential from superposition of free atoms

     starting charge  223.98764, renormalised to  224.00000
     Starting wfcs are  160 randomized atomic wfcs
     Checking if some PAW data can be deallocated... 

     total cpu time spent up to now is       11.8 secs

     Self-consistent Calculation

     iteration #  1     ecut=    71.00 Ry     beta= 0.10
     Davidson diagonalization with overlap
     ethr =  1.00E-02,  avg # of iterations =  3.1

     Threshold (ethr) on eigenvalues was too large:
     Diagonalizing with lowered threshold

     Davidson diagonalization with overlap
     ethr =  7.78E-04,  avg # of iterations =  3.6

     total cpu time spent up to now is       73.4 secs

     total energy              =   -3971.37406525 Ry
     Harris-Foulkes estimate   =   -3971.55950179 Ry
     estimated scf accuracy    <       1.94504281 Ry

     total magnetization       =     5.00 Bohr mag/cell
     absolute magnetization    =     5.27 Bohr mag/cell

     iteration #  2     ecut=    71.00 Ry     beta= 0.10
     Davidson diagonalization with overlap
     ethr =  8.68E-04,  avg # of iterations =  1.1

     total cpu time spent up to now is       94.4 secs

     total energy              =   -3971.06624408 Ry
     Harris-Foulkes estimate   =   -3971.39798287 Ry
     estimated scf accuracy    <       1.24238122 Ry

     total magnetization       =     4.90 Bohr mag/cell
     absolute magnetization    =     5.12 Bohr mag/cell

     iteration #  3     ecut=    71.00 Ry     beta= 0.10
     Davidson diagonalization with overlap
     ethr =  5.55E-04,  avg # of iterations =  3.1

     total cpu time spent up to now is      127.9 secs

     total energy              =   -3971.36253833 Ry
     Harris-Foulkes estimate   =   -3971.41707475 Ry
     estimated scf accuracy    <       0.31373050 Ry

     total magnetization       =     4.12 Bohr mag/cell
     absolute magnetization    =     4.28 Bohr mag/cell

     iteration #  4     ecut=    71.00 Ry     beta= 0.10
     Davidson diagonalization with overlap
     ethr =  1.40E-04,  avg # of iterations =  1.6

     total cpu time spent up to now is      150.3 secs

     total energy              =   -3971.37222081 Ry
     Harris-Foulkes estimate   =   -3971.37341936 Ry
     estimated scf accuracy    <       0.20199649 Ry

     total magnetization       =     3.99 Bohr mag/cell
     absolute magnetization    =     4.17 Bohr mag/cell

     iteration #  5     ecut=    71.00 Ry     beta= 0.10
     Davidson diagonalization with overlap
     ethr =  9.02E-05,  avg # of iterations =  2.7

     total cpu time spent up to now is      180.3 secs

     total energy              =   -3971.46904539 Ry
     Harris-Foulkes estimate   =   -3971.40797665 Ry
     estimated scf accuracy    <       0.17540938 Ry

     total magnetization       =     3.19 Bohr mag/cell
     absolute magnetization    =     3.42 Bohr mag/cell

     iteration #  6     ecut=    71.00 Ry     beta= 0.10
     Davidson diagonalization with overlap
     ethr =  7.83E-05,  avg # of iterations =  2.2

     total cpu time spent up to now is      207.2 secs

     total energy              =   -3971.51956911 Ry
     Harris-Foulkes estimate   =   -3971.51943269 Ry
     estimated scf accuracy    <       0.01195911 Ry

     total magnetization       =     0.29 Bohr mag/cell
     absolute magnetization    =     0.57 Bohr mag/cell

     iteration #  7     ecut=    71.00 Ry     beta= 0.10
     Davidson diagonalization with overlap
     ethr =  5.34E-06,  avg # of iterations =  5.3

     total cpu time spent up to now is      247.0 secs

     total energy              =   -3971.51673007 Ry
     Harris-Foulkes estimate   =   -3971.52063350 Ry
     estimated scf accuracy    <       0.00991056 Ry

     total magnetization       =     0.19 Bohr mag/cell
     absolute magnetization    =     0.54 Bohr mag/cell

     iteration #  8     ecut=    71.00 Ry     beta= 0.10
     Davidson diagonalization with overlap
     ethr =  4.42E-06,  avg # of iterations =  4.0

     total cpu time spent up to now is      293.4 secs

     total energy              =   -3971.52194094 Ry
     Harris-Foulkes estimate   =   -3971.52032045 Ry
     estimated scf accuracy    <       0.00479081 Ry

     total magnetization       =     0.21 Bohr mag/cell
     absolute magnetization    =     0.47 Bohr mag/cell

     iteration #  9     ecut=    71.00 Ry     beta= 0.10
     Davidson diagonalization with overlap
     ethr =  2.14E-06,  avg # of iterations =  2.9

     total cpu time spent up to now is      327.3 secs

     total energy              =   -3971.51982514 Ry
     Harris-Foulkes estimate   =   -3971.52229195 Ry
     estimated scf accuracy    <       0.00716992 Ry

     total magnetization       =     0.16 Bohr mag/cell
     absolute magnetization    =     0.30 Bohr mag/cell

     iteration # 10     ecut=    71.00 Ry     beta= 0.10
     Davidson diagonalization with overlap
     ethr =  2.14E-06,  avg # of iterations =  3.4

     total cpu time spent up to now is      361.8 secs

     total energy              =   -3971.52099184 Ry
     Harris-Foulkes estimate   =   -3971.52095403 Ry
     estimated scf accuracy    <       0.00013933 Ry

     total magnetization       =     0.06 Bohr mag/cell
     absolute magnetization    =     0.16 Bohr mag/cell

     iteration # 11     ecut=    71.00 Ry     beta= 0.10
     Davidson diagonalization with overlap
     ethr =  6.22E-08,  avg # of iterations =  5.7

     total cpu time spent up to now is      410.8 secs

     total energy              =   -3971.52116972 Ry
     Harris-Foulkes estimate   =   -3971.52104166 Ry
     estimated scf accuracy    <       0.00010513 Ry

     total magnetization       =     0.04 Bohr mag/cell
     absolute magnetization    =     0.14 Bohr mag/cell

     iteration # 12     ecut=    71.00 Ry     beta= 0.10
     Davidson diagonalization with overlap
     ethr =  4.69E-08,  avg # of iterations =  5.6

     total cpu time spent up to now is      471.3 secs

     total energy              =   -3971.52102084 Ry
     Harris-Foulkes estimate   =   -3971.52129427 Ry
     estimated scf accuracy    <       0.00162116 Ry

     total magnetization       =     0.02 Bohr mag/cell
     absolute magnetization    =     0.09 Bohr mag/cell

     iteration # 13     ecut=    71.00 Ry     beta= 0.10
     Davidson diagonalization with overlap
     ethr =  4.69E-08,  avg # of iterations =  5.3

     total cpu time spent up to now is      530.4 secs

     total energy              =   -3971.52118311 Ry
     Harris-Foulkes estimate   =   -3971.52118129 Ry
     estimated scf accuracy    <       0.00006020 Ry

     total magnetization       =    -0.03 Bohr mag/cell
     absolute magnetization    =     0.05 Bohr mag/cell

     iteration # 14     ecut=    71.00 Ry     beta= 0.10
     Davidson diagonalization with overlap
     ethr =  2.69E-08,  avg # of iterations =  1.6

     total cpu time spent up to now is      553.1 secs

     total energy              =   -3971.52119125 Ry
     Harris-Foulkes estimate   =   -3971.52118667 Ry
     estimated scf accuracy    <       0.00002089 Ry

     total magnetization       =    -0.02 Bohr mag/cell
     absolute magnetization    =     0.05 Bohr mag/cell

     iteration # 15     ecut=    71.00 Ry     beta= 0.10
     Davidson diagonalization with overlap
     ethr =  9.32E-09,  avg # of iterations =  4.2

     total cpu time spent up to now is      592.7 secs

     total energy              =   -3971.52119136 Ry
     Harris-Foulkes estimate   =   -3971.52120092 Ry
     estimated scf accuracy    <       0.00021204 Ry

     total magnetization       =     0.00 Bohr mag/cell
     absolute magnetization    =     0.05 Bohr mag/cell

     iteration # 16     ecut=    71.00 Ry     beta= 0.10
     Davidson diagonalization with overlap
     ethr =  9.32E-09,  avg # of iterations =  4.5

     total cpu time spent up to now is      632.5 secs

     total energy              =   -3971.52120074 Ry
     Harris-Foulkes estimate   =   -3971.52119978 Ry
     estimated scf accuracy    <       0.00000979 Ry

     total magnetization       =     0.00 Bohr mag/cell
     absolute magnetization    =     0.05 Bohr mag/cell

     iteration # 17     ecut=    71.00 Ry     beta= 0.10
     Davidson diagonalization with overlap
     ethr =  4.37E-09,  avg # of iterations =  2.5
 
     Magnetic moment per site:
     atom:    1    charge:   12.2536    magn:    0.0019    constr:    0.0000
     atom:    2    charge:   12.2532    magn:   -0.0026    constr:    0.0000
     atom:    3    charge:   12.2529    magn:    0.0026    constr:    0.0000
     atom:    4    charge:   12.2532    magn:   -0.0026    constr:    0.0000
     atom:    5    charge:   12.2529    magn:    0.0026    constr:    0.0000
     atom:    6    charge:   12.2532    magn:   -0.0026    constr:    0.0000
     atom:    7    charge:   12.2531    magn:    0.0028    constr:    0.0000
     atom:    8    charge:   12.2532    magn:   -0.0026    constr:    0.0000
     atom:    9    charge:   12.2529    magn:    0.0026    constr:    0.0000
     atom:   10    charge:   12.2532    magn:   -0.0026    constr:    0.0000
     atom:   11    charge:   12.2531    magn:    0.0028    constr:    0.0000
     atom:   12    charge:   12.2532    magn:   -0.0026    constr:    0.0000
     atom:   13    charge:   12.2531    magn:    0.0028    constr:    0.0000
     atom:   14    charge:   12.2532    magn:   -0.0026    constr:    0.0000
     atom:   15    charge:   12.2532    magn:    0.0033    constr:    0.0000
     atom:   16    charge:   12.2532    magn:   -0.0026    constr:    0.0000

     total cpu time spent up to now is      659.0 secs

     End of self-consistent calculation

 ------ SPIN UP ------------


          k = 0.0546 0.0546 0.0546 ( 13202 PWs)   bands (ev):

   -53.3709 -53.2255 -53.2254 -53.2253 -53.2007 -53.2007 -53.2005 -53.1997
   -53.1997 -53.1995 -53.1971 -53.1971 -53.1971 -53.1871 -53.1844 -53.0785
   -25.0038 -25.0036 -25.0036 -24.9997 -24.9997 -24.9995 -24.7619 -24.7619
   -24.7530 -24.6700 -24.6660 -24.6660 -24.6658 -24.6361 -24.6361 -24.6188
   -24.6188 -24.6186 -24.5668 -24.5668 -24.5326 -24.5010 -24.5008 -24.5008
   -24.4859 -24.4859 -24.4858 -24.4654 -24.4654 -24.4654 -24.4604 -24.4604
   -24.4602 -24.4525 -24.4523 -24.4523 -24.4384 -24.4384 -24.4383 -24.2180
   -24.2178 -24.2178 -24.2176 -24.2136 -24.2134 -24.2134 -24.2082 -24.2082
    10.8366  14.3060  14.3060  14.3060  14.3287  14.3287  14.3287  14.4055
    14.4056  14.4056  14.4962  14.4962  14.8532  14.8533  14.8533  16.1407
    16.2256  16.2257  16.2257  16.2370  16.2370  16.2404  16.2404  16.2405
    16.3898  16.3898  16.4409  16.6201  16.6201  16.6201  17.0487  17.0487
    17.0487  17.6663  17.6663  17.7180  17.9897  17.9897  17.9898  18.1012
    18.1013  18.1013  18.1944  18.1944  18.1944  18.2974  18.2975  18.2975
    19.1332  19.1332  19.1333  19.1551  19.1551  19.1552  19.3643  19.3645
    19.3645  19.4072  19.4072  19.4073  19.5950  19.5950  19.5950  19.6216
    19.6216  19.6433  19.6433  19.6433  19.9425  19.9426

          k = 0.0546 0.0546 0.1639 ( 13211 PWs)   bands (ev):

   -53.3657 -53.2513 -53.2242 -53.2241 -53.2034 -53.2032 -53.1998 -53.1992
   -53.1991 -53.1964 -53.1961 -53.1960 -53.1879 -53.1852 -53.1752 -53.0822
   -24.9925 -24.9924 -24.9912 -24.9877 -24.9806 -24.9805 -24.7665 -24.7528
   -24.7388 -24.7206 -24.7074 -24.7073 -24.7047 -24.7037 -24.6620 -24.6619
   -24.6136 -24.5753 -24.5637 -24.5489 -24.5333 -24.5005 -24.5004 -24.4990
   -24.4803 -24.4744 -24.4705 -24.4704 -24.4688 -24.4573 -24.4572 -24.4531
   -24.4530 -24.4487 -24.4486 -24.4053 -24.4028 -24.4027 -24.3922 -24.2392
   -24.2306 -24.2305 -24.2287 -24.2251 -24.2177 -24.2176 -24.2163 -24.2119
    10.9670  13.8435  14.3275  14.3275  14.3972  14.3972  14.4103  14.4318
    14.4509  14.4510  14.5628  14.5674  14.8884  14.8885  15.1347  16.0227
    16.1389  16.1544  16.2004  16.2062  16.2196  16.2747  16.2795  16.2795
    16.3237  16.3238  16.5781  16.5781  16.5900  16.6014  16.9498  16.9498
    17.4451  17.6367  17.6592  17.7580  17.7580  17.7853  17.8320  17.9501
    17.9501  17.9947  18.2900  18.2901  18.4159  18.4160  18.4471  18.5564
    18.6324  18.6325  18.8671  18.8790  18.8791  18.8945  19.0010  19.3854
    19.3855  19.5185  19.5185  19.5347  19.6069  19.6069  19.6179  19.6440
    19.6529  19.6529  19.6563  19.6812  19.9461  19.9706

          k = 0.0546 0.0546 0.2731 ( 13214 PWs)   bands (ev):

   -53.3556 -53.2768 -53.2219 -53.2218 -53.2069 -53.2068 -53.1985 -53.1984
   -53.1982 -53.1957 -53.1956 -53.1949 -53.1895 -53.1866 -53.1525 -53.0895
   -24.9668 -24.9667 -24.9667 -24.9640 -24.9476 -24.9475 -24.7783 -24.7703
   -24.7687 -24.7643 -24.7642 -24.7352 -24.7319 -24.7221 -24.7220 -24.7191
   -24.5953 -24.5914 -24.5788 -24.5670 -24.5031 -24.4977 -24.4976 -24.4913
   -24.4844 -24.4761 -24.4760 -24.4552 -24.4551 -24.4530 -24.4529 -24.4349
   -24.4237 -24.4015 -24.4014 -24.3609 -24.3584 -24.3583 -24.3489 -24.2743
   -24.2509 -24.2508 -24.2500 -24.2478 -24.2318 -24.2305 -24.2303 -24.2250
    11.2235  13.2316  14.3846  14.3846  14.5065  14.5065  14.5130  14.5131
    14.6110  14.6298  14.6948  14.6994  14.9179  14.9179  15.2368  15.8071
    15.8532  15.9070  16.0888  16.1446  16.1721  16.1832  16.3998  16.3998
    16.4729  16.4729  16.5804  16.5805  16.8514  16.8736  16.8851  16.8851
    17.4443  17.4443  17.6156  17.6171  17.6171  17.6487  17.6526  17.7199
    17.8847  18.0646  18.0646  18.1159  18.2618  18.2618  18.4780  18.5129
    18.5730  18.5730  18.6128  18.6128  18.6164  18.7487  18.8695  19.3646
    19.3987  19.3987  19.5118  19.5118  19.6613  19.6786  19.7213  19.7213
    19.7232  19.9223  19.9244  19.9466  19.9525  19.9783

          k = 0.0546 0.0546 0.3823 ( 13188 PWs)   bands (ev):

   -53.3410 -53.3008 -53.2188 -53.2186 -53.2109 -53.2108 -53.1975 -53.1974
   -53.1962 -53.1958 -53.1957 -53.1930 -53.1915 -53.1885 -53.1322 -53.1004
   -24.9312 -24.9296 -24.9286 -24.9284 -24.9020 -24.9019 -24.8347 -24.8313
   -24.8236 -24.8235 -24.7857 -24.7856 -24.7678 -24.7511 -24.7098 -24.6926
   -24.6385 -24.6215 -24.5664 -24.5496 -24.5139 -24.5047 -24.4933 -24.4932
   -24.4820 -24.4819 -24.4538 -24.4537 -24.4528 -24.4527 -24.4400 -24.3762
   -24.3697 -24.3554 -24.3553 -24.3217 -24.3201 -24.3163 -24.3162 -24.3092
   -24.2813 -24.2812 -24.2789 -24.2788 -24.2548 -24.2513 -24.2512 -24.2462
    11.5965  12.6267  14.4598  14.4598  14.5468  14.5469  14.6433  14.6433
    14.8713  14.8864  14.8864  14.8897  14.8914  14.9055  15.1905  15.4519
    15.5682  15.5795  16.0782  16.0977  16.1318  16.1412  16.5814  16.5814
    16.6815  16.6815  16.7214  16.7214  16.9393  16.9394  17.1545  17.1546
    17.1838  17.2053  17.2839  17.2839  17.5256  17.5257  17.6061  17.6410
    17.6497  17.6576  17.6986  17.6987  18.0187  18.0245  18.0259  18.3879
    18.4565  18.8342  18.8342  18.8680  18.8680  19.0956  19.1189  19.2272
    19.2401  19.2401  19.3544  19.3544  19.7204  19.7319  19.8176  19.8590
    19.8627  19.8645  19.9611  19.9802  19.9863  19.9947

          k = 0.0546 0.0546-0.4916 ( 13184 PWs)   bands (ev):

   -53.3227 -53.3223 -53.2151 -53.2150 -53.2148 -53.2147 -53.1967 -53.1966
   -53.1963 -53.1962 -53.1940 -53.1938 -53.1911 -53.1905 -53.1149 -53.1146
   -24.8861 -24.8858 -24.8857 -24.8854 -24.8797 -24.8796 -24.8796 -24.8796
   -24.8471 -24.8470 -24.8469 -24.8469 -24.7627 -24.7625 -24.6774 -24.6771
   -24.6599 -24.6597 -24.5401 -24.5398 -24.5277 -24.5273 -24.4881 -24.4880
   -24.4878 -24.4877 -24.4531 -24.4530 -24.4527 -24.4526 -24.3784 -24.3781
   -24.3247 -24.3244 -24.3218 -24.3215 -24.3141 -24.3140 -24.3139 -24.3139
   -24.2846 -24.2843 -24.2800 -24.2799 -24.2799 -24.2799 -24.2749 -24.2746
    12.0712  12.0717  14.5247  14.5248  14.5250  14.5250  14.7827  14.7827
    14.7829  14.7829  15.0500  15.0503  15.1436  15.1440  15.2258  15.2262
    15.2314  15.2318  16.0963  16.0966  16.1066  16.1069  16.8118  16.8118
    16.8119  16.8119  16.9078  16.9079  16.9080  16.9080  17.1069  17.1069
    17.1071  17.1072  17.2652  17.2652  17.2655  17.2655  17.5779  17.5780
    17.5924  17.5925  17.6145  17.6147  17.6430  17.6432  18.1871  18.1874
    18.8094  18.8096  19.0489  19.0489  19.0489  19.0489  19.1359  19.1359
    19.1359  19.1360  19.4750  19.4752  19.6145  19.6147  19.7887  19.7890
    19.7957  19.7960  19.9344  19.9347  19.9706  19.9709

          k = 0.0546 0.1639 0.1639 ( 13195 PWs)   bands (ev):

   -53.3607 -53.2494 -53.2493 -53.2230 -53.2105 -53.2025 -53.2023 -53.1987
   -53.1954 -53.1954 -53.1905 -53.1890 -53.1858 -53.1755 -53.1754 -53.0857
   -24.9892 -24.9805 -24.9804 -24.9698 -24.9698 -24.9539 -24.7763 -24.7530
   -24.7474 -24.7429 -24.7428 -24.7334 -24.7250 -24.7175 -24.6906 -24.6280
   -24.6081 -24.6080 -24.5600 -24.5479 -24.5478 -24.5090 -24.4949 -24.4949
   -24.4838 -24.4807 -24.4806 -24.4719 -24.4655 -24.4654 -24.4593 -24.4456
   -24.4413 -24.4179 -24.4070 -24.4068 -24.3758 -24.3588 -24.3587 -24.2679
   -24.2508 -24.2390 -24.2389 -24.2284 -24.2283 -24.2228 -24.2131 -24.2088
    11.0957  13.9064  13.9065  14.2906  14.4330  14.4330  14.4993  14.4993
    14.5045  14.5045  14.6277  14.6385  14.9348  15.1712  15.1713  15.9147
    16.0360  16.1956  16.1956  16.2254  16.2570  16.2570  16.2964  16.2964
    16.3034  16.3525  16.4357  16.5190  16.5741  16.6136  16.8422  17.2624
    17.2624  17.5682  17.6135  17.6136  17.6404  17.6610  17.8140  17.8971
    18.1875  18.1875  18.2162  18.2592  18.2592  18.3808  18.4685  18.4685
    18.4912  18.6066  18.6066  18.6313  18.6313  18.7238  19.1199  19.1199
    19.3917  19.5202  19.5446  19.5446  19.5814  19.6118  19.6118  19.6211
    19.6310  19.8105  19.9115  19.9161  19.9162  19.9538

          k = 0.0546 0.1639 0.2731 ( 13201 PWs)   bands (ev):

   -53.3508 -53.2741 -53.2455 -53.2207 -53.2183 -53.2059 -53.2007 -53.1979
   -53.1950 -53.1941 -53.1908 -53.1869 -53.1858 -53.1762 -53.1536 -53.0928
   -24.9714 -24.9571 -24.9563 -24.9487 -24.9389 -24.9139 -24.7956 -24.7940
   -24.7858 -24.7764 -24.7753 -24.7682 -24.7374 -24.7307 -24.6910 -24.6701
   -24.6116 -24.5934 -24.5540 -24.5481 -24.5421 -24.5402 -24.5116 -24.5000
   -24.4974 -24.4881 -24.4807 -24.4637 -24.4625 -24.4465 -24.4353 -24.4201
   -24.4096 -24.3969 -24.3795 -24.3635 -24.3415 -24.3182 -24.3179 -24.3097
   -24.2783 -24.2559 -24.2556 -24.2496 -24.2385 -24.2379 -24.2173 -24.2140
    11.3483  13.3132  14.0127  14.2738  14.4907  14.5819  14.6076  14.6357
    14.6466  14.6944  14.7513  14.7751  14.9847  15.1896  15.2821  15.7898
    15.8286  15.8820  16.1556  16.2174  16.2494  16.2521  16.2529  16.3679
    16.3934  16.4307  16.4869  16.6123  16.7423  16.7483  16.8079  17.1270
    17.3291  17.4381  17.4456  17.5038  17.5234  17.5663  17.6179  17.7355
    17.8403  17.9579  18.0398  18.0978  18.1738  18.2278  18.2384  18.3772
    18.4699  18.5851  18.6098  18.6640  18.6906  18.8607  18.8632  19.2442
    19.3904  19.4282  19.4574  19.5168  19.5523  19.5960  19.6423  19.6813
    19.8440  19.9018  19.9052  19.9311  19.9780  19.9828

          k = 0.0546 0.1639 0.3823 ( 13180 PWs)   bands (ev):

   -53.3366 -53.2974 -53.2402 -53.2261 -53.2176 -53.2098 -53.1985 -53.1969
   -53.1952 -53.1932 -53.1924 -53.1885 -53.1821 -53.1775 -53.1339 -53.1033
   -24.9408 -24.9232 -24.9207 -24.9186 -24.8967 -24.8624 -24.8497 -24.8382
   -24.8297 -24.8264 -24.7917 -24.7913 -24.7841 -24.7369 -24.7057 -24.6595
   -24.6358 -24.5850 -24.5836 -24.5405 -24.5337 -24.5257 -24.5106 -24.5091
   -24.5002 -24.4959 -24.4846 -24.4633 -24.4629 -24.4265 -24.4137 -24.3977
   -24.3675 -24.3619 -24.3531 -24.3417 -24.3239 -24.3124 -24.3080 -24.2819
   -24.2814 -24.2811 -24.2805 -24.2786 -24.2600 -24.2553 -24.2301 -24.2283
    11.7152  12.7242  14.1264  14.2560  14.5647  14.6335  14.7431  14.8135
    14.9185  14.9233  14.9630  14.9635  14.9730  15.1254  15.2437  15.4933
    15.5743  15.5986  16.1163  16.1644  16.1710  16.1965  16.4516  16.5270
    16.5453  16.5735  16.6023  16.7389  16.8439  16.9906  17.0369  17.0995
    17.1875  17.2236  17.2548  17.3029  17.4507  17.4588  17.4750  17.4845
    17.5406  17.5929  17.5948  17.7265  17.8090  17.8124  18.2085  18.6172
    18.6297  18.7976  18.8044  18.8762  18.8828  18.9042  19.0899  19.1758
    19.1772  19.2734  19.3585  19.4075  19.5506  19.6671  19.6971  19.7777
    19.8040  19.8305  19.8389  19.9119  19.9739  19.9766

          k = 0.0546 0.1639-0.4916 ( 13188 PWs)   bands (ev):

   -53.3187 -53.3184 -53.2337 -53.2334 -53.2140 -53.2137 -53.1962 -53.1960
   -53.1958 -53.1957 -53.1907 -53.1902 -53.1796 -53.1792 -53.1173 -53.1169
   -24.8993 -24.8993 -24.8811 -24.8807 -24.8802 -24.8799 -24.8761 -24.8760
   -24.8465 -24.8464 -24.8024 -24.8023 -24.7912 -24.7911 -24.6739 -24.6736
   -24.6237 -24.6235 -24.5553 -24.5550 -24.5230 -24.5227 -24.5216 -24.5213
   -24.5034 -24.5031 -24.4633 -24.4630 -24.4214 -24.4213 -24.4195 -24.4192
   -24.3525 -24.3524 -24.3204 -24.3201 -24.3141 -24.3138 -24.3076 -24.3075
   -24.2893 -24.2889 -24.2788 -24.2787 -24.2517 -24.2516 -24.2515 -24.2514
    12.1810  12.1814  14.2117  14.2120  14.6241  14.6243  14.8793  14.8795
    14.9847  14.9849  15.1055  15.1058  15.2016  15.2020  15.2535  15.2539
    15.2743  15.2747  16.1311  16.1314  16.1579  16.1581  16.6924  16.6925
    16.7056  16.7058  16.7514  16.7515  16.7889  16.7892  17.1591  17.1592
    17.1842  17.1844  17.2457  17.2458  17.3594  17.3596  17.3995  17.3996
    17.4394  17.4395  17.4422  17.4423  17.5688  17.5690  18.4031  18.4033
    18.9112  18.9115  18.9402  18.9402  19.0860  19.0861  19.1420  19.1420
    19.1637  19.1638  19.1861  19.1861  19.5354  19.5356  19.7486  19.7490
    19.7659  19.7663  19.8986  19.8989  19.9720  19.9723

          k = 0.0546 0.2731 0.2731 ( 13186 PWs)   bands (ev):

   -53.3415 -53.2689 -53.2688 -53.2300 -53.2185 -53.2042 -53.2040 -53.1971
   -53.1939 -53.1938 -53.1930 -53.1877 -53.1771 -53.1558 -53.1557 -53.0993
   -24.9618 -24.9362 -24.9361 -24.9224 -24.9223 -24.8678 -24.8161 -24.8160
   -24.8159 -24.8040 -24.8003 -24.7980 -24.7662 -24.7151 -24.6573 -24.6129
   -24.6107 -24.6106 -24.5852 -24.5851 -24.5469 -24.5243 -24.5185 -24.5101
   -24.5099 -24.4918 -24.4917 -24.4793 -24.4792 -24.4722 -24.4173 -24.3864
   -24.3690 -24.3689 -24.3645 -24.3592 -24.3509 -24.3187 -24.3118 -24.2824
   -24.2823 -24.2658 -24.2657 -24.2548 -24.2547 -24.2519 -24.2125 -24.2093
    11.5929  13.4626  13.4626  14.1588  14.6909  14.6937  14.6937  14.7995
    14.7995  14.8040  14.8573  14.9209  15.0783  15.3082  15.3082  15.7220
    15.7941  15.9300  15.9300  16.2166  16.2972  16.3126  16.3126  16.3592
    16.3592  16.3898  16.4521  16.6080  16.6862  16.7861  16.8148  17.2178
    17.2179  17.3315  17.3337  17.3337  17.3376  17.3886  17.4319  17.5754
    17.7553  17.7553  17.8124  17.8124  17.9491  18.1105  18.1105  18.2327
    18.6819  18.6820  18.7503  18.7935  18.8290  18.8290  19.0849  19.1911
    19.1911  19.3842  19.4882  19.4882  19.5277  19.5470  19.5470  19.5618
    19.6515  19.8497  19.8535  19.8576  19.9738  19.9827

          k = 0.0546 0.2731 0.3823 ( 13180 PWs)   bands (ev):

   -53.3280 -53.2909 -53.2614 -53.2414 -53.2154 -53.2079 -53.2016 -53.1961
   -53.1958 -53.1941 -53.1923 -53.1889 -53.1698 -53.1591 -53.1375 -53.1090
   -24.9392 -24.9072 -24.9059 -24.8993 -24.8872 -24.8635 -24.8430 -24.8333
   -24.8331 -24.8256 -24.8180 -24.8113 -24.8043 -24.6915 -24.6790 -24.6254
   -24.6199 -24.5957 -24.5728 -24.5466 -24.5386 -24.5382 -24.5363 -24.5362
   -24.5294 -24.5198 -24.4989 -24.4795 -24.4777 -24.4421 -24.4174 -24.4014
   -24.3770 -24.3507 -24.3475 -24.3326 -24.3319 -24.3232 -24.2967 -24.2820
   -24.2801 -24.2791 -24.2725 -24.2646 -24.2523 -24.2520 -24.2166 -24.2147
    11.9467  12.9094  13.6529  14.0208  14.7633  14.7835  14.9305  14.9697
    14.9741  15.0026  15.0598  15.1183  15.1206  15.2516  15.2837  15.5881
    15.5990  15.6292  16.1652  16.1896  16.2384  16.2491  16.2808  16.3952
    16.4357  16.4757  16.5457  16.5721  16.8481  16.9109  16.9452  16.9685
    17.0804  17.1846  17.2097  17.2580  17.2804  17.2958  17.3612  17.4018
    17.4149  17.4727  17.4888  17.5255  17.6121  17.7398  18.4262  18.4471
    18.8206  18.8564  18.9322  18.9501  18.9645  18.9757  18.9767  19.0492
    19.1690  19.2632  19.3432  19.3934  19.4256  19.5347  19.5737  19.6083
    19.6766  19.7143  19.7689  19.7767  19.8850  19.9788

          k = 0.0546 0.2731-0.4916 ( 13188 PWs)   bands (ev):

   -53.3111 -53.3107 -53.2523 -53.2519 -53.2119 -53.2116 -53.1989 -53.1986
   -53.1952 -53.1948 -53.1908 -53.1903 -53.1639 -53.1636 -53.1220 -53.1217
   -24.9058 -24.9057 -24.8721 -24.8720 -24.8718 -24.8716 -24.8701 -24.8700
   -24.8462 -24.8461 -24.8259 -24.8258 -24.7473 -24.7472 -24.6615 -24.6611
   -24.5796 -24.5795 -24.5688 -24.5686 -24.5571 -24.5568 -24.5272 -24.5270
   -24.5195 -24.5193 -24.4810 -24.4809 -24.4796 -24.4794 -24.3946 -24.3946
   -24.3881 -24.3878 -24.3107 -24.3104 -24.3047 -24.3045 -24.2996 -24.2994
   -24.2993 -24.2992 -24.2784 -24.2783 -24.2299 -24.2299 -24.2292 -24.2292
    12.3932  12.3937  13.8487  13.8491  14.8070  14.8072  15.0553  15.0555
    15.1271  15.1274  15.1610  15.1614  15.2965  15.2969  15.3464  15.3467
    15.3587  15.3591  16.1985  16.1987  16.2268  16.2270  16.4911  16.4914
    16.5086  16.5089  16.5272  16.5275  16.7473  16.7474  17.1359  17.1360
    17.1603  17.1604  17.1712  17.1712  17.2032  17.2033  17.2343  17.2343
    17.3720  17.3721  17.3897  17.3898  17.4736  17.4738  18.6798  18.6799
    18.7832  18.7832  18.8591  18.8591  19.0699  19.0701  19.1679  19.1680
    19.1918  19.1919  19.2333  19.2334  19.3426  19.3428  19.6720  19.6723
    19.6898  19.6901  19.8336  19.8339  19.8629  19.8629

          k = 0.0546 0.3823 0.3823 ( 13191 PWs)   bands (ev):

   -53.3156 -53.2816 -53.2815 -53.2562 -53.2125 -53.2053 -53.2052 -53.1989
   -53.1949 -53.1928 -53.1927 -53.1899 -53.1590 -53.1429 -53.1428 -53.1176
   -24.9250 -24.8862 -24.8861 -24.8747 -24.8746 -24.8658 -24.8657 -24.8507
   -24.8458 -24.8452 -24.8410 -24.8235 -24.7509 -24.6700 -24.6148 -24.6148
   -24.6095 -24.6094 -24.5923 -24.5774 -24.5651 -24.5481 -24.5480 -24.5452
   -24.5297 -24.4989 -24.4987 -24.4899 -24.4875 -24.4874 -24.4804 -24.3934
   -24.3789 -24.3439 -24.3438 -24.3227 -24.3130 -24.3063 -24.2909 -24.2873
   -24.2859 -24.2858 -24.2790 -24.2790 -24.2297 -24.2295 -24.2117 -24.2101
    12.2791  13.1623  13.1624  13.7494  14.9426  15.0297  15.0297  15.1041
    15.1042  15.1757  15.1757  15.2486  15.2685  15.2685  15.3391  15.5212
    15.5618  15.8775  15.8775  16.2328  16.2525  16.2906  16.3355  16.3355
    16.3451  16.3451  16.4197  16.5565  16.6583  16.7871  16.8980  16.9860
    16.9861  17.0794  17.1555  17.1556  17.1601  17.1601  17.1935  17.1935
    17.3408  17.3408  17.3541  17.4535  17.4543  18.0442  18.0442  18.7051
    18.7731  18.8629  18.9247  18.9247  19.0952  19.0952  19.1159  19.1238
    19.2567  19.2567  19.3047  19.3922  19.4127  19.4448  19.4449  19.4698
    19.4698  19.6758  19.6826  19.6856  19.7943  19.8977

          k = 0.0546 0.3823-0.4916 ( 13192 PWs)   bands (ev):

   -53.3000 -53.2997 -53.2700 -53.2696 -53.2091 -53.2088 -53.2023 -53.2020
   -53.1939 -53.1935 -53.1915 -53.1911 -53.1502 -53.1498 -53.1291 -53.1287
   -24.8998 -24.8997 -24.8646 -24.8644 -24.8643 -24.8641 -24.8618 -24.8616
   -24.8577 -24.8577 -24.8481 -24.8479 -24.6842 -24.6841 -24.6424 -24.6420
   -24.5892 -24.5888 -24.5746 -24.5745 -24.5514 -24.5513 -24.5476 -24.5475
   -24.5328 -24.5327 -24.5169 -24.5168 -24.4967 -24.4966 -24.4393 -24.4392
   -24.3597 -24.3593 -24.3150 -24.3147 -24.2989 -24.2987 -24.2971 -24.2969
   -24.2937 -24.2936 -24.2815 -24.2814 -24.2160 -24.2159 -24.2154 -24.2154
    12.6929  12.6933  13.4536  13.4540  15.0342  15.0344  15.2049  15.2052
    15.2063  15.2066  15.2648  15.2650  15.3119  15.3122  15.4175  15.4178
    15.5976  15.5980  16.1989  16.1993  16.2591  16.2592  16.2606  16.2607
    16.3168  16.3171  16.3790  16.3792  16.7987  16.7988  16.9274  16.9275
    17.0136  17.0136  17.0233  17.0233  17.0498  17.0499  17.0852  17.0852
    17.3508  17.3508  17.3926  17.3928  17.6809  17.6810  18.3920  18.3921
    18.8539  18.8540  18.9749  18.9749  19.1247  19.1248  19.2310  19.2312
    19.2893  19.2894  19.2970  19.2972  19.2973  19.2974  19.5621  19.5623
    19.5734  19.5737  19.5812  19.5812  19.7597  19.7600

          k = 0.0546-0.4916-0.4916 ( 13224 PWs)   bands (ev):

   -53.2862 -53.2861 -53.2859 -53.2857 -53.2058 -53.2057 -53.2056 -53.2054
   -53.1927 -53.1926 -53.1923 -53.1922 -53.1385 -53.1384 -53.1382 -53.1381
   -24.8832 -24.8830 -24.8829 -24.8829 -24.8618 -24.8618 -24.8616 -24.8616
   -24.8533 -24.8533 -24.8531 -24.8530 -24.6180 -24.6179 -24.6176 -24.6176
   -24.6165 -24.6165 -24.6165 -24.6164 -24.5690 -24.5689 -24.5688 -24.5688
   -24.5101 -24.5100 -24.5099 -24.5099 -24.4857 -24.4857 -24.4856 -24.4856
   -24.3351 -24.3351 -24.3348 -24.3348 -24.2932 -24.2931 -24.2930 -24.2930
   -24.2886 -24.2886 -24.2885 -24.2884 -24.2110 -24.2109 -24.2108 -24.2108
    13.0567  13.0567  13.0571  13.0572  15.2268  15.2268  15.2271  15.2271
    15.2295  15.2295  15.2297  15.2298  15.4116  15.4117  15.4118  15.4119
    15.8868  15.8868  15.8871  15.8872  16.2448  16.2449  16.2450  16.2451
    16.2955  16.2955  16.2956  16.2956  16.9016  16.9017  16.9017  16.9018
    16.9063  16.9063  16.9063  16.9064  16.9946  16.9947  16.9947  16.9947
    17.3499  17.3499  17.3500  17.3500  18.0190  18.0190  18.0190  18.0190
    18.9471  18.9471  18.9472  18.9472  19.2722  19.2722  19.2722  19.2722
    19.3285  19.3285  19.3287  19.3287  19.4286  19.4287  19.4288  19.4289
    19.4343  19.4343  19.4345  19.4345  19.7341  19.7344

          k = 0.1639 0.1639 0.1639 ( 13223 PWs)   bands (ev):

   -53.3558 -53.2475 -53.2475 -53.2473 -53.2095 -53.2095 -53.2093 -53.1911
   -53.1901 -53.1901 -53.1899 -53.1853 -53.1758 -53.1758 -53.1757 -53.0892
   -24.9771 -24.9769 -24.9769 -24.9454 -24.9454 -24.9452 -24.7811 -24.7672
   -24.7672 -24.7660 -24.7660 -24.7658 -24.6955 -24.6955 -24.6908 -24.6388
   -24.6388 -24.6387 -24.5586 -24.5584 -24.5584 -24.4968 -24.4968 -24.4966
   -24.4934 -24.4934 -24.4612 -24.4612 -24.4611 -24.4525 -24.4525 -24.4523
   -24.4109 -24.4108 -24.4108 -24.4061 -24.3365 -24.3365 -24.3363 -24.2969
   -24.2558 -24.2558 -24.2557 -24.2247 -24.2245 -24.2245 -24.2170 -24.2170
    11.2227  13.9750  13.9751  13.9751  14.3996  14.3996  14.3996  14.6039
    14.6039  14.6039  14.7004  14.7004  15.2224  15.2224  15.2224  15.8241
    16.1477  16.1477  16.1728  16.1728  16.1728  16.2810  16.2810  16.2810
    16.3977  16.3977  16.3977  16.4591  16.5306  16.5306  17.1040  17.1040
    17.1041  17.5271  17.5271  17.5272  17.5520  17.5520  17.9846  17.9846
    17.9846  18.0218  18.1068  18.1068  18.1068  18.3866  18.3867  18.3867
    18.4452  18.4453  18.4453  18.6931  18.6931  18.6931  19.3381  19.3381
    19.3381  19.4340  19.4340  19.4340  19.5606  19.5606  19.6151  19.6151
    19.6151  19.9153  19.9154  19.9154  19.9549  19.9549

          k = 0.1639 0.1639 0.2731 ( 13184 PWs)   bands (ev):

   -53.3462 -53.2714 -53.2437 -53.2436 -53.2171 -53.2169 -53.2073 -53.1941
   -53.1891 -53.1856 -53.1855 -53.1852 -53.1765 -53.1764 -53.1546 -53.0960
   -24.9599 -24.9598 -24.9530 -24.9283 -24.9080 -24.9079 -24.8113 -24.8044
   -24.8042 -24.7876 -24.7839 -24.7599 -24.7494 -24.6885 -24.6884 -24.6625
   -24.6596 -24.6060 -24.5801 -24.5605 -24.5603 -24.5208 -24.5132 -24.5131
   -24.5044 -24.5037 -24.4642 -24.4411 -24.4410 -24.4305 -24.4198 -24.4197
   -24.4150 -24.4149 -24.3697 -24.3651 -24.3406 -24.3068 -24.3066 -24.3005
   -24.2784 -24.2783 -24.2662 -24.2468 -24.2329 -24.2277 -24.2276 -24.2175
    11.4720  13.3983  14.0919  14.0920  14.3855  14.3855  14.6101  14.7446
    14.7446  14.7928  14.8229  14.8351  15.2664  15.2664  15.3455  15.7370
    15.8320  15.9865  16.1143  16.1967  16.1967  16.2413  16.3333  16.3663
    16.3663  16.3727  16.5530  16.5531  16.5644  16.7576  16.9551  16.9551
    17.2764  17.3280  17.3281  17.4274  17.4632  17.5225  17.6656  17.6656
    17.7040  17.7040  17.9004  18.0113  18.0114  18.0369  18.1880  18.1955
    18.5187  18.6386  18.6387  18.7934  18.7934  18.9672  19.0837  19.3014
    19.3014  19.4238  19.5106  19.5484  19.5484  19.5815  19.6368  19.6401
    19.6401  19.6408  19.8954  19.9011  19.9223  19.9521

          k = 0.1639 0.1639 0.3823 ( 13182 PWs)   bands (ev):

   -53.3323 -53.2942 -53.2385 -53.2384 -53.2247 -53.2246 -53.2045 -53.1975
   -53.1880 -53.1858 -53.1821 -53.1819 -53.1777 -53.1775 -53.1356 -53.1061
   -24.9312 -24.9310 -24.9179 -24.9042 -24.8602 -24.8601 -24.8491 -24.8490
   -24.8431 -24.8198 -24.7992 -24.7957 -24.7462 -24.7461 -24.7231 -24.6503
   -24.6264 -24.6248 -24.5547 -24.5546 -24.5526 -24.5468 -24.5292 -24.5291
   -24.5173 -24.5026 -24.4788 -24.4320 -24.4319 -24.4193 -24.4192 -24.3943
   -24.3786 -24.3785 -24.3727 -24.3358 -24.3234 -24.3068 -24.3068 -24.2831
   -24.2797 -24.2785 -24.2783 -24.2695 -24.2565 -24.2379 -24.2377 -24.2269
    11.8335  12.8236  14.2195  14.2195  14.3672  14.3673  14.9058  14.9113
    14.9113  15.0029  15.0090  15.0496  15.2198  15.2198  15.3178  15.5154
    15.5857  15.6404  16.1177  16.1931  16.2441  16.2633  16.3618  16.3618
    16.5058  16.5058  16.7264  16.7264  16.8420  16.8420  16.8480  17.0266
    17.1782  17.1783  17.2439  17.2439  17.3726  17.3746  17.3970  17.4083
    17.4083  17.4832  17.5693  17.5693  17.6069  17.6264  18.3802  18.4699
    18.7406  18.8323  18.9036  18.9036  18.9225  18.9226  19.1622  19.1622
    19.1879  19.2292  19.2972  19.4028  19.4029  19.6084  19.6931  19.7414
    19.8126  19.8333  19.9167  19.9168  19.9310  19.9471

          k = 0.1639 0.1639-0.4916 ( 13160 PWs)   bands (ev):

   -53.3149 -53.3146 -53.2321 -53.2320 -53.2318 -53.2317 -53.2013 -53.2010
   -53.1870 -53.1866 -53.1796 -53.1795 -53.1793 -53.1792 -53.1195 -53.1192
   -24.8930 -24.8929 -24.8929 -24.8928 -24.8751 -24.8748 -24.8732 -24.8728
   -24.8051 -24.8050 -24.8050 -24.8049 -24.8014 -24.8013 -24.6899 -24.6896
   -24.5889 -24.5887 -24.5872 -24.5871 -24.5437 -24.5436 -24.5434 -24.5433
   -24.4932 -24.4929 -24.4543 -24.4542 -24.4250 -24.4249 -24.4247 -24.4246
   -24.3405 -24.3404 -24.3403 -24.3403 -24.3220 -24.3217 -24.3065 -24.3062
   -24.2870 -24.2867 -24.2550 -24.2549 -24.2548 -24.2548 -24.2446 -24.2445
    12.2913  12.2918  14.3168  14.3168  14.3171  14.3171  15.0828  15.0828
    15.0830  15.0830  15.1863  15.1866  15.2358  15.2362  15.2613  15.2617
    15.3356  15.3359  16.1477  16.1480  16.2181  16.2183  16.6472  16.6472
    16.6475  16.6475  16.6815  16.6815  16.6816  16.6817  17.1587  17.1587
    17.1588  17.1588  17.2028  17.2029  17.2602  17.2602  17.2603  17.2603
    17.3238  17.3239  17.3641  17.3641  17.4358  17.4361  18.5957  18.5958
    18.8076  18.8076  18.9923  18.9926  19.0273  19.0273  19.0273  19.0273
    19.1871  19.1872  19.1872  19.1873  19.6646  19.6648  19.7133  19.7136
    19.7604  19.7608  19.8671  19.8674  19.9396  19.9399

          k = 0.1639 0.2731 0.2731 ( 13178 PWs)   bands (ev):

   -53.3371 -53.2664 -53.2663 -53.2401 -53.2284 -53.2146 -53.2145 -53.1982
   -53.1851 -53.1850 -53.1841 -53.1771 -53.1770 -53.1567 -53.1566 -53.1022
   -24.9500 -24.9373 -24.9372 -24.8966 -24.8965 -24.8650 -24.8280 -24.8227
   -24.8211 -24.8209 -24.7944 -24.7727 -24.7452 -24.7215 -24.6778 -24.6315
   -24.6315 -24.6234 -24.6076 -24.6075 -24.5761 -24.5416 -24.5415 -24.5383
   -24.4829 -24.4614 -24.4614 -24.4512 -24.4511 -24.4215 -24.4208 -24.4064
   -24.3877 -24.3860 -24.3701 -24.3700 -24.3430 -24.3065 -24.2905 -24.2809
   -24.2808 -24.2764 -24.2762 -24.2481 -24.2480 -24.2427 -24.2233 -24.2177
    11.7142  13.5545  13.5546  14.2307  14.2747  14.6011  14.6011  14.9011
    14.9295  14.9295  14.9345  14.9735  15.3701  15.4004  15.4004  15.7028
    15.9037  15.9037  15.9240  16.1453  16.1758  16.3181  16.3182  16.4156
    16.4248  16.4382  16.4544  16.4544  16.7283  16.7320  16.7894  17.0919
    17.0919  17.2150  17.2616  17.2616  17.2919  17.3611  17.4552  17.5007
    17.5282  17.5282  17.6708  17.6708  17.7349  17.8720  17.8720  18.3905
    18.7529  18.7530  18.7941  18.9264  18.9989  18.9990  19.1718  19.1855
    19.3977  19.3977  19.4029  19.4030  19.4298  19.5318  19.5740  19.5740
    19.6053  19.8589  19.8612  19.8621  19.8659  19.9352

          k = 0.1639 0.2731 0.3823 ( 13187 PWs)   bands (ev):

   -53.3239 -53.2878 -53.2590 -53.2396 -53.2350 -53.2218 -53.2111 -53.2026
   -53.1844 -53.1837 -53.1818 -53.1779 -53.1700 -53.1599 -53.1390 -53.1116
   -24.9283 -24.9124 -24.9045 -24.8812 -24.8598 -24.8563 -24.8499 -24.8453
   -24.8265 -24.8164 -24.8125 -24.8107 -24.7643 -24.7224 -24.6916 -24.6535
   -24.6513 -24.5988 -24.5849 -24.5807 -24.5777 -24.5695 -24.5619 -24.5605
   -24.5031 -24.4792 -24.4628 -24.4442 -24.4411 -24.4276 -24.4181 -24.4036
   -24.3781 -24.3608 -24.3532 -24.3395 -24.3293 -24.3195 -24.3002 -24.2879
   -24.2780 -24.2748 -24.2645 -24.2538 -24.2529 -24.2513 -24.2265 -24.2217
    12.0641  13.0124  13.7542  14.1368  14.3883  14.5805  14.9041  15.0682
    15.0850  15.0945  15.1642  15.1763  15.3543  15.3827  15.3830  15.6258
    15.6289  15.6414  16.1254  16.1745  16.2253  16.2598  16.3131  16.3491
    16.4367  16.5392  16.5541  16.6242  16.6728  16.8306  16.8907  16.8956
    17.0078  17.0835  17.1531  17.1729  17.1863  17.2606  17.2722  17.2828
    17.2947  17.3081  17.3355  17.3952  17.4316  17.5493  18.1055  18.6192
    18.7859  18.9275  18.9945  19.0096  19.0117  19.0525  19.0687  19.1333
    19.2753  19.2872  19.3091  19.4322  19.4335  19.5287  19.6311  19.6834
    19.7253  19.7736  19.7894  19.8753  19.9320  19.9325

          k = 0.1639 0.2731-0.4916 ( 13176 PWs)   bands (ev):

   -53.3074 -53.3071 -53.2501 -53.2498 -53.2290 -53.2286 -53.2072 -53.2069
   -53.1841 -53.1837 -53.1797 -53.1793 -53.1645 -53.1641 -53.1241 -53.1237
   -24.8972 -24.8971 -24.8817 -24.8816 -24.8636 -24.8634 -24.8633 -24.8631
   -24.8225 -24.8224 -24.8109 -24.8108 -24.7535 -24.7534 -24.6902 -24.6899
   -24.6168 -24.6166 -24.5829 -24.5827 -24.5747 -24.5745 -24.5446 -24.5445
   -24.5058 -24.5057 -24.4733 -24.4730 -24.4338 -24.4335 -24.3894 -24.3891
   -24.3770 -24.3769 -24.3244 -24.3243 -24.3163 -24.3160 -24.3008 -24.3006
   -24.2939 -24.2936 -24.2619 -24.2618 -24.2367 -24.2367 -24.2329 -24.2328
    12.5047  12.5051  13.9593  13.9596  14.5141  14.5144  15.2284  15.2286
    15.2536  15.2539  15.2637  15.2639  15.2665  15.2669  15.3835  15.3839
    15.4360  15.4363  16.2056  16.2058  16.2820  16.2821  16.4470  16.4473
    16.4628  16.4632  16.5679  16.5681  16.7013  16.7014  16.9347  16.9348
    17.0866  17.0866  17.1120  17.1122  17.1145  17.1146  17.1916  17.1917
    17.2285  17.2286  17.2480  17.2481  17.3314  17.3315  18.4160  18.4160
    18.8670  18.8671  19.0093  19.0094  19.1277  19.1279  19.1705  19.1706
    19.2371  19.2373  19.2466  19.2468  19.6027  19.6029  19.6580  19.6583
    19.7073  19.7076  19.8096  19.8099  19.9101  19.9104

          k = 0.1639 0.3823 0.3823 ( 13194 PWs)   bands (ev):

   -53.3118 -53.2787 -53.2786 -53.2540 -53.2303 -53.2180 -53.2178 -53.2079
   -53.1825 -53.1817 -53.1816 -53.1786 -53.1597 -53.1442 -53.1441 -53.1198
   -24.9137 -24.8865 -24.8864 -24.8592 -24.8590 -24.8556 -24.8521 -24.8520
   -24.8466 -24.8311 -24.8296 -24.7899 -24.7562 -24.7042 -24.6542 -24.6397
   -24.6396 -24.6306 -24.6306 -24.6000 -24.5970 -24.5968 -24.5925 -24.5432
   -24.5030 -24.4687 -24.4591 -24.4591 -24.4517 -24.4515 -24.4360 -24.3788
   -24.3763 -24.3410 -24.3409 -24.3343 -24.3298 -24.3066 -24.2968 -24.2968
   -24.2830 -24.2753 -24.2752 -24.2729 -24.2353 -24.2351 -24.2221 -24.2191
    12.3947  13.2704  13.2705  13.8662  14.5933  14.8747  14.8747  15.1908
    15.2045  15.3323  15.3323  15.3707  15.3707  15.3776  15.5013  15.5212
    15.6501  15.8769  15.8769  16.1485  16.2397  16.2942  16.3556  16.3556
    16.3839  16.3839  16.5381  16.5490  16.5611  16.6256  16.8496  16.9409
    16.9410  16.9523  17.0109  17.0110  17.0781  17.0781  17.1208  17.1392
    17.1664  17.2005  17.2005  17.2812  17.3194  17.7537  17.7537  18.3917
    18.8853  19.0326  19.1345  19.1346  19.1642  19.1697  19.1697  19.2019
    19.3475  19.4283  19.4358  19.4358  19.4627  19.4627  19.5058  19.5058
    19.6617  19.6970  19.7003  19.7047  19.7947  19.8880

          k = 0.1639 0.3823-0.4916 ( 13176 PWs)   bands (ev):

   -53.2967 -53.2963 -53.2674 -53.2670 -53.2246 -53.2243 -53.2133 -53.2130
   -53.1820 -53.1817 -53.1800 -53.1796 -53.1512 -53.1508 -53.1309 -53.1305
   -24.8897 -24.8896 -24.8685 -24.8684 -24.8567 -24.8564 -24.8487 -24.8486
   -24.8486 -24.8485 -24.8204 -24.8203 -24.6943 -24.6942 -24.6755 -24.6752
   -24.6315 -24.6313 -24.6192 -24.6189 -24.6055 -24.6054 -24.5666 -24.5665
   -24.5010 -24.5009 -24.4610 -24.4608 -24.4435 -24.4434 -24.4163 -24.4163
   -24.3576 -24.3573 -24.3106 -24.3105 -24.3091 -24.3088 -24.3035 -24.3033
   -24.2989 -24.2987 -24.2733 -24.2732 -24.2250 -24.2250 -24.2236 -24.2235
    12.8057  12.8061  13.5670  13.5674  14.7728  14.7730  15.2087  15.2091
    15.2992  15.2995  15.3080  15.3083  15.4823  15.4824  15.5552  15.5554
    15.6229  15.6233  16.1987  16.1990  16.2616  16.2619  16.2772  16.2773
    16.2849  16.2850  16.4479  16.4482  16.7364  16.7365  16.7615  16.7616
    16.8889  16.8891  16.9457  16.9459  17.0122  17.0123  17.0294  17.0294
    17.1973  17.1973  17.2518  17.2519  17.4363  17.4364  18.0384  18.0384
    19.0712  19.0712  19.1620  19.1620  19.2769  19.2771  19.3200  19.3202
    19.3293  19.3294  19.3405  19.3407  19.4178  19.4180  19.5797  19.5800
    19.6029  19.6032  19.7443  19.7446  19.7750  19.7752

          k = 0.1639-0.4916-0.4916 ( 13200 PWs)   bands (ev):

   -53.2832 -53.2831 -53.2828 -53.2827 -53.2193 -53.2192 -53.2190 -53.2188
   -53.1808 -53.1807 -53.1804 -53.1803 -53.1400 -53.1399 -53.1397 -53.1395
   -24.8725 -24.8724 -24.8723 -24.8723 -24.8585 -24.8585 -24.8583 -24.8582
   -24.8335 -24.8335 -24.8333 -24.8333 -24.6509 -24.6508 -24.6506 -24.6505
   -24.6308 -24.6308 -24.6308 -24.6307 -24.6273 -24.6272 -24.6270 -24.6270
   -24.4579 -24.4579 -24.4579 -24.4578 -24.4526 -24.4525 -24.4524 -24.4523
   -24.3307 -24.3307 -24.3304 -24.3304 -24.3019 -24.3019 -24.3017 -24.3017
   -24.2879 -24.2879 -24.2877 -24.2877 -24.2208 -24.2207 -24.2206 -24.2206
    13.1704  13.1705  13.1709  13.1709  15.0326  15.0327  15.0330  15.0330
    15.3252  15.3252  15.3255  15.3255  15.6133  15.6133  15.6135  15.6135
    15.9058  15.9059  15.9062  15.9062  16.1987  16.1987  16.1989  16.1989
    16.3562  16.3563  16.3564  16.3564  16.7365  16.7365  16.7366  16.7366
    16.8656  16.8656  16.8657  16.8657  16.9431  16.9431  16.9431  16.9431
    17.2029  17.2029  17.2030  17.2030  17.7046  17.7046  17.7046  17.7046
    19.2181  19.2181  19.2181  19.2182  19.3456  19.3456  19.3458  19.3458
    19.4708  19.4709  19.4710  19.4710  19.4718  19.4718  19.4721  19.4721
    19.4896  19.4896  19.4896  19.4896  19.7259  19.7261

          k = 0.2731 0.2731 0.2731 ( 13193 PWs)   bands (ev):

   -53.3284 -53.2615 -53.2615 -53.2613 -53.2254 -53.2254 -53.2252 -53.2039
   -53.1814 -53.1773 -53.1773 -53.1771 -53.1586 -53.1586 -53.1584 -53.1080
   -24.9269 -24.9268 -24.9268 -24.8601 -24.8601 -24.8599 -24.8356 -24.8336
   -24.8336 -24.8333 -24.7757 -24.7757 -24.7402 -24.7402 -24.6685 -24.6685
   -24.6684 -24.6261 -24.6260 -24.6260 -24.5843 -24.5721 -24.5721 -24.5719
   -24.4332 -24.4268 -24.4268 -24.4266 -24.4239 -24.4239 -24.4238 -24.4220
   -24.4220 -24.3738 -24.3736 -24.3736 -24.3242 -24.3005 -24.3005 -24.3004
   -24.2671 -24.2671 -24.2668 -24.2451 -24.2449 -24.2449 -24.2347 -24.2347
    11.9513  13.7246  13.7247  13.7247  14.4995  14.4996  14.4996  15.0770
    15.0770  15.0840  15.0840  15.0840  15.5361  15.5361  15.5361  15.7168
    15.8911  15.8911  15.8911  16.0213  16.1723  16.1723  16.3755  16.3755
    16.3755  16.5655  16.5655  16.5870  16.5870  16.5870  16.9345  16.9345
    16.9345  17.1228  17.1228  17.1229  17.2013  17.2013  17.2013  17.3093
    17.3093  17.4041  17.4041  17.4041  17.5800  17.5800  17.5800  18.6170
    18.7708  18.9075  18.9076  18.9076  19.1411  19.1411  19.1411  19.3175
    19.3175  19.3175  19.5152  19.5152  19.5645  19.5645  19.5646  19.6903
    19.6903  19.6903  19.8670  19.8671  19.8680  19.8704

          k = 0.2731 0.2731 0.3823 ( 13178 PWs)   bands (ev):

   -53.3159 -53.2817 -53.2545 -53.2544 -53.2360 -53.2359 -53.2210 -53.2099
   -53.1794 -53.1775 -53.1707 -53.1706 -53.1615 -53.1613 -53.1421 -53.1167
   -24.9070 -24.9068 -24.8930 -24.8548 -24.8546 -24.8539 -24.8417 -24.8326
   -24.8154 -24.8153 -24.8019 -24.7981 -24.7484 -24.7151 -24.7151 -24.7016
   -24.6723 -24.6302 -24.6301 -24.6140 -24.6096 -24.5994 -24.5993 -24.5439
   -24.4881 -24.4629 -24.4321 -24.4316 -24.4066 -24.4065 -24.3870 -24.3869
   -24.3805 -24.3804 -24.3663 -24.3300 -24.3246 -24.3245 -24.3095 -24.2977
   -24.2766 -24.2595 -24.2576 -24.2575 -24.2491 -24.2458 -24.2457 -24.2325
    12.2926  13.2086  13.9440  13.9441  14.3611  14.3611  14.8186  15.2276
    15.2540  15.2540  15.2591  15.3258  15.5457  15.5457  15.5513  15.6346
    15.6444  15.7064  16.0479  16.0479  16.2004  16.3137  16.3860  16.3911
    16.4371  16.4800  16.4800  16.6586  16.6587  16.7354  16.7782  16.7782
    16.9262  16.9262  17.0058  17.0058  17.0421  17.0523  17.0704  17.0839
    17.1477  17.1477  17.1859  17.2382  17.2998  17.2999  17.7403  18.3667
    18.8738  19.0628  19.1061  19.1061  19.2029  19.2029  19.2555  19.2555
    19.3868  19.4237  19.4342  19.4728  19.4728  19.4864  19.6253  19.6304
    19.7886  19.7899  19.8708  19.8708  19.8727  19.8755

          k = 0.2731 0.2731-0.4916 ( 13152 PWs)   bands (ev):

   -53.3003 -53.3000 -53.2460 -53.2459 -53.2457 -53.2456 -53.2159 -53.2156
   -53.1783 -53.1780 -53.1656 -53.1656 -53.1653 -53.1652 -53.1282 -53.1279
   -24.8812 -24.8811 -24.8811 -24.8810 -24.8498 -24.8494 -24.8477 -24.8475
   -24.8215 -24.8214 -24.7658 -24.7657 -24.7656 -24.7656 -24.7137 -24.7134
   -24.6584 -24.6582 -24.6200 -24.6199 -24.6198 -24.6197 -24.5482 -24.5482
   -24.5033 -24.5032 -24.4347 -24.4345 -24.3913 -24.3912 -24.3911 -24.3910
   -24.3536 -24.3535 -24.3534 -24.3534 -24.3175 -24.3172 -24.3007 -24.3005
   -24.2918 -24.2914 -24.2502 -24.2501 -24.2501 -24.2500 -24.2374 -24.2374
    12.7200  12.7205  14.1701  14.1701  14.1704  14.1705  15.2083  15.2087
    15.4193  15.4197  15.4201  15.4201  15.4202  15.4202  15.4377  15.4380
    15.5684  15.5687  16.2511  16.2514  16.3399  16.3400  16.3643  16.3643
    16.3647  16.3647  16.6209  16.6209  16.6211  16.6211  16.6958  16.6960
    16.9096  16.9098  17.0033  17.0034  17.0034  17.0035  17.0555  17.0555
    17.0556  17.0556  17.1064  17.1065  17.1520  17.1522  18.0104  18.0104
    19.1496  19.1497  19.2240  19.2240  19.2241  19.2241  19.2304  19.2306
    19.3063  19.3063  19.3065  19.3065  19.6498  19.6501  19.7040  19.7043
    19.7551  19.7553  19.7652  19.7655  19.8760  19.8763

          k = 0.2731 0.3823 0.3823 ( 13182 PWs)   bands (ev):

   -53.3044 -53.2731 -53.2730 -53.2496 -53.2480 -53.2309 -53.2307 -53.2174
   -53.1760 -53.1718 -53.1717 -53.1638 -53.1611 -53.1468 -53.1467 -53.1242
   -24.8917 -24.8765 -24.8764 -24.8533 -24.8481 -24.8479 -24.8348 -24.8202
   -24.8202 -24.8112 -24.8038 -24.7666 -24.7469 -24.7444 -24.7136 -24.6757
   -24.6756 -24.6595 -24.6594 -24.6528 -24.6425 -24.6423 -24.6340 -24.5421
   -24.5023 -24.4234 -24.4234 -24.4108 -24.4090 -24.4088 -24.3851 -24.3770
   -24.3573 -24.3535 -24.3466 -24.3378 -24.3377 -24.3123 -24.3122 -24.3045
   -24.2739 -24.2738 -24.2725 -24.2630 -24.2457 -24.2456 -24.2427 -24.2372
    12.6193  13.4770  13.4771  14.0919  14.1942  14.6763  14.6763  15.3519
    15.3958  15.4177  15.4525  15.4992  15.4992  15.5672  15.5672  15.7438
    15.7894  15.8694  15.8694  15.9960  16.2739  16.3494  16.3535  16.4063
    16.4063  16.4563  16.4563  16.5322  16.5659  16.6503  16.6623  16.8372
    16.8372  16.8379  16.8379  16.8452  16.8630  16.8631  16.8883  16.9952
    16.9952  17.0155  17.0559  17.0666  17.1362  17.3980  17.3980  17.9673
    19.1621  19.2270  19.2271  19.2491  19.2752  19.3562  19.4255  19.4255
    19.4296  19.4574  19.4574  19.4772  19.5460  19.5460  19.6139  19.7320
    19.7532  19.7533  19.7602  19.7937  19.8563  19.8671

          k = 0.2731 0.3823-0.4916 ( 13172 PWs)   bands (ev):

   -53.2901 -53.2898 -53.2623 -53.2620 -53.2401 -53.2398 -53.2246 -53.2243
   -53.1737 -53.1733 -53.1674 -53.1671 -53.1533 -53.1529 -53.1345 -53.1341
   -24.8701 -24.8700 -24.8609 -24.8607 -24.8392 -24.8389 -24.8319 -24.8318
   -24.8271 -24.8269 -24.7834 -24.7832 -24.7152 -24.7149 -24.7133 -24.7132
   -24.6844 -24.6843 -24.6612 -24.6610 -24.6574 -24.6572 -24.6005 -24.6005
   -24.4619 -24.4618 -24.4094 -24.4092 -24.3939 -24.3937 -24.3867 -24.3866
   -24.3538 -24.3535 -24.3321 -24.3320 -24.3092 -24.3089 -24.3055 -24.3053
   -24.3012 -24.3009 -24.2691 -24.2690 -24.2428 -24.2428 -24.2392 -24.2392
    13.0234  13.0239  13.7851  13.7855  14.4573  14.4577  15.0502  15.0506
    15.4767  15.4771  15.5032  15.5034  15.6708  15.6712  15.6721  15.6722
    15.7314  15.7317  16.1930  16.1934  16.2204  16.2207  16.3117  16.3118
    16.3332  16.3334  16.5250  16.5252  16.5531  16.5533  16.6943  16.6944
    16.7392  16.7394  16.7680  16.7682  16.8838  16.8838  16.9439  16.9440
    16.9652  16.9653  17.0524  17.0525  17.1070  17.1071  17.6288  17.6288
    19.3459  19.3460  19.3480  19.3482  19.3837  19.3839  19.4066  19.4069
    19.4288  19.4288  19.4705  19.4705  19.6364  19.6366  19.6382  19.6385
    19.7014  19.7015  19.7146  19.7149  19.7947  19.7950

          k = 0.2731-0.4916-0.4916 ( 13164 PWs)   bands (ev):

   -53.2773 -53.2772 -53.2770 -53.2768 -53.2329 -53.2328 -53.2326 -53.2324
   -53.1701 -53.1700 -53.1698 -53.1697 -53.1429 -53.1428 -53.1426 -53.1424
   -24.8515 -24.8514 -24.8513 -24.8513 -24.8433 -24.8432 -24.8430 -24.8430
   -24.8047 -24.8046 -24.8045 -24.8045 -24.6948 -24.6947 -24.6945 -24.6945
   -24.6835 -24.6834 -24.6833 -24.6833 -24.6570 -24.6570 -24.6569 -24.6569
   -24.4227 -24.4227 -24.4226 -24.4226 -24.3981 -24.3980 -24.3978 -24.3978
   -24.3229 -24.3229 -24.3226 -24.3226 -24.3159 -24.3159 -24.3157 -24.3157
   -24.2908 -24.2908 -24.2906 -24.2906 -24.2401 -24.2400 -24.2399 -24.2399
    13.3899  13.3899  13.3903  13.3904  14.7758  14.7759  14.7762  14.7762
    15.5129  15.5129  15.5132  15.5132  15.8478  15.8478  15.8479  15.8480
    15.9416  15.9416  15.9419  15.9420  16.1513  16.1513  16.1515  16.1516
    16.4306  16.4306  16.4307  16.4307  16.5887  16.5887  16.5888  16.5888
    16.7611  16.7612  16.7612  16.7612  16.7991  16.7991  16.7992  16.7992
    16.9873  16.9873  16.9874  16.9874  17.3118  17.3118  17.3118  17.3118
    19.4189  19.4189  19.4191  19.4192  19.5239  19.5239  19.5240  19.5240
    19.5259  19.5260  19.5262  19.5262  19.5738  19.5738  19.5740  19.5740
    19.7080  19.7080  19.7083  19.7083  19.8059  19.8062

          k = 0.3823 0.3823 0.3823 ( 13184 PWs)   bands (ev):

   -53.2938 -53.2650 -53.2650 -53.2649 -53.2434 -53.2434 -53.2432 -53.2268
   -53.1707 -53.1633 -53.1633 -53.1632 -53.1509 -53.1509 -53.1507 -53.1309
   -24.8595 -24.8593 -24.8593 -24.8393 -24.8393 -24.8391 -24.8181 -24.7824
   -24.7824 -24.7816 -24.7816 -24.7815 -24.7688 -24.7688 -24.7020 -24.7018
   -24.7018 -24.6972 -24.6972 -24.6971 -24.6806 -24.6806 -24.6804 -24.5906
   -24.4620 -24.3889 -24.3889 -24.3888 -24.3737 -24.3737 -24.3735 -24.3577
   -24.3577 -24.3388 -24.3386 -24.3386 -24.3327 -24.3327 -24.3326 -24.3080
   -24.2728 -24.2726 -24.2726 -24.2636 -24.2636 -24.2583 -24.2583 -24.2581
    12.9386  13.7613  13.7614  13.7614  14.4092  14.4092  14.4092  15.1601
    15.5593  15.5593  15.6564  15.6564  15.6564  15.8404  15.8404  15.8404
    15.8428  15.8429  15.8429  15.9551  16.3322  16.3322  16.4083  16.4083
    16.4891  16.4892  16.4892  16.5036  16.5036  16.5036  16.5957  16.5957
    16.5957  16.7328  16.7328  16.7328  16.7602  16.7602  16.7602  16.8073
    16.8073  16.8074  16.9686  16.9686  17.0613  17.0613  17.0613  17.5661
    19.3510  19.3511  19.3511  19.4790  19.5182  19.5182  19.5182  19.5432
    19.5432  19.5554  19.5554  19.5554  19.5826  19.5826  19.5826  19.7573
    19.7573  19.7884  19.7884  19.7886  19.8070  19.8070

          k = 0.3823 0.3823-0.4916 ( 13170 PWs)   bands (ev):

   -53.2806 -53.2803 -53.2551 -53.2550 -53.2548 -53.2547 -53.2357 -53.2354
   -53.1666 -53.1663 -53.1565 -53.1564 -53.1562 -53.1560 -53.1399 -53.1396
   -24.8432 -24.8431 -24.8431 -24.8430 -24.8181 -24.8178 -24.8148 -24.8147
   -24.7996 -24.7994 -24.7457 -24.7453 -24.7393 -24.7393 -24.7392 -24.7391
   -24.7269 -24.7268 -24.7041 -24.7040 -24.7039 -24.7038 -24.6438 -24.6438
   -24.4239 -24.4238 -24.3672 -24.3671 -24.3585 -24.3584 -24.3583 -24.3583
   -24.3494 -24.3493 -24.3493 -24.3491 -24.3173 -24.3172 -24.3115 -24.3112
   -24.2978 -24.2974 -24.2682 -24.2682 -24.2681 -24.2680 -24.2585 -24.2585
    13.3297  13.3301  14.0881  14.0882  14.0885  14.0886  14.7857  14.7862
    15.6913  15.6917  15.7563  15.7566  15.7745  15.7745  15.7747  15.7748
    15.9294  15.9297  16.1685  16.1685  16.1688  16.1688  16.3549  16.3550
    16.4071  16.4074  16.4615  16.4618  16.4867  16.4868  16.6095  16.6095
    16.6097  16.6097  16.7281  16.7282  16.7283  16.7283  16.7834  16.7835
    16.7835  16.7835  16.8517  16.8518  16.8675  16.8677  17.2389  17.2389
    19.4530  19.4532  19.4778  19.4779  19.4781  19.4781  19.5904  19.5905
    19.5905  19.5905  19.6526  19.6529  19.6749  19.6751  19.7249  19.7251
    19.7765  19.7767  19.7793  19.7793  19.7796  19.7797

          k = 0.3823-0.4916-0.4916 ( 13156 PWs)   bands (ev):

   -53.2688 -53.2687 -53.2685 -53.2684 -53.2461 -53.2460 -53.2458 -53.2456
   -53.1610 -53.1609 -53.1606 -53.1605 -53.1473 -53.1472 -53.1470 -53.1468
   -24.8209 -24.8208 -24.8207 -24.8207 -24.8171 -24.8171 -24.8169 -24.8169
   -24.7692 -24.7691 -24.7690 -24.7690 -24.7400 -24.7400 -24.7398 -24.7397
   -24.7357 -24.7356 -24.7354 -24.7354 -24.6915 -24.6915 -24.6914 -24.6914
   -24.3890 -24.3890 -24.3889 -24.3888 -24.3483 -24.3482 -24.3481 -24.3481
   -24.3351 -24.3350 -24.3349 -24.3349 -24.3138 -24.3138 -24.3135 -24.3135
   -24.2966 -24.2966 -24.2964 -24.2963 -24.2682 -24.2681 -24.2680 -24.2680
    13.6974  13.6974  13.6978  13.6979  14.4410  14.4411  14.4415  14.4415
    15.7691  15.7691  15.7694  15.7694  15.9897  15.9897  15.9900  15.9900
    16.0863  16.0864  16.0866  16.0866  16.0995  16.0996  16.0998  16.0999
    16.5182  16.5182  16.5183  16.5183  16.5290  16.5290  16.5290  16.5290
    16.5434  16.5435  16.5436  16.5436  16.7117  16.7117  16.7118  16.7118
    16.7751  16.7751  16.7752  16.7752  16.9219  16.9219  16.9219  16.9219
    19.5183  19.5184  19.5186  19.5186  19.5839  19.5839  19.5842  19.5842
    19.6784  19.6785  19.6787  19.6788  19.7441  19.7441  19.7442  19.7442
    19.7609  19.7609  19.7612  19.7612  19.7859  19.7859

          k =-0.4916-0.4916-0.4916 ( 13264 PWs)   bands (ev):

   -53.2583 -53.2583 -53.2583 -53.2581 -53.2580 -53.2580 -53.2579 -53.2576
   -53.1534 -53.1534 -53.1533 -53.1532 -53.1530 -53.1530 -53.1530 -53.1527
   -24.7823 -24.7823 -24.7823 -24.7822 -24.7821 -24.7821 -24.7820 -24.7820
   -24.7820 -24.7820 -24.7820 -24.7819 -24.7819 -24.7818 -24.7817 -24.7817
   -24.7303 -24.7303 -24.7303 -24.7302 -24.7301 -24.7301 -24.7301 -24.7300
   -24.3598 -24.3598 -24.3598 -24.3596 -24.3596 -24.3596 -24.3595 -24.3595
   -24.3049 -24.3048 -24.3048 -24.3047 -24.3046 -24.3046 -24.3046 -24.3046
   -24.3045 -24.3045 -24.3045 -24.3044 -24.3044 -24.3044 -24.3043 -24.3043
    14.0629  14.0630  14.0630  14.0631  14.0633  14.0634  14.0634  14.0635
    16.0442  16.0442  16.0443  16.0443  16.0443  16.0443  16.0443  16.0443
    16.0446  16.0446  16.0446  16.0446  16.0446  16.0446  16.0447  16.0447
    16.5846  16.5846  16.5846  16.5847  16.5847  16.5847  16.5847  16.5847
    16.6144  16.6145  16.6145  16.6145  16.6145  16.6145  16.6145  16.6145
    16.6147  16.6147  16.6147  16.6147  16.6147  16.6148  16.6148  16.6148
    19.6364  19.6364  19.6364  19.6365  19.6365  19.6365  19.6365  19.6366
    19.6367  19.6367  19.6368  19.6368  19.6368  19.6368  19.6368  19.6369
    19.9787  19.9788  19.9788  19.9788  19.9789  19.9789

 ------ SPIN DOWN ----------


          k = 0.0546 0.0546 0.0546 ( 13202 PWs)   bands (ev):

   -53.3706 -53.2252 -53.2252 -53.2251 -53.2004 -53.2004 -53.2003 -53.1994
   -53.1994 -53.1993 -53.1970 -53.1970 -53.1968 -53.1868 -53.1843 -53.0783
   -25.0037 -25.0036 -25.0036 -24.9996 -24.9996 -24.9995 -24.7618 -24.7618
   -24.7529 -24.6700 -24.6659 -24.6659 -24.6657 -24.6360 -24.6360 -24.6187
   -24.6187 -24.6185 -24.5668 -24.5668 -24.5326 -24.5009 -24.5007 -24.5007
   -24.4858 -24.4858 -24.4857 -24.4654 -24.4654 -24.4651 -24.4603 -24.4603
   -24.4602 -24.4524 -24.4522 -24.4522 -24.4384 -24.4384 -24.4382 -24.2179
   -24.2177 -24.2177 -24.2176 -24.2135 -24.2134 -24.2134 -24.2081 -24.2081
    10.8359  14.3057  14.3057  14.3057  14.3284  14.3284  14.3284  14.4047
    14.4048  14.4048  14.4951  14.4951  14.8524  14.8525  14.8525  16.1409
    16.2261  16.2261  16.2261  16.2372  16.2372  16.2409  16.2409  16.2409
    16.3900  16.3900  16.4410  16.6191  16.6191  16.6191  17.0477  17.0477
    17.0478  17.6669  17.6669  17.7186  17.9902  17.9902  17.9902  18.1016
    18.1017  18.1017  18.1949  18.1949  18.1949  18.2979  18.2979  18.2979
    19.1338  19.1338  19.1339  19.1543  19.1543  19.1544  19.3635  19.3637
    19.3637  19.4078  19.4078  19.4079  19.5946  19.5946  19.5946  19.6206
    19.6206  19.6429  19.6429  19.6429  19.9417  19.9418

          k = 0.0546 0.0546 0.1639 ( 13211 PWs)   bands (ev):

   -53.3655 -53.2511 -53.2240 -53.2239 -53.2030 -53.2030 -53.1995 -53.1990
   -53.1989 -53.1962 -53.1959 -53.1958 -53.1876 -53.1850 -53.1749 -53.0820
   -24.9924 -24.9923 -24.9911 -24.9876 -24.9805 -24.9804 -24.7664 -24.7527
   -24.7388 -24.7206 -24.7073 -24.7072 -24.7046 -24.7037 -24.6619 -24.6618
   -24.6136 -24.5752 -24.5636 -24.5488 -24.5332 -24.5005 -24.5004 -24.4989
   -24.4803 -24.4743 -24.4705 -24.4703 -24.4687 -24.4572 -24.4571 -24.4530
   -24.4529 -24.4486 -24.4485 -24.4053 -24.4027 -24.4027 -24.3922 -24.2392
   -24.2305 -24.2305 -24.2286 -24.2251 -24.2176 -24.2175 -24.2162 -24.2119
    10.9663  13.8427  14.3272  14.3272  14.3969  14.3969  14.4100  14.4315
    14.4502  14.4502  14.5617  14.5663  14.8876  14.8877  15.1338  16.0229
    16.1391  16.1545  16.1994  16.2067  16.2200  16.2748  16.2800  16.2800
    16.3242  16.3242  16.5772  16.5772  16.5900  16.6015  16.9490  16.9490
    17.4444  17.6372  17.6598  17.7585  17.7585  17.7859  17.8325  17.9506
    17.9506  17.9949  18.2903  18.2903  18.4162  18.4163  18.4475  18.5569
    18.6316  18.6316  18.8677  18.8782  18.8783  18.8939  19.0005  19.3860
    19.3860  19.5181  19.5181  19.5337  19.6065  19.6065  19.6175  19.6436
    19.6534  19.6535  19.6553  19.6817  19.9452  19.9697

          k = 0.0546 0.0546 0.2731 ( 13214 PWs)   bands (ev):

   -53.3554 -53.2765 -53.2217 -53.2216 -53.2066 -53.2066 -53.1982 -53.1982
   -53.1980 -53.1954 -53.1954 -53.1947 -53.1892 -53.1864 -53.1522 -53.0893
   -24.9668 -24.9667 -24.9666 -24.9639 -24.9475 -24.9474 -24.7783 -24.7702
   -24.7687 -24.7642 -24.7641 -24.7352 -24.7318 -24.7220 -24.7219 -24.7190
   -24.5952 -24.5913 -24.5787 -24.5670 -24.5030 -24.4976 -24.4975 -24.4912
   -24.4843 -24.4761 -24.4759 -24.4551 -24.4550 -24.4530 -24.4528 -24.4349
   -24.4236 -24.4015 -24.4014 -24.3608 -24.3583 -24.3582 -24.3489 -24.2742
   -24.2509 -24.2508 -24.2499 -24.2478 -24.2318 -24.2304 -24.2303 -24.2249
    11.2228  13.2309  14.3843  14.3843  14.5061  14.5061  14.5124  14.5124
    14.6107  14.6295  14.6937  14.6984  14.9171  14.9172  15.2359  15.8061
    15.8533  15.9071  16.0891  16.1448  16.1725  16.1837  16.4003  16.4003
    16.4734  16.4734  16.5796  16.5796  16.8514  16.8736  16.8844  16.8844
    17.4448  17.4448  17.6162  17.6176  17.6176  17.6492  17.6527  17.7204
    17.8852  18.0637  18.0638  18.1153  18.2609  18.2611  18.4776  18.5125
    18.5730  18.5731  18.6129  18.6129  18.6170  18.7492  18.8699  19.3636
    19.3983  19.3983  19.5115  19.5115  19.6608  19.6781  19.7218  19.7219
    19.7222  19.9215  19.9236  19.9471  19.9516  19.9863

          k = 0.0546 0.0546 0.3823 ( 13188 PWs)   bands (ev):

   -53.3408 -53.3005 -53.2185 -53.2184 -53.2106 -53.2106 -53.1972 -53.1972
   -53.1960 -53.1956 -53.1955 -53.1928 -53.1912 -53.1884 -53.1319 -53.1002
   -24.9312 -24.9295 -24.9285 -24.9284 -24.9019 -24.9019 -24.8346 -24.8313
   -24.8235 -24.8234 -24.7857 -24.7856 -24.7678 -24.7511 -24.7097 -24.6925
   -24.6384 -24.6215 -24.5664 -24.5495 -24.5138 -24.5046 -24.4933 -24.4931
   -24.4820 -24.4818 -24.4537 -24.4536 -24.4527 -24.4526 -24.4400 -24.3761
   -24.3696 -24.3554 -24.3553 -24.3216 -24.3201 -24.3162 -24.3161 -24.3091
   -24.2813 -24.2811 -24.2788 -24.2787 -24.2547 -24.2512 -24.2511 -24.2461
    11.5958  12.6260  14.4594  14.4594  14.5463  14.5463  14.6429  14.6429
    14.8703  14.8858  14.8858  14.8886  14.8912  14.9053  15.1895  15.4509
    15.5681  15.5794  16.0785  16.0980  16.1322  16.1416  16.5818  16.5818
    16.6819  16.6819  16.7206  16.7206  16.9388  16.9389  17.1548  17.1548
    17.1838  17.2053  17.2844  17.2844  17.5247  17.5248  17.6067  17.6415
    17.6502  17.6580  17.6978  17.6979  18.0193  18.0243  18.0257  18.3885
    18.4556  18.8341  18.8342  18.8679  18.8679  19.0961  19.1179  19.2276
    19.2398  19.2398  19.3541  19.3541  19.7199  19.7314  19.8166  19.8583
    19.8621  19.8650  19.9602  19.9793  19.9855  19.9939

          k = 0.0546 0.0546-0.4916 ( 13184 PWs)   bands (ev):

   -53.3224 -53.3220 -53.2149 -53.2148 -53.2145 -53.2144 -53.1964 -53.1964
   -53.1961 -53.1960 -53.1939 -53.1933 -53.1908 -53.1904 -53.1147 -53.1143
   -24.8861 -24.8857 -24.8857 -24.8853 -24.8797 -24.8796 -24.8796 -24.8795
   -24.8470 -24.8469 -24.8469 -24.8468 -24.7628 -24.7624 -24.6774 -24.6770
   -24.6599 -24.6595 -24.5401 -24.5397 -24.5277 -24.5271 -24.4881 -24.4879
   -24.4876 -24.4875 -24.4530 -24.4529 -24.4526 -24.4525 -24.3784 -24.3780
   -24.3247 -24.3242 -24.3218 -24.3214 -24.3140 -24.3140 -24.3139 -24.3138
   -24.2846 -24.2842 -24.2800 -24.2799 -24.2799 -24.2798 -24.2748 -24.2745
    12.0705  12.0710  14.5243  14.5243  14.5245  14.5245  14.7822  14.7822
    14.7824  14.7825  15.0489  15.0493  15.1425  15.1430  15.2256  15.2261
    15.2313  15.2317  16.0967  16.0970  16.1069  16.1073  16.8122  16.8122
    16.8123  16.8123  16.9080  16.9080  16.9081  16.9082  17.1063  17.1064
    17.1066  17.1066  17.2645  17.2645  17.2648  17.2648  17.5778  17.5779
    17.5922  17.5923  17.6150  17.6153  17.6434  17.6438  18.1877  18.1880
    18.8083  18.8087  19.0487  19.0487  19.0487  19.0487  19.1357  19.1357
    19.1357  19.1358  19.4754  19.4757  19.6149  19.6152  19.7881  19.7885
    19.7950  19.7955  19.9333  19.9338  19.9697  19.9701

          k = 0.0546 0.1639 0.1639 ( 13195 PWs)   bands (ev):

   -53.3604 -53.2491 -53.2491 -53.2227 -53.2102 -53.2022 -53.2021 -53.1985
   -53.1952 -53.1951 -53.1903 -53.1887 -53.1856 -53.1753 -53.1752 -53.0855
   -24.9891 -24.9804 -24.9803 -24.9698 -24.9697 -24.9538 -24.7762 -24.7530
   -24.7474 -24.7429 -24.7427 -24.7333 -24.7250 -24.7174 -24.6906 -24.6279
   -24.6081 -24.6080 -24.5600 -24.5478 -24.5477 -24.5089 -24.4949 -24.4948
   -24.4837 -24.4806 -24.4805 -24.4718 -24.4654 -24.4653 -24.4592 -24.4455
   -24.4412 -24.4178 -24.4069 -24.4068 -24.3758 -24.3587 -24.3586 -24.2678
   -24.2508 -24.2389 -24.2388 -24.2284 -24.2283 -24.2227 -24.2130 -24.2087
    11.0950  13.9057  13.9058  14.2902  14.4327  14.4327  14.4990  14.4990
    14.5037  14.5041  14.6266  14.6374  14.9340  15.1704  15.1704  15.9149
    16.0362  16.1946  16.1947  16.2256  16.2574  16.2574  16.2969  16.2969
    16.3038  16.3526  16.4361  16.5181  16.5741  16.6136  16.8416  17.2619
    17.2619  17.5687  17.6140  17.6140  17.6409  17.6615  17.8144  17.8977
    18.1879  18.1880  18.2153  18.2591  18.2592  18.3809  18.4677  18.4678
    18.4915  18.6070  18.6070  18.6307  18.6308  18.7231  19.1204  19.1205
    19.3913  19.5193  19.5442  19.5442  19.5819  19.6113  19.6114  19.6207
    19.6300  19.8109  19.9105  19.9166  19.9167  19.9514

          k = 0.0546 0.1639 0.2731 ( 13201 PWs)   bands (ev):

   -53.3506 -53.2738 -53.2453 -53.2205 -53.2180 -53.2056 -53.2005 -53.1977
   -53.1948 -53.1939 -53.1905 -53.1867 -53.1856 -53.1760 -53.1533 -53.0926
   -24.9713 -24.9571 -24.9562 -24.9487 -24.9388 -24.9139 -24.7955 -24.7939
   -24.7857 -24.7764 -24.7753 -24.7681 -24.7373 -24.7306 -24.6909 -24.6700
   -24.6116 -24.5933 -24.5539 -24.5481 -24.5421 -24.5401 -24.5116 -24.5000
   -24.4973 -24.4880 -24.4806 -24.4636 -24.4624 -24.4464 -24.4352 -24.4201
   -24.4096 -24.3968 -24.3794 -24.3634 -24.3414 -24.3181 -24.3179 -24.3096
   -24.2782 -24.2558 -24.2555 -24.2495 -24.2385 -24.2378 -24.2172 -24.2139
    11.3476  13.3125  14.0120  14.2734  14.4903  14.5813  14.6072  14.6354
    14.6462  14.6941  14.7502  14.7740  14.9840  15.1888  15.2812  15.7900
    15.8276  15.8821  16.1558  16.2179  16.2498  16.2520  16.2522  16.3683
    16.3939  16.4312  16.4861  16.6127  16.7423  16.7477  16.8079  17.1266
    17.3295  17.4385  17.4456  17.5044  17.5239  17.5666  17.6185  17.7346
    17.8407  17.9571  18.0404  18.0972  18.1732  18.2272  18.2380  18.3767
    18.4704  18.5849  18.6098  18.6642  18.6908  18.8611  18.8638  19.2439
    19.3895  19.4278  19.4580  19.5165  19.5520  19.5955  19.6419  19.6803
    19.8444  19.9011  19.9044  19.9316  19.9769  19.9822

          k = 0.0546 0.1639 0.3823 ( 13180 PWs)   bands (ev):

   -53.3364 -53.2972 -53.2399 -53.2258 -53.2173 -53.2096 -53.1982 -53.1967
   -53.1950 -53.1930 -53.1921 -53.1883 -53.1819 -53.1772 -53.1337 -53.1031
   -24.9408 -24.9231 -24.9206 -24.9185 -24.8967 -24.8623 -24.8496 -24.8381
   -24.8296 -24.8263 -24.7916 -24.7912 -24.7840 -24.7368 -24.7056 -24.6595
   -24.6357 -24.5849 -24.5836 -24.5404 -24.5336 -24.5256 -24.5106 -24.5090
   -24.5002 -24.4958 -24.4845 -24.4633 -24.4628 -24.4265 -24.4136 -24.3977
   -24.3674 -24.3619 -24.3531 -24.3416 -24.3238 -24.3123 -24.3079 -24.2818
   -24.2813 -24.2810 -24.2804 -24.2785 -24.2600 -24.2553 -24.2300 -24.2283
    11.7145  12.7235  14.1258  14.2556  14.5643  14.6329  14.7427  14.8130
    14.9183  14.9223  14.9620  14.9633  14.9724  15.1248  15.2427  15.4923
    15.5743  15.5986  16.1165  16.1646  16.1714  16.1969  16.4506  16.5274
    16.5458  16.5729  16.6026  16.7386  16.8444  16.9910  17.0368  17.0993
    17.1871  17.2238  17.2539  17.3031  17.4512  17.4594  17.4742  17.4850
    17.5409  17.5934  17.5941  17.7259  17.8088  17.8120  18.2091  18.6172
    18.6295  18.7981  18.8044  18.8761  18.8827  18.9039  19.0897  19.1762
    19.1763  19.2731  19.3582  19.4072  19.5511  19.6667  19.6966  19.7767
    19.8046  19.8299  19.8382  19.9124  19.9731  19.9758

          k = 0.0546 0.1639-0.4916 ( 13188 PWs)   bands (ev):

   -53.3185 -53.3181 -53.2335 -53.2331 -53.2138 -53.2134 -53.1959 -53.1958
   -53.1956 -53.1953 -53.1904 -53.1900 -53.1793 -53.1790 -53.1170 -53.1167
   -24.8993 -24.8992 -24.8811 -24.8806 -24.8802 -24.8798 -24.8761 -24.8760
   -24.8464 -24.8463 -24.8023 -24.8022 -24.7912 -24.7909 -24.6739 -24.6734
   -24.6236 -24.6234 -24.5553 -24.5549 -24.5230 -24.5226 -24.5216 -24.5212
   -24.5034 -24.5030 -24.4633 -24.4629 -24.4214 -24.4212 -24.4195 -24.4191
   -24.3524 -24.3523 -24.3204 -24.3200 -24.3140 -24.3137 -24.3075 -24.3075
   -24.2893 -24.2888 -24.2787 -24.2786 -24.2517 -24.2515 -24.2515 -24.2513
    12.1803  12.1808  14.2112  14.2115  14.6236  14.6238  14.8788  14.8790
    14.9842  14.9844  15.1045  15.1049  15.2006  15.2010  15.2533  15.2537
    15.2742  15.2746  16.1315  16.1318  16.1582  16.1585  16.6926  16.6928
    16.7055  16.7057  16.7519  16.7520  16.7880  16.7884  17.1595  17.1596
    17.1839  17.1841  17.2453  17.2454  17.3589  17.3591  17.3994  17.3995
    17.4399  17.4401  17.4420  17.4421  17.5692  17.5695  18.4036  18.4038
    18.9103  18.9106  18.9401  18.9401  19.0859  19.0859  19.1417  19.1418
    19.1642  19.1643  19.1858  19.1859  19.5358  19.5361  19.7480  19.7485
    19.7653  19.7658  19.8976  19.8981  19.9711  19.9715

          k = 0.0546 0.2731 0.2731 ( 13186 PWs)   bands (ev):

   -53.3413 -53.2686 -53.2686 -53.2297 -53.2182 -53.2039 -53.2038 -53.1969
   -53.1937 -53.1936 -53.1927 -53.1875 -53.1769 -53.1555 -53.1555 -53.0991
   -24.9618 -24.9361 -24.9360 -24.9224 -24.9223 -24.8678 -24.8160 -24.8160
   -24.8158 -24.8039 -24.8003 -24.7980 -24.7662 -24.7150 -24.6572 -24.6128
   -24.6107 -24.6105 -24.5851 -24.5851 -24.5469 -24.5243 -24.5184 -24.5100
   -24.5099 -24.4917 -24.4916 -24.4793 -24.4791 -24.4722 -24.4172 -24.3863
   -24.3689 -24.3688 -24.3644 -24.3592 -24.3508 -24.3186 -24.3117 -24.2824
   -24.2822 -24.2657 -24.2656 -24.2548 -24.2547 -24.2518 -24.2125 -24.2093
    11.5922  13.4619  13.4620  14.1584  14.6903  14.6934  14.6934  14.7992
    14.7992  14.8036  14.8562  14.9198  15.0776  15.3073  15.3073  15.7222
    15.7943  15.9290  15.9290  16.2167  16.2972  16.3130  16.3130  16.3595
    16.3595  16.3892  16.4526  16.6076  16.6862  16.7860  16.8153  17.2182
    17.2182  17.3318  17.3336  17.3337  17.3367  17.3891  17.4321  17.5759
    17.7546  17.7547  17.8119  17.8120  17.9486  18.1110  18.1110  18.2333
    18.6815  18.6816  18.7502  18.7935  18.8292  18.8293  19.0847  19.1916
    19.1916  19.3833  19.4878  19.4878  19.5274  19.5465  19.5466  19.5623
    19.6505  19.8490  19.8528  19.8567  19.9730  19.9816

          k = 0.0546 0.2731 0.3823 ( 13180 PWs)   bands (ev):

   -53.3278 -53.2907 -53.2611 -53.2412 -53.2152 -53.2076 -53.2014 -53.1958
   -53.1955 -53.1939 -53.1920 -53.1887 -53.1695 -53.1589 -53.1372 -53.1088
   -24.9392 -24.9072 -24.9058 -24.8992 -24.8871 -24.8634 -24.8430 -24.8332
   -24.8331 -24.8256 -24.8179 -24.8112 -24.8042 -24.6914 -24.6790 -24.6253
   -24.6198 -24.5957 -24.5728 -24.5466 -24.5386 -24.5382 -24.5362 -24.5362
   -24.5294 -24.5197 -24.4989 -24.4794 -24.4777 -24.4421 -24.4173 -24.4013
   -24.3769 -24.3507 -24.3474 -24.3326 -24.3318 -24.3231 -24.2967 -24.2820
[...]
    19.3291  19.3293  19.3400  19.3403  19.4181  19.4183  19.5794  19.5797
    19.6023  19.6026  19.7433  19.7438  19.7749  19.7751

          k = 0.1639-0.4916-0.4916 ( 13200 PWs)   bands (ev):

   -53.2830 -53.2828 -53.2826 -53.2824 -53.2191 -53.2190 -53.2187 -53.2185
   -53.1806 -53.1804 -53.1802 -53.1800 -53.1398 -53.1396 -53.1394 -53.1392
   -24.8724 -24.8723 -24.8722 -24.8722 -24.8585 -24.8584 -24.8583 -24.8581
   -24.8335 -24.8334 -24.8333 -24.8332 -24.6509 -24.6507 -24.6506 -24.6503
   -24.6308 -24.6308 -24.6307 -24.6306 -24.6272 -24.6271 -24.6270 -24.6270
   -24.4579 -24.4579 -24.4578 -24.4578 -24.4525 -24.4524 -24.4523 -24.4523
   -24.3308 -24.3306 -24.3304 -24.3301 -24.3018 -24.3018 -24.3017 -24.3016
   -24.2879 -24.2878 -24.2877 -24.2876 -24.2208 -24.2206 -24.2206 -24.2206
    13.1698  13.1698  13.1702  13.1703  15.0323  15.0324  15.0326  15.0327
    15.3243  15.3244  15.3246  15.3247  15.6132  15.6133  15.6134  15.6134
    15.9048  15.9049  15.9052  15.9053  16.1982  16.1983  16.1984  16.1985
    16.3562  16.3562  16.3563  16.3564  16.7366  16.7368  16.7368  16.7369
    16.8661  16.8661  16.8662  16.8662  16.9429  16.9429  16.9429  16.9430
    17.2029  17.2030  17.2031  17.2031  17.7050  17.7050  17.7050  17.7051
    19.2182  19.2183  19.2184  19.2185  19.3449  19.3450  19.3451  19.3453
    19.4706  19.4707  19.4708  19.4709  19.4712  19.4714  19.4715  19.4718
    19.4900  19.4900  19.4901  19.4901  19.7250  19.7254

          k = 0.2731 0.2731 0.2731 ( 13193 PWs)   bands (ev):

   -53.3282 -53.2612 -53.2612 -53.2612 -53.2251 -53.2251 -53.2250 -53.2037
   -53.1811 -53.1770 -53.1770 -53.1769 -53.1583 -53.1583 -53.1582 -53.1078
   -24.9268 -24.9267 -24.9267 -24.8600 -24.8600 -24.8599 -24.8356 -24.8335
   -24.8335 -24.8333 -24.7756 -24.7756 -24.7401 -24.7401 -24.6684 -24.6684
   -24.6683 -24.6260 -24.6259 -24.6259 -24.5842 -24.5721 -24.5721 -24.5719
   -24.4332 -24.4267 -24.4267 -24.4265 -24.4238 -24.4238 -24.4237 -24.4219
   -24.4219 -24.3737 -24.3736 -24.3736 -24.3242 -24.3004 -24.3004 -24.3003
   -24.2670 -24.2670 -24.2668 -24.2450 -24.2449 -24.2449 -24.2347 -24.2347
    11.9506  13.7239  13.7241  13.7241  14.4992  14.4992  14.4992  15.0759
    15.0759  15.0837  15.0837  15.0837  15.5353  15.5353  15.5353  15.7171
    15.8902  15.8902  15.8903  16.0210  16.1725  16.1725  16.3759  16.3759
    16.3759  16.5652  16.5652  16.5873  16.5873  16.5873  16.9345  16.9345
    16.9345  17.1233  17.1233  17.1233  17.2005  17.2005  17.2005  17.3098
    17.3098  17.4038  17.4039  17.4039  17.5803  17.5803  17.5803  18.6176
    18.7712  18.9070  18.9071  18.9071  19.1414  19.1414  19.1414  19.3173
    19.3173  19.3173  19.5142  19.5142  19.5640  19.5640  19.5640  19.6907
    19.6907  19.6908  19.8661  19.8661  19.8662  19.8696

          k = 0.2731 0.2731 0.3823 ( 13178 PWs)   bands (ev):

   -53.3157 -53.2815 -53.2543 -53.2542 -53.2357 -53.2357 -53.2208 -53.2097
   -53.1792 -53.1772 -53.1705 -53.1704 -53.1612 -53.1611 -53.1418 -53.1164
   -24.9069 -24.9068 -24.8929 -24.8547 -24.8546 -24.8538 -24.8416 -24.8325
   -24.8153 -24.8153 -24.8018 -24.7980 -24.7484 -24.7151 -24.7150 -24.7015
   -24.6722 -24.6301 -24.6300 -24.6139 -24.6095 -24.5993 -24.5992 -24.5438
   -24.4880 -24.4628 -24.4321 -24.4315 -24.4066 -24.4065 -24.3869 -24.3869
   -24.3805 -24.3804 -24.3662 -24.3300 -24.3245 -24.3245 -24.3095 -24.2976
   -24.2766 -24.2595 -24.2575 -24.2574 -24.2490 -24.2458 -24.2457 -24.2325
    12.2920  13.2079  13.9434  13.9435  14.3606  14.3607  14.8183  15.2266
    15.2535  15.2535  15.2581  15.3256  15.5450  15.5450  15.5504  15.6343
    15.6435  15.7066  16.0471  16.0471  16.2007  16.3141  16.3858  16.3911
    16.4373  16.4804  16.4804  16.6586  16.6586  16.7350  16.7783  16.7783
    16.9257  16.9258  17.0061  17.0061  17.0420  17.0524  17.0697  17.0843
    17.1476  17.1476  17.1863  17.2386  17.3001  17.3001  17.7407  18.3671
    18.8743  19.0622  19.1055  19.1056  19.2030  19.2031  19.2554  19.2554
    19.3859  19.4241  19.4347  19.4723  19.4723  19.4862  19.6248  19.6295
    19.7882  19.7893  19.8699  19.8700  19.8719  19.8747

          k = 0.2731 0.2731-0.4916 ( 13152 PWs)   bands (ev):

   -53.3001 -53.2997 -53.2458 -53.2458 -53.2454 -53.2453 -53.2157 -53.2153
   -53.1781 -53.1777 -53.1654 -53.1654 -53.1650 -53.1649 -53.1280 -53.1276
   -24.8812 -24.8811 -24.8811 -24.8810 -24.8498 -24.8493 -24.8477 -24.8474
   -24.8215 -24.8213 -24.7657 -24.7656 -24.7656 -24.7655 -24.7137 -24.7132
   -24.6584 -24.6581 -24.6200 -24.6199 -24.6197 -24.6196 -24.5481 -24.5481
   -24.5032 -24.5031 -24.4348 -24.4344 -24.3913 -24.3912 -24.3910 -24.3909
   -24.3535 -24.3534 -24.3534 -24.3533 -24.3175 -24.3171 -24.3006 -24.3004
   -24.2918 -24.2913 -24.2501 -24.2501 -24.2500 -24.2500 -24.2374 -24.2373
    12.7193  12.7198  14.1695  14.1696  14.1699  14.1700  15.2080  15.2084
    15.4183  15.4187  15.4195  15.4195  15.4197  15.4197  15.4367  15.4371
    15.5684  15.5687  16.2514  16.2517  16.3399  16.3400  16.3636  16.3636
    16.3640  16.3640  16.6212  16.6213  16.6214  16.6214  16.6958  16.6959
    16.9090  16.9092  17.0033  17.0034  17.0035  17.0035  17.0556  17.0556
    17.0557  17.0557  17.1069  17.1070  17.1522  17.1525  18.0107  18.0108
    19.1502  19.1502  19.2241  19.2241  19.2241  19.2241  19.2296  19.2299
    19.3057  19.3058  19.3060  19.3060  19.6495  19.6499  19.7033  19.7037
    19.7555  19.7558  19.7642  19.7647  19.8751  19.8756

          k = 0.2731 0.3823 0.3823 ( 13182 PWs)   bands (ev):

   -53.3042 -53.2728 -53.2728 -53.2493 -53.2478 -53.2306 -53.2305 -53.2171
   -53.1758 -53.1716 -53.1715 -53.1636 -53.1608 -53.1466 -53.1465 -53.1240
   -24.8917 -24.8764 -24.8763 -24.8532 -24.8480 -24.8479 -24.8348 -24.8202
   -24.8201 -24.8111 -24.8037 -24.7665 -24.7468 -24.7443 -24.7135 -24.6756
   -24.6755 -24.6594 -24.6593 -24.6527 -24.6424 -24.6422 -24.6340 -24.5420
   -24.5023 -24.4234 -24.4233 -24.4107 -24.4089 -24.4088 -24.3850 -24.3769
   -24.3572 -24.3534 -24.3465 -24.3377 -24.3377 -24.3122 -24.3122 -24.3044
   -24.2738 -24.2737 -24.2724 -24.2629 -24.2457 -24.2455 -24.2426 -24.2372
    12.6186  13.4764  13.4765  14.0914  14.1937  14.6758  14.6759  15.3510
    15.3952  15.4174  15.4515  15.4989  15.4989  15.5664  15.5664  15.7432
    15.7896  15.8685  15.8685  15.9953  16.2741  16.3490  16.3538  16.4067
    16.4067  16.4562  16.4562  16.5313  16.5664  16.6504  16.6619  16.8370
    16.8371  16.8375  16.8375  16.8456  16.8634  16.8634  16.8886  16.9955
    16.9955  17.0155  17.0564  17.0667  17.1366  17.3983  17.3983  17.9677
    19.1626  19.2264  19.2264  19.2486  19.2752  19.3563  19.4257  19.4257
    19.4288  19.4573  19.4573  19.4766  19.5454  19.5454  19.6130  19.7313
    19.7534  19.7534  19.7600  19.7928  19.8556  19.8662

          k = 0.2731 0.3823-0.4916 ( 13172 PWs)   bands (ev):

   -53.2899 -53.2895 -53.2621 -53.2617 -53.2399 -53.2395 -53.2244 -53.2240
   -53.1735 -53.1731 -53.1672 -53.1668 -53.1530 -53.1527 -53.1343 -53.1339
   -24.8700 -24.8700 -24.8608 -24.8607 -24.8392 -24.8388 -24.8318 -24.8317
   -24.8271 -24.8268 -24.7833 -24.7832 -24.7152 -24.7148 -24.7132 -24.7132
   -24.6844 -24.6842 -24.6612 -24.6609 -24.6573 -24.6572 -24.6005 -24.6004
   -24.4619 -24.4618 -24.4094 -24.4091 -24.3938 -24.3936 -24.3866 -24.3865
   -24.3538 -24.3534 -24.3320 -24.3319 -24.3092 -24.3088 -24.3054 -24.3052
   -24.3012 -24.3008 -24.2690 -24.2689 -24.2428 -24.2427 -24.2392 -24.2391
    13.0228  13.0232  13.7845  13.7849  14.4569  14.4572  15.0498  15.0502
    15.4758  15.4762  15.5025  15.5027  15.6699  15.6702  15.6716  15.6718
    15.7314  15.7316  16.1921  16.1925  16.2198  16.2202  16.3115  16.3115
    16.3335  16.3337  16.5251  16.5254  16.5533  16.5534  16.6947  16.6948
    16.7387  16.7389  16.7681  16.7684  16.8837  16.8837  16.9444  16.9444
    16.9652  16.9654  17.0526  17.0528  17.1073  17.1074  17.6292  17.6292
    19.3461  19.3461  19.3472  19.3475  19.3830  19.3833  19.4060  19.4063
    19.4288  19.4289  19.4710  19.4711  19.6361  19.6364  19.6375  19.6379
    19.7017  19.7019  19.7136  19.7141  19.7938  19.7942

          k = 0.2731-0.4916-0.4916 ( 13164 PWs)   bands (ev):

   -53.2771 -53.2769 -53.2767 -53.2765 -53.2327 -53.2326 -53.2324 -53.2322
   -53.1699 -53.1698 -53.1696 -53.1694 -53.1427 -53.1425 -53.1423 -53.1421
   -24.8514 -24.8513 -24.8512 -24.8512 -24.8433 -24.8431 -24.8430 -24.8428
   -24.8046 -24.8046 -24.8045 -24.8043 -24.6948 -24.6946 -24.6945 -24.6943
   -24.6835 -24.6833 -24.6833 -24.6833 -24.6569 -24.6569 -24.6568 -24.6568
   -24.4227 -24.4227 -24.4226 -24.4225 -24.3980 -24.3979 -24.3978 -24.3978
   -24.3230 -24.3228 -24.3226 -24.3223 -24.3158 -24.3158 -24.3157 -24.3156
   -24.2908 -24.2907 -24.2906 -24.2904 -24.2400 -24.2399 -24.2398 -24.2398
    13.3893  13.3893  13.3897  13.3897  14.7754  14.7754  14.7758  14.7758
    15.5120  15.5121  15.5123  15.5124  15.8477  15.8477  15.8479  15.8479
    15.9406  15.9407  15.9410  15.9411  16.1506  16.1507  16.1509  16.1510
    16.4307  16.4307  16.4308  16.4308  16.5889  16.5890  16.5891  16.5892
    16.7609  16.7609  16.7610  16.7610  16.7996  16.7996  16.7996  16.7996
    16.9874  16.9875  16.9875  16.9876  17.3121  17.3121  17.3121  17.3122
    19.4181  19.4183  19.4184  19.4186  19.5241  19.5242  19.5242  19.5243
    19.5252  19.5254  19.5255  19.5258  19.5737  19.5738  19.5739  19.5740
    19.7069  19.7072  19.7073  19.7076  19.8064  19.8065

          k = 0.3823 0.3823 0.3823 ( 13184 PWs)   bands (ev):

   -53.2936 -53.2648 -53.2648 -53.2647 -53.2431 -53.2431 -53.2430 -53.2265
   -53.1704 -53.1631 -53.1631 -53.1630 -53.1506 -53.1506 -53.1505 -53.1307
   -24.8594 -24.8593 -24.8593 -24.8392 -24.8392 -24.8391 -24.8181 -24.7823
   -24.7823 -24.7815 -24.7815 -24.7814 -24.7687 -24.7687 -24.7019 -24.7017
   -24.7017 -24.6971 -24.6971 -24.6970 -24.6805 -24.6805 -24.6804 -24.5906
   -24.4619 -24.3888 -24.3888 -24.3887 -24.3736 -24.3736 -24.3734 -24.3576
   -24.3576 -24.3387 -24.3386 -24.3386 -24.3327 -24.3327 -24.3325 -24.3079
   -24.2727 -24.2726 -24.2726 -24.2635 -24.2635 -24.2582 -24.2582 -24.2580
    12.9379  13.7606  13.7608  13.7608  14.4087  14.4088  14.4088  15.1596
    15.5584  15.5584  15.6559  15.6559  15.6559  15.8395  15.8395  15.8396
    15.8421  15.8421  15.8421  15.9555  16.3324  16.3324  16.4077  16.4077
    16.4895  16.4895  16.4895  16.5027  16.5027  16.5028  16.5959  16.5959
    16.5959  16.7328  16.7329  16.7329  16.7603  16.7603  16.7603  16.8077
    16.8077  16.8077  16.9690  16.9690  17.0615  17.0615  17.0615  17.5665
    19.3503  19.3504  19.3504  19.4796  19.5182  19.5182  19.5182  19.5424
    19.5424  19.5547  19.5547  19.5547  19.5828  19.5828  19.5829  19.7566
    19.7566  19.7875  19.7876  19.7876  19.8062  19.8062

          k = 0.3823 0.3823-0.4916 ( 13170 PWs)   bands (ev):

   -53.2804 -53.2800 -53.2549 -53.2548 -53.2545 -53.2544 -53.2355 -53.2351
   -53.1664 -53.1660 -53.1563 -53.1562 -53.1559 -53.1558 -53.1397 -53.1393
   -24.8432 -24.8431 -24.8431 -24.8430 -24.8181 -24.8176 -24.8148 -24.8146
   -24.7995 -24.7993 -24.7457 -24.7452 -24.7393 -24.7392 -24.7391 -24.7391
   -24.7269 -24.7267 -24.7040 -24.7039 -24.7038 -24.7037 -24.6438 -24.6437
   -24.4238 -24.4237 -24.3672 -24.3669 -24.3584 -24.3583 -24.3582 -24.3582
   -24.3494 -24.3493 -24.3492 -24.3491 -24.3173 -24.3171 -24.3115 -24.3111
   -24.2978 -24.2973 -24.2682 -24.2681 -24.2681 -24.2680 -24.2585 -24.2584
    13.3290  13.3295  14.0876  14.0877  14.0880  14.0880  14.7853  14.7857
    15.6904  15.6908  15.7554  15.7557  15.7739  15.7739  15.7741  15.7741
    15.9293  15.9296  16.1676  16.1677  16.1681  16.1681  16.3548  16.3549
    16.4074  16.4077  16.4608  16.4611  16.4868  16.4870  16.6098  16.6098
    16.6100  16.6100  16.7283  16.7283  16.7285  16.7285  16.7836  16.7837
    16.7837  16.7837  16.8520  16.8522  16.8677  16.8680  17.2393  17.2393
    19.4522  19.4525  19.4771  19.4771  19.4774  19.4775  19.5906  19.5906
    19.5906  19.5906  19.6518  19.6522  19.6739  19.6744  19.7249  19.7251
    19.7756  19.7760  19.7784  19.7785  19.7788  19.7789

          k = 0.3823-0.4916-0.4916 ( 13156 PWs)   bands (ev):

   -53.2686 -53.2685 -53.2683 -53.2681 -53.2459 -53.2458 -53.2455 -53.2453
   -53.1608 -53.1606 -53.1604 -53.1602 -53.1471 -53.1470 -53.1468 -53.1466
   -24.8208 -24.8207 -24.8206 -24.8206 -24.8171 -24.8170 -24.8169 -24.8167
   -24.7691 -24.7691 -24.7690 -24.7689 -24.7400 -24.7399 -24.7398 -24.7395
   -24.7356 -24.7355 -24.7354 -24.7354 -24.6915 -24.6915 -24.6914 -24.6913
   -24.3889 -24.3889 -24.3888 -24.3888 -24.3482 -24.3481 -24.3480 -24.3480
   -24.3350 -24.3350 -24.3349 -24.3348 -24.3139 -24.3137 -24.3136 -24.3133
   -24.2966 -24.2965 -24.2964 -24.2962 -24.2682 -24.2680 -24.2679 -24.2679
    13.6968  13.6968  13.6972  13.6973  14.4405  14.4406  14.4409  14.4410
    15.7682  15.7683  15.7685  15.7686  15.9887  15.9888  15.9891  15.9892
    16.0860  16.0860  16.0863  16.0863  16.0988  16.0989  16.0991  16.0992
    16.5184  16.5184  16.5185  16.5185  16.5289  16.5289  16.5289  16.5289
    16.5437  16.5438  16.5439  16.5439  16.7121  16.7121  16.7122  16.7122
    16.7752  16.7753  16.7754  16.7755  16.9222  16.9222  16.9222  16.9223
    19.5175  19.5176  19.5178  19.5180  19.5830  19.5833  19.5834  19.5837
    19.6774  19.6777  19.6778  19.6781  19.7441  19.7442  19.7443  19.7444
    19.7600  19.7601  19.7603  19.7605  19.7861  19.7862

          k =-0.4916-0.4916-0.4916 ( 13264 PWs)   bands (ev):

   -53.2581 -53.2580 -53.2580 -53.2579 -53.2578 -53.2577 -53.2577 -53.2573
   -53.1532 -53.1531 -53.1531 -53.1529 -53.1529 -53.1528 -53.1528 -53.1524
   -24.7823 -24.7822 -24.7822 -24.7822 -24.7821 -24.7821 -24.7821 -24.7820
   -24.7820 -24.7819 -24.7819 -24.7819 -24.7818 -24.7815 -24.7815 -24.7815
   -24.7303 -24.7303 -24.7302 -24.7301 -24.7301 -24.7301 -24.7300 -24.7299
   -24.3597 -24.3597 -24.3597 -24.3596 -24.3595 -24.3595 -24.3595 -24.3594
   -24.3048 -24.3048 -24.3048 -24.3047 -24.3047 -24.3047 -24.3047 -24.3046
   -24.3045 -24.3044 -24.3044 -24.3044 -24.3043 -24.3040 -24.3040 -24.3040
    14.0623  14.0623  14.0625  14.0625  14.0628  14.0628  14.0629  14.0629
    16.0433  16.0433  16.0434  16.0434  16.0435  16.0435  16.0435  16.0436
    16.0437  16.0437  16.0438  16.0438  16.0439  16.0439  16.0439  16.0439
    16.5849  16.5849  16.5850  16.5851  16.5851  16.5851  16.5851  16.5852
    16.6147  16.6147  16.6147  16.6148  16.6148  16.6148  16.6148  16.6149
    16.6149  16.6150  16.6150  16.6150  16.6150  16.6151  16.6151  16.6151
    19.6355  19.6355  19.6356  19.6356  19.6357  19.6357  19.6357  19.6358
    19.6359  19.6359  19.6359  19.6359  19.6361  19.6361  19.6363  19.6363
    19.9789  19.9790  19.9790  19.9791  19.9791  19.9791

     the Fermi energy is    18.4622 ev

!    total energy              =   -3971.52120919 Ry
     Harris-Foulkes estimate   =   -3971.52120150 Ry
     estimated scf accuracy    <       0.00000040 Ry

     total all-electron energy =    -33628.044089 Ry

     The total energy is the sum of the following terms:

     one-electron contribution =    -935.24585233 Ry
     hartree contribution      =     596.06719729 Ry
     xc contribution           =    -355.81569688 Ry
     ewald contribution        =   -2088.62249394 Ry
     one-center paw contrib.   =   -1187.93824983 Ry
     smearing contrib. (-TS)   =       0.03388650 Ry

     total magnetization       =     0.00 Bohr mag/cell
     absolute magnetization    =     0.04 Bohr mag/cell

     convergence has been achieved in  17 iterations

     Forces acting on atoms (cartesian axes, Ry/au):

     atom    1 type  1   force =     0.00000000    0.00000000   -0.00000000
     atom    2 type  2   force =     0.00014062    0.00014062    0.00014062
     atom    3 type  1   force =     0.00000000    0.00000000    0.00000000
     atom    4 type  2   force =     0.00014062    0.00014062   -0.00014062
     atom    5 type  1   force =     0.00000000    0.00000000    0.00000000
     atom    6 type  2   force =     0.00014062   -0.00014062    0.00014062
     atom    7 type  1   force =     0.00000000    0.00000000    0.00000000
     atom    8 type  2   force =     0.00014062   -0.00014062   -0.00014062
     atom    9 type  1   force =     0.00000000    0.00000000    0.00000000
     atom   10 type  2   force =    -0.00014062    0.00014062    0.00014062
     atom   11 type  1   force =     0.00000000   -0.00000000    0.00000000
     atom   12 type  2   force =    -0.00014062    0.00014062   -0.00014062
     atom   13 type  1   force =     0.00000000    0.00000000    0.00000000
     atom   14 type  2   force =    -0.00014062   -0.00014062    0.00014062
     atom   15 type  1   force =     0.00000000    0.00000000    0.00000000
     atom   16 type  2   force =    -0.00014062   -0.00014062   -0.00014062

     Total force =     0.000689     Total SCF correction =     0.002206
     SCF correction compared to forces is large: reduce conv_thr to get better values


     Computing stress (Cartesian axis) and pressure

          total   stress  (Ry/bohr**3)                   (kbar)     P= -120.53
  -0.00081933   0.00000000   0.00000000       -120.53      0.00      0.00
   0.00000000  -0.00081933   0.00000000          0.00   -120.53      0.00
   0.00000000   0.00000000  -0.00081933          0.00      0.00   -120.53


     Writing output data file UAtbaziGYMwdcEhM.save/
 
     init_run     :      9.62s CPU      9.99s WALL (       1 calls)
     electrons    :    633.06s CPU    647.23s WALL (       1 calls)
     forces       :      3.33s CPU      3.49s WALL (       1 calls)
     stress       :     14.18s CPU     14.23s WALL (       1 calls)

     Called by init_run:
     wfcinit      :      8.91s CPU      9.22s WALL (       1 calls)
     potinit      :      0.35s CPU      0.37s WALL (       1 calls)
     hinit0       :      0.12s CPU      0.13s WALL (       1 calls)

     Called by electrons:
     c_bands      :    574.19s CPU    585.62s WALL (      18 calls)
     sum_band     :     51.91s CPU     54.13s WALL (      18 calls)
     v_of_rho     :      0.58s CPU      0.62s WALL (      18 calls)
     newd         :      1.28s CPU      1.53s WALL (      18 calls)
     PAW_pot      :      5.19s CPU      5.40s WALL (      18 calls)
     mix_rho      :      0.16s CPU      0.18s WALL (      18 calls)

     Called by c_bands:
     init_us_2    :      4.08s CPU      4.13s WALL (    2730 calls)
     cegterg      :    553.81s CPU    565.04s WALL (    1260 calls)

     Called by sum_band:
     sum_band:bec :      0.55s CPU      0.55s WALL (    1260 calls)
     addusdens    :      2.32s CPU      2.67s WALL (      18 calls)

     Called by *egterg:
     h_psi        :    227.66s CPU    235.67s WALL (    5692 calls)
     s_psi        :     22.49s CPU     22.57s WALL (    5692 calls)
     g_psi        :      1.28s CPU      1.29s WALL (    4362 calls)
     cdiaghg      :    230.41s CPU    230.79s WALL (    5552 calls)

     Called by h_psi:
     h_psi:pot    :    226.29s CPU    234.28s WALL (    5692 calls)
     h_psi:calbec :     24.91s CPU     26.73s WALL (    5692 calls)
     vloc_psi     :    179.30s CPU    185.40s WALL (    5692 calls)
     add_vuspsi   :     22.03s CPU     22.11s WALL (    5692 calls)

     General routines
     calbec       :     36.75s CPU     39.49s WALL (    7302 calls)
     fft          :      0.46s CPU      0.50s WALL (     492 calls)
     ffts         :      0.04s CPU      0.04s WALL (      72 calls)
     fftw         :    201.03s CPU    207.73s WALL ( 1034566 calls)
     interpolate  :      0.06s CPU      0.06s WALL (      36 calls)
 
     Parallel routines
     fft_scatt_xy :     16.00s CPU     16.53s WALL ( 1035130 calls)
     fft_scatt_yz :    101.40s CPU    105.03s WALL ( 1035130 calls)
 
     PWSCF        : 11m 5.06s CPU    11m29.56s WALL

 
   This run was terminated on:   7:22:16  15Jun2020            

=------------------------------------------------------------------------------=
   JOB DONE.
=------------------------------------------------------------------------------=
