
     Program PWSCF v.6.3 starts on 15Jun2020 at  6:19: 4 

     This program is part of the open-source Quantum ESPRESSO suite
     for quantum simulation of materials; please cite
         "P. Giannozzi et al., J. Phys.:Condens. Matter 21 395502 (2009);
         "P. Giannozzi et al., J. Phys.:Condens. Matter 29 465901 (2017);
          URL http://www.quantum-espresso.org", 
     in publications or presentations arising from this work. More details at
     http://www.quantum-espresso.org/quote

     Parallel version (MPI & OpenMP), running on      20 processor cores
     Number of MPI processes:                20
     Threads/MPI process:                     1

     MPI processes distributed on     1 nodes
     R & G space division:  proc/nbgrp/npool/nimage =      20
     Reading input from wd/eos/eos_010.in
Warning: card &IONS ignored
Warning: card ION_DYNAMICS = 'BFGS', ignored
Warning: card / ignored
Warning: card &CELL ignored
Warning: card CELL_DYNAMICS = 'BFGS', ignored
Warning: card CELL_FACTOR = 2.0, ignored
Warning: card PRESS = 0.0, ignored
Warning: card / ignored

     Current dimensions of program PWSCF are:
     Max number of different atomic species (ntypx) = 10
     Max number of k-points (npk) =  40000
     Max angular momentum in pseudopotentials (lmaxx) =  3
     Message from routine read_upf::
     Pseudo file /rds/homes/b/bxp912/pp/Cr.pbe-spn-kjpaw_psl.1.0.0.UPF has been successfully fixed on the fly.
To avoid this message in the future you can permanently fix 
 your pseudo files following instructions given in: 
https://gitlab.com/QEF/q-e/blob/master/upftools/how_to_fix_upf.md
               file Cr.pbe-spn-kjpaw_psl.1.0.0.UPF: wavefunction(s)  3S 3P 3D renormalized
     Message from routine read_upf::
     Pseudo file /rds/homes/b/bxp912/pp/Cr.pbe-spn-kjpaw_psl.1.0.0.UPF has been successfully fixed on the fly.
To avoid this message in the future you can permanently fix 
 your pseudo files following instructions given in: 
https://gitlab.com/QEF/q-e/blob/master/upftools/how_to_fix_upf.md
               file Cr.pbe-spn-kjpaw_psl.1.0.0.UPF: wavefunction(s)  3S 3P 3D renormalized

     Subspace diagonalization in iterative solution of the eigenvalue problem:
     a serial algorithm will be used

     Found symmetry operation: I + (  0.0000  0.0000  0.5000)
     This is a supercell, fractional translations are disabled
 
     Parallelization info
     --------------------
     sticks:   dense  smooth     PW     G-vecs:    dense   smooth      PW
     Min         199     130     37                 9495     5080     759
     Max         200     131     38                 9500     5085     762
     Sum        3993    2617    749               189935   101673   15203
 


     bravais-lattice index     =            0
     lattice parameter (alat)  =      10.7442  a.u.
     unit-cell volume          =    1261.6708 (a.u.)^3
     number of atoms/cell      =           16
     number of atomic types    =            2
     number of electrons       =       224.00
     number of Kohn-Sham states=          134
     kinetic-energy cutoff     =      71.0000  Ry
     charge density cutoff     =     430.0000  Ry
     convergence threshold     =      1.0E-06
     mixing beta               =       0.1000
     number of iterations used =           10  plain     mixing
     Exchange-correlation      = SLA PW PBX PBC ( 1  4  3  4 0 0)

     celldm(1)=  10.744199  celldm(2)=   0.000000  celldm(3)=   0.000000
     celldm(4)=   0.000000  celldm(5)=   0.000000  celldm(6)=   0.000000

     crystal axes: (cart. coord. in units of alat)
               a(1) = (   1.005714   0.000000   0.000000 )  
               a(2) = (   0.000000   1.005714   0.000000 )  
               a(3) = (   0.000000   0.000000   1.005714 )  

     reciprocal axes: (cart. coord. in units 2 pi/alat)
               b(1) = (  0.994318  0.000000  0.000000 )  
               b(2) = (  0.000000  0.994318  0.000000 )  
               b(3) = (  0.000000  0.000000  0.994318 )  


     PseudoPot. # 1 for Cr read from file:
     /rds/homes/b/bxp912/pp/Cr.pbe-spn-kjpaw_psl.1.0.0.UPF
     MD5 check sum: cb1c17117da000fe5e03c4f1a6841d9c
     Pseudo is Projector augmented-wave + core cor, Zval = 14.0
     Generated using "atomic" code by A. Dal Corso v.5.1
     Shape of augmentation charge: PSQ
     Using radial grid of 1183 points,  6 beta functions with: 
                l(1) =   0
                l(2) =   0
                l(3) =   1
                l(4) =   1
                l(5) =   2
                l(6) =   2
     Q(r) pseudized with 0 coefficients 


     PseudoPot. # 2 for Cr read from file:
     /rds/homes/b/bxp912/pp/Cr.pbe-spn-kjpaw_psl.1.0.0.UPF
     MD5 check sum: cb1c17117da000fe5e03c4f1a6841d9c
     Pseudo is Projector augmented-wave + core cor, Zval = 14.0
     Generated using "atomic" code by A. Dal Corso v.5.1
     Shape of augmentation charge: PSQ
     Using radial grid of 1183 points,  6 beta functions with: 
                l(1) =   0
                l(2) =   0
                l(3) =   1
                l(4) =   1
                l(5) =   2
                l(6) =   2
     Q(r) pseudized with 0 coefficients 


     atomic species   valence    mass     pseudopotential
        Cr1           14.00    55.84500     Cr( 1.00)
        Cr2           14.00    55.84500     Cr( 1.00)

     Starting magnetic structure 
     atomic species   magnetization
        Cr1          0.100
        Cr2          0.100

     48 Sym. Ops., with inversion, found



   Cartesian axes

     site n.     atom                  positions (alat units)
         1           Cr1 tau(   1) = (   0.0000000   0.0000000   0.0000000  )
         2           Cr2 tau(   2) = (   0.2514290   0.2514290   0.2514286  )
         3           Cr1 tau(   3) = (   0.0000000   0.0000000   0.5028562  )
         4           Cr2 tau(   4) = (   0.2514290   0.2514290   0.7542847  )
         5           Cr1 tau(   5) = (   0.0000000   0.5028570   0.0000000  )
         6           Cr2 tau(   6) = (   0.2514290   0.7542850   0.2514286  )
         7           Cr1 tau(   7) = (   0.0000000   0.5028570   0.5028562  )
         8           Cr2 tau(   8) = (   0.2514290   0.7542850   0.7542847  )
         9           Cr1 tau(   9) = (   0.5028570   0.0000000   0.0000000  )
        10           Cr2 tau(  10) = (   0.7542850   0.2514290   0.2514286  )
        11           Cr1 tau(  11) = (   0.5028570   0.0000000   0.5028562  )
        12           Cr2 tau(  12) = (   0.7542850   0.2514290   0.7542847  )
        13           Cr1 tau(  13) = (   0.5028570   0.5028570   0.0000000  )
        14           Cr2 tau(  14) = (   0.7542850   0.7542850   0.2514286  )
        15           Cr1 tau(  15) = (   0.5028570   0.5028570   0.5028562  )
        16           Cr2 tau(  16) = (   0.7542850   0.7542850   0.7542847  )

     number of k points=    35  Marzari-Vanderbilt smearing, width (Ry)=  0.0400
                       cart. coord. in units 2pi/alat
        k(    1) = (   0.0552399   0.0552399   0.0552399), wk =   0.0109739
        k(    2) = (   0.0552399   0.0552399   0.1657197), wk =   0.0329218
        k(    3) = (   0.0552399   0.0552399   0.2761995), wk =   0.0329218
        k(    4) = (   0.0552399   0.0552399   0.3866793), wk =   0.0329218
        k(    5) = (   0.0552399   0.0552399  -0.4971591), wk =   0.0164609
        k(    6) = (   0.0552399   0.1657197   0.1657197), wk =   0.0329218
        k(    7) = (   0.0552399   0.1657197   0.2761995), wk =   0.0658436
        k(    8) = (   0.0552399   0.1657197   0.3866793), wk =   0.0658436
        k(    9) = (   0.0552399   0.1657197  -0.4971591), wk =   0.0329218
        k(   10) = (   0.0552399   0.2761995   0.2761995), wk =   0.0329218
        k(   11) = (   0.0552399   0.2761995   0.3866793), wk =   0.0658436
        k(   12) = (   0.0552399   0.2761995  -0.4971591), wk =   0.0329218
        k(   13) = (   0.0552399   0.3866793   0.3866793), wk =   0.0329218
        k(   14) = (   0.0552399   0.3866793  -0.4971591), wk =   0.0329218
        k(   15) = (   0.0552399  -0.4971591  -0.4971591), wk =   0.0082305
        k(   16) = (   0.1657197   0.1657197   0.1657197), wk =   0.0109739
        k(   17) = (   0.1657197   0.1657197   0.2761995), wk =   0.0329218
        k(   18) = (   0.1657197   0.1657197   0.3866793), wk =   0.0329218
        k(   19) = (   0.1657197   0.1657197  -0.4971591), wk =   0.0164609
        k(   20) = (   0.1657197   0.2761995   0.2761995), wk =   0.0329218
        k(   21) = (   0.1657197   0.2761995   0.3866793), wk =   0.0658436
        k(   22) = (   0.1657197   0.2761995  -0.4971591), wk =   0.0329218
        k(   23) = (   0.1657197   0.3866793   0.3866793), wk =   0.0329218
        k(   24) = (   0.1657197   0.3866793  -0.4971591), wk =   0.0329218
        k(   25) = (   0.1657197  -0.4971591  -0.4971591), wk =   0.0082305
        k(   26) = (   0.2761995   0.2761995   0.2761995), wk =   0.0109739
        k(   27) = (   0.2761995   0.2761995   0.3866793), wk =   0.0329218
        k(   28) = (   0.2761995   0.2761995  -0.4971591), wk =   0.0164609
        k(   29) = (   0.2761995   0.3866793   0.3866793), wk =   0.0329218
        k(   30) = (   0.2761995   0.3866793  -0.4971591), wk =   0.0329218
        k(   31) = (   0.2761995  -0.4971591  -0.4971591), wk =   0.0082305
        k(   32) = (   0.3866793   0.3866793   0.3866793), wk =   0.0109739
        k(   33) = (   0.3866793   0.3866793  -0.4971591), wk =   0.0164609
        k(   34) = (   0.3866793  -0.4971591  -0.4971591), wk =   0.0082305
        k(   35) = (  -0.4971591  -0.4971591  -0.4971591), wk =   0.0013717

     Dense  grid:   189935 G-vectors     FFT dimensions: (  72,  72,  72)

     Smooth grid:   101673 G-vectors     FFT dimensions: (  60,  60,  60)

     Estimated max dynamical RAM per process >     145.33 MB

     Estimated total dynamical RAM >       2.84 GB
     Generating pointlists ...
     new r_m :   0.1796 (alat units)  1.9301 (a.u.) for type    1
     new r_m :   0.1796 (alat units)  1.9301 (a.u.) for type    2

     Check: negative/imaginary core charge=   -0.000009    0.000000

     Initial potential from superposition of free atoms

     starting charge  223.98764, renormalised to  224.00000
     Starting wfcs are  160 randomized atomic wfcs
     Checking if some PAW data can be deallocated... 

     total cpu time spent up to now is       11.7 secs

     Self-consistent Calculation

     iteration #  1     ecut=    71.00 Ry     beta= 0.10
     Davidson diagonalization with overlap
     ethr =  1.00E-02,  avg # of iterations =  3.1

     Threshold (ethr) on eigenvalues was too large:
     Diagonalizing with lowered threshold

     Davidson diagonalization with overlap
     ethr =  7.88E-04,  avg # of iterations =  3.5

     total cpu time spent up to now is       72.5 secs

     total energy              =   -3971.39554058 Ry
     Harris-Foulkes estimate   =   -3971.57743183 Ry
     estimated scf accuracy    <       1.94832660 Ry

     total magnetization       =     4.76 Bohr mag/cell
     absolute magnetization    =     4.99 Bohr mag/cell

     iteration #  2     ecut=    71.00 Ry     beta= 0.10
     Davidson diagonalization with overlap
     ethr =  8.70E-04,  avg # of iterations =  1.0

     total cpu time spent up to now is       93.0 secs

     total energy              =   -3971.08986969 Ry
     Harris-Foulkes estimate   =   -3971.41889195 Ry
     estimated scf accuracy    <       1.25289863 Ry

     total magnetization       =     4.64 Bohr mag/cell
     absolute magnetization    =     4.84 Bohr mag/cell

     iteration #  3     ecut=    71.00 Ry     beta= 0.10
     Davidson diagonalization with overlap
     ethr =  5.59E-04,  avg # of iterations =  3.1

     total cpu time spent up to now is      126.0 secs

     total energy              =   -3971.38400316 Ry
     Harris-Foulkes estimate   =   -3971.43736322 Ry
     estimated scf accuracy    <       0.30346235 Ry

     total magnetization       =     3.85 Bohr mag/cell
     absolute magnetization    =     4.00 Bohr mag/cell

     iteration #  4     ecut=    71.00 Ry     beta= 0.10
     Davidson diagonalization with overlap
     ethr =  1.35E-04,  avg # of iterations =  1.7

     total cpu time spent up to now is      148.5 secs

     total energy              =   -3971.40549361 Ry
     Harris-Foulkes estimate   =   -3971.39493847 Ry
     estimated scf accuracy    <       0.19753574 Ry

     total magnetization       =     3.73 Bohr mag/cell
     absolute magnetization    =     3.90 Bohr mag/cell

     iteration #  5     ecut=    71.00 Ry     beta= 0.10
     Davidson diagonalization with overlap
     ethr =  8.82E-05,  avg # of iterations =  2.8

     total cpu time spent up to now is      178.9 secs

     total energy              =   -3971.49269513 Ry
     Harris-Foulkes estimate   =   -3971.44499559 Ry
     estimated scf accuracy    <       0.17512532 Ry

     total magnetization       =     2.83 Bohr mag/cell
     absolute magnetization    =     3.05 Bohr mag/cell

     iteration #  6     ecut=    71.00 Ry     beta= 0.10
     Davidson diagonalization with overlap
     ethr =  7.82E-05,  avg # of iterations =  2.1

     total cpu time spent up to now is      205.4 secs

     total energy              =   -3971.53891619 Ry
     Harris-Foulkes estimate   =   -3971.53896250 Ry
     estimated scf accuracy    <       0.00941365 Ry

     total magnetization       =     0.27 Bohr mag/cell
     absolute magnetization    =     0.48 Bohr mag/cell

     iteration #  7     ecut=    71.00 Ry     beta= 0.10
     Davidson diagonalization with overlap
     c_bands:  1 eigenvalues not converged
     ethr =  4.20E-06,  avg # of iterations =  5.9

     total cpu time spent up to now is      247.0 secs

     total energy              =   -3971.53688349 Ry
     Harris-Foulkes estimate   =   -3971.54012835 Ry
     estimated scf accuracy    <       0.00811583 Ry

     total magnetization       =     0.18 Bohr mag/cell
     absolute magnetization    =     0.50 Bohr mag/cell

     iteration #  8     ecut=    71.00 Ry     beta= 0.10
     Davidson diagonalization with overlap
     ethr =  3.62E-06,  avg # of iterations =  3.6

     total cpu time spent up to now is      289.2 secs

     total energy              =   -3971.54116089 Ry
     Harris-Foulkes estimate   =   -3971.54062563 Ry
     estimated scf accuracy    <       0.00642723 Ry

     total magnetization       =     0.16 Bohr mag/cell
     absolute magnetization    =     0.39 Bohr mag/cell

     iteration #  9     ecut=    71.00 Ry     beta= 0.10
     Davidson diagonalization with overlap
     ethr =  2.87E-06,  avg # of iterations =  1.3

     total cpu time spent up to now is      310.6 secs

     total energy              =   -3971.53980986 Ry
     Harris-Foulkes estimate   =   -3971.54133458 Ry
     estimated scf accuracy    <       0.00462480 Ry

     total magnetization       =     0.11 Bohr mag/cell
     absolute magnetization    =     0.27 Bohr mag/cell

     iteration # 10     ecut=    71.00 Ry     beta= 0.10
     Davidson diagonalization with overlap
     ethr =  2.06E-06,  avg # of iterations =  2.8

     total cpu time spent up to now is      340.9 secs

     total energy              =   -3971.54049541 Ry
     Harris-Foulkes estimate   =   -3971.54051753 Ry
     estimated scf accuracy    <       0.00013110 Ry

     total magnetization       =     0.05 Bohr mag/cell
     absolute magnetization    =     0.14 Bohr mag/cell

     iteration # 11     ecut=    71.00 Ry     beta= 0.10
     Davidson diagonalization with overlap
     ethr =  5.85E-08,  avg # of iterations =  5.8

     total cpu time spent up to now is      388.5 secs

     total energy              =   -3971.54062749 Ry
     Harris-Foulkes estimate   =   -3971.54053403 Ry
     estimated scf accuracy    <       0.00017839 Ry

     total magnetization       =     0.07 Bohr mag/cell
     absolute magnetization    =     0.16 Bohr mag/cell

     iteration # 12     ecut=    71.00 Ry     beta= 0.10
     Davidson diagonalization with overlap
     ethr =  5.85E-08,  avg # of iterations =  6.0

     total cpu time spent up to now is      451.6 secs

     total energy              =   -3971.54049790 Ry
     Harris-Foulkes estimate   =   -3971.54079258 Ry
     estimated scf accuracy    <       0.00260113 Ry

     total magnetization       =     0.02 Bohr mag/cell
     absolute magnetization    =     0.09 Bohr mag/cell

     iteration # 13     ecut=    71.00 Ry     beta= 0.10
     Davidson diagonalization with overlap
     ethr =  5.85E-08,  avg # of iterations =  5.6

     total cpu time spent up to now is      511.2 secs

     total energy              =   -3971.54068863 Ry
     Harris-Foulkes estimate   =   -3971.54065941 Ry
     estimated scf accuracy    <       0.00005242 Ry

     total magnetization       =     0.05 Bohr mag/cell
     absolute magnetization    =     0.10 Bohr mag/cell

     iteration # 14     ecut=    71.00 Ry     beta= 0.10
     Davidson diagonalization with overlap
     ethr =  2.34E-08,  avg # of iterations =  4.0

     total cpu time spent up to now is      548.2 secs

     total energy              =   -3971.54072215 Ry
     Harris-Foulkes estimate   =   -3971.54072098 Ry
     estimated scf accuracy    <       0.00008431 Ry

     total magnetization       =    -0.00 Bohr mag/cell
     absolute magnetization    =     0.03 Bohr mag/cell

     iteration # 15     ecut=    71.00 Ry     beta= 0.10
     Davidson diagonalization with overlap
     ethr =  2.34E-08,  avg # of iterations =  1.0

     total cpu time spent up to now is      568.7 secs

     total energy              =   -3971.54072510 Ry
     Harris-Foulkes estimate   =   -3971.54072317 Ry
     estimated scf accuracy    <       0.00004172 Ry

     total magnetization       =     0.00 Bohr mag/cell
     absolute magnetization    =     0.02 Bohr mag/cell

     iteration # 16     ecut=    71.00 Ry     beta= 0.10
     Davidson diagonalization with overlap
     ethr =  1.86E-08,  avg # of iterations =  2.9

     total cpu time spent up to now is      595.3 secs

     total energy              =   -3971.54072640 Ry
     Harris-Foulkes estimate   =   -3971.54072830 Ry
     estimated scf accuracy    <       0.00002247 Ry

     total magnetization       =    -0.00 Bohr mag/cell
     absolute magnetization    =     0.02 Bohr mag/cell

     iteration # 17     ecut=    71.00 Ry     beta= 0.10
     Davidson diagonalization with overlap
     ethr =  1.00E-08,  avg # of iterations =  2.8

     total cpu time spent up to now is      623.1 secs

     total energy              =   -3971.54073022 Ry
     Harris-Foulkes estimate   =   -3971.54072928 Ry
     estimated scf accuracy    <       0.00000483 Ry

     total magnetization       =     0.00 Bohr mag/cell
     absolute magnetization    =     0.02 Bohr mag/cell

     iteration # 18     ecut=    71.00 Ry     beta= 0.10
     Davidson diagonalization with overlap
     ethr =  2.15E-09,  avg # of iterations =  3.9
 
     Magnetic moment per site:
     atom:    1    charge:   12.2292    magn:   -0.0002    constr:    0.0000
     atom:    2    charge:   12.2291    magn:   -0.0010    constr:    0.0000
     atom:    3    charge:   12.2292    magn:    0.0010    constr:    0.0000
     atom:    4    charge:   12.2291    magn:   -0.0010    constr:    0.0000
     atom:    5    charge:   12.2292    magn:    0.0010    constr:    0.0000
     atom:    6    charge:   12.2291    magn:   -0.0010    constr:    0.0000
     atom:    7    charge:   12.2292    magn:    0.0012    constr:    0.0000
     atom:    8    charge:   12.2291    magn:   -0.0010    constr:    0.0000
     atom:    9    charge:   12.2292    magn:    0.0010    constr:    0.0000
     atom:   10    charge:   12.2291    magn:   -0.0010    constr:    0.0000
     atom:   11    charge:   12.2292    magn:    0.0012    constr:    0.0000
     atom:   12    charge:   12.2291    magn:   -0.0010    constr:    0.0000
     atom:   13    charge:   12.2292    magn:    0.0012    constr:    0.0000
     atom:   14    charge:   12.2291    magn:   -0.0010    constr:    0.0000
     atom:   15    charge:   12.2292    magn:    0.0019    constr:    0.0000
     atom:   16    charge:   12.2291    magn:   -0.0010    constr:    0.0000

     total cpu time spent up to now is      660.7 secs

     End of self-consistent calculation

 ------ SPIN UP ------------


          k = 0.0552 0.0552 0.0552 ( 12776 PWs)   bands (ev):

   -52.6282 -52.4620 -52.4619 -52.4619 -52.4332 -52.4328 -52.4328 -52.4326
   -52.4325 -52.4323 -52.4300 -52.4299 -52.4299 -52.4165 -52.4155 -52.2945
   -24.2993 -24.2993 -24.2993 -24.2949 -24.2949 -24.2949 -24.0254 -24.0254
   -24.0158 -23.9283 -23.9236 -23.9236 -23.9236 -23.8903 -23.8903 -23.8717
   -23.8717 -23.8717 -23.8132 -23.8132 -23.7753 -23.7370 -23.7370 -23.7370
   -23.7204 -23.7204 -23.7203 -23.6973 -23.6973 -23.6973 -23.6924 -23.6924
   -23.6924 -23.6833 -23.6833 -23.6833 -23.6677 -23.6677 -23.6677 -23.4244
   -23.4244 -23.4243 -23.4230 -23.4197 -23.4196 -23.4196 -23.4127 -23.4127
    11.4643  14.8944  14.8944  14.8944  14.9163  14.9163  14.9163  15.0460
    15.0460  15.0933  15.0933  15.0934  15.5313  15.5313  15.5314  16.7986
    16.8651  16.8651  16.8651  16.8807  16.8807  16.8807  16.9008  16.9008
    17.0652  17.0652  17.1221  17.2593  17.2593  17.2593  17.7085  17.7085
    17.7085  18.3767  18.3767  18.4310  18.7160  18.7160  18.7161  18.8319
    18.8319  18.8320  18.9306  18.9307  18.9307  19.0385  19.0385  19.0385
    19.9118  19.9118  19.9118  19.9603  19.9604  19.9604  20.1866  20.1866
    20.1867  20.1991  20.1991  20.1991  20.3987  20.3987  20.3987  20.4189
    20.4189  20.4523  20.4523  20.4523  20.7616  20.7616

          k = 0.0552 0.0552 0.1657 ( 12783 PWs)   bands (ev):

   -52.6223 -52.4916 -52.4605 -52.4605 -52.4362 -52.4361 -52.4323 -52.4321
   -52.4316 -52.4291 -52.4284 -52.4284 -52.4175 -52.4164 -52.4047 -52.2987
   -24.2868 -24.2868 -24.2855 -24.2816 -24.2735 -24.2735 -24.0317 -24.0158
   -24.0010 -23.9848 -23.9694 -23.9693 -23.9669 -23.9653 -23.9194 -23.9194
   -23.8653 -23.8227 -23.8102 -23.7906 -23.7730 -23.7379 -23.7366 -23.7366
   -23.7170 -23.7072 -23.7029 -23.7029 -23.7016 -23.6888 -23.6888 -23.6840
   -23.6840 -23.6795 -23.6794 -23.6308 -23.6287 -23.6286 -23.6166 -23.4467
   -23.4380 -23.4380 -23.4363 -23.4326 -23.4242 -23.4242 -23.4214 -23.4166
    11.5988  14.5328  14.9213  14.9213  14.9885  14.9885  15.0031  15.0238
    15.1152  15.1224  15.1363  15.1364  15.5643  15.5644  15.7959  16.6735
    16.7934  16.8166  16.8206  16.8455  16.8596  16.9215  16.9215  16.9423
    16.9680  16.9680  17.2190  17.2190  17.2811  17.2908  17.6096  17.6096
    18.1273  18.3454  18.3692  18.4726  18.4726  18.5015  18.5505  18.6739
    18.6739  18.7169  19.0280  19.0281  19.1614  19.1614  19.1955  19.3102
    19.4124  19.4125  19.6331  19.6789  19.6790  19.6927  19.8100  20.1772
    20.1772  20.3178  20.3178  20.3268  20.4117  20.4117  20.4226  20.4503
    20.4558  20.4577  20.4577  20.4865  20.7653  20.7921

          k = 0.0552 0.0552 0.2762 ( 12757 PWs)   bands (ev):

   -52.6108 -52.5207 -52.4579 -52.4578 -52.4403 -52.4403 -52.4313 -52.4312
   -52.4299 -52.4278 -52.4278 -52.4274 -52.4194 -52.4179 -52.3788 -52.3071
   -24.2584 -24.2581 -24.2580 -24.2554 -24.2367 -24.2366 -24.0487 -24.0402
   -24.0347 -24.0325 -24.0325 -23.9965 -23.9962 -23.9859 -23.9858 -23.9789
   -23.8419 -23.8399 -23.8237 -23.8130 -23.7424 -23.7334 -23.7334 -23.7262
   -23.7189 -23.7093 -23.7093 -23.6862 -23.6862 -23.6838 -23.6838 -23.6663
   -23.6538 -23.6276 -23.6276 -23.5816 -23.5797 -23.5796 -23.5683 -23.4867
   -23.4605 -23.4605 -23.4600 -23.4578 -23.4387 -23.4379 -23.4379 -23.4312
    11.8627  13.9155  14.9888  14.9888  15.1057  15.1057  15.1904  15.1904
    15.2121  15.2301  15.2523  15.2647  15.5849  15.5849  15.8772  16.4102
    16.4998  16.5604  16.7365  16.7994  16.8111  16.8229  17.0476  17.0476
    17.1244  17.1244  17.2306  17.2307  17.5504  17.5504  17.5575  17.5792
    18.1434  18.1434  18.3232  18.3245  18.3245  18.3566  18.3580  18.4328
    18.6054  18.8187  18.8188  18.8330  19.0330  19.0331  19.2608  19.3005
    19.3238  19.3238  19.3664  19.3664  19.3706  19.5117  19.6385  20.1465
    20.1910  20.1910  20.3109  20.3109  20.4679  20.4862  20.5268  20.5303
    20.5303  20.7412  20.7428  20.7653  20.7722  20.7999

          k = 0.0552 0.0552 0.3867 ( 12752 PWs)   bands (ev):

   -52.5941 -52.5481 -52.4542 -52.4541 -52.4450 -52.4450 -52.4301 -52.4300
   -52.4281 -52.4281 -52.4275 -52.4252 -52.4219 -52.4201 -52.3557 -52.3195
   -24.2188 -24.2171 -24.2152 -24.2152 -24.1862 -24.1862 -24.1114 -24.1080
   -24.0987 -24.0987 -24.0568 -24.0567 -24.0342 -24.0168 -23.9682 -23.9497
   -23.8897 -23.8710 -23.8119 -23.7931 -23.7519 -23.7421 -23.7286 -23.7286
   -23.7161 -23.7161 -23.6846 -23.6846 -23.6837 -23.6837 -23.6718 -23.6008
   -23.5937 -23.5766 -23.5765 -23.5397 -23.5364 -23.5330 -23.5330 -23.5244
   -23.4950 -23.4949 -23.4917 -23.4917 -23.4642 -23.4609 -23.4609 -23.4549
    12.2461  13.3005  15.0794  15.0794  15.2078  15.2079  15.2549  15.2549
    15.4512  15.4549  15.5042  15.5172  15.5355  15.5355  15.8091  16.0400
    16.2062  16.2201  16.7213  16.7431  16.7711  16.7811  17.2379  17.2379
    17.3431  17.3431  17.3919  17.3920  17.6181  17.6182  17.8420  17.8420
    17.9079  17.9290  17.9755  17.9755  18.2529  18.2530  18.3131  18.3497
    18.3589  18.3661  18.4400  18.4401  18.7455  18.7879  18.7913  19.1316
    19.1876  19.5977  19.5977  19.6330  19.6330  19.8753  19.8864  20.0134
    20.0237  20.0237  20.1447  20.1447  20.5296  20.5417  20.6271  20.6746
    20.6784  20.6811  20.7813  20.8018  20.8081  20.8172

          k = 0.0552 0.0552-0.4972 ( 12732 PWs)   bands (ev):

   -52.5731 -52.5727 -52.4500 -52.4499 -52.4495 -52.4495 -52.4292 -52.4291
   -52.4287 -52.4287 -52.4249 -52.4245 -52.4229 -52.4224 -52.3360 -52.3356
   -24.1686 -24.1684 -24.1682 -24.1679 -24.1610 -24.1610 -24.1609 -24.1609
   -24.1251 -24.1251 -24.1250 -24.1250 -24.0292 -24.0289 -23.9327 -23.9322
   -23.9136 -23.9133 -23.7819 -23.7815 -23.7684 -23.7680 -23.7228 -23.7228
   -23.7224 -23.7224 -23.6840 -23.6840 -23.6835 -23.6835 -23.6026 -23.6023
   -23.5433 -23.5429 -23.5401 -23.5397 -23.5308 -23.5308 -23.5307 -23.5306
   -23.4971 -23.4967 -23.4928 -23.4927 -23.4927 -23.4926 -23.4864 -23.4861
    12.7329  12.7334  15.1643  15.1643  15.1645  15.1646  15.4114  15.4114
    15.4116  15.4116  15.6480  15.6483  15.7190  15.7195  15.8522  15.8526
    15.8564  15.8568  16.7367  16.7371  16.7480  16.7484  17.4796  17.4796
    17.4797  17.4797  17.5837  17.5837  17.5839  17.5839  17.8051  17.8051
    17.8053  17.8054  17.9766  17.9767  17.9769  17.9770  18.3218  18.3219
    18.3220  18.3222  18.3356  18.3357  18.3514  18.3518  18.9216  18.9220
    19.5593  19.5596  19.8226  19.8226  19.8226  19.8227  19.9146  19.9146
    19.9146  19.9146  20.2728  20.2730  20.4192  20.4196  20.6010  20.6014
    20.6082  20.6087  20.7515  20.7519  20.7914  20.7918

          k = 0.0552 0.1657 0.1657 ( 12757 PWs)   bands (ev):

   -52.6166 -52.4893 -52.4893 -52.4591 -52.4446 -52.4351 -52.4351 -52.4316
   -52.4276 -52.4276 -52.4219 -52.4190 -52.4168 -52.4050 -52.4050 -52.3028
   -24.2830 -24.2736 -24.2735 -24.2616 -24.2616 -24.2442 -24.0426 -24.0205
   -24.0103 -24.0085 -24.0085 -23.9983 -23.9895 -23.9777 -23.9511 -23.8811
   -23.8594 -23.8594 -23.8054 -23.7891 -23.7890 -23.7462 -23.7308 -23.7307
   -23.7178 -23.7144 -23.7144 -23.7074 -23.6978 -23.6978 -23.6912 -23.6758
   -23.6734 -23.6454 -23.6327 -23.6326 -23.5989 -23.5797 -23.5797 -23.4790
   -23.4603 -23.4475 -23.4474 -23.4360 -23.4360 -23.4287 -23.4193 -23.4131
    11.7312  14.5941  14.5942  14.8918  15.0311  15.0311  15.0947  15.0947
    15.0973  15.1839  15.1886  15.1975  15.6103  15.8314  15.8315  16.5587
    16.6868  16.8188  16.8189  16.8868  16.8986  16.8986  16.9401  16.9401
    16.9464  17.0240  17.0855  17.1590  17.2691  17.3047  17.4992  17.9411
    17.9411  18.2733  18.3209  18.3210  18.3493  18.3727  18.5320  18.6188
    18.9227  18.9227  18.9743  18.9919  18.9919  19.1209  19.2390  19.2442
    19.2443  19.3619  19.3620  19.4231  19.4232  19.5281  19.8989  19.8990
    20.1835  20.3116  20.3449  20.3450  20.3832  20.4161  20.4161  20.4271
    20.4289  20.6236  20.7281  20.7340  20.7340  20.7727

          k = 0.0552 0.1657 0.2762 ( 12767 PWs)   bands (ev):

   -52.6054 -52.5176 -52.4849 -52.4565 -52.4535 -52.4392 -52.4331 -52.4306
   -52.4271 -52.4261 -52.4213 -52.4179 -52.4166 -52.4058 -52.3800 -52.3108
   -24.2633 -24.2476 -24.2464 -24.2383 -24.2271 -24.1996 -24.0671 -24.0659
   -24.0535 -24.0461 -24.0454 -24.0362 -24.0030 -23.9919 -23.9482 -23.9283
   -23.8626 -23.8397 -23.7984 -23.7922 -23.7828 -23.7812 -23.7492 -23.7363
   -23.7331 -23.7228 -23.7148 -23.6958 -23.6948 -23.6774 -23.6643 -23.6497
   -23.6357 -23.6237 -23.6030 -23.5844 -23.5609 -23.5350 -23.5345 -23.5262
   -23.4911 -23.4664 -23.4659 -23.4594 -23.4470 -23.4454 -23.4236 -23.4190
    11.9910  13.9967  14.6948  14.8875  15.0989  15.2108  15.2420  15.2448
    15.2602  15.2978  15.3136  15.3431  15.6541  15.8414  15.9224  16.4295
    16.4359  16.5300  16.8100  16.8586  16.8887  16.8923  16.9152  17.0148
    17.0407  17.0809  17.1318  17.2707  17.4063  17.4462  17.5104  17.8059
    18.0228  18.1393  18.1404  18.2056  18.2259  18.2733  18.3255  18.4703
    18.5583  18.7093  18.7683  18.8637  18.9398  19.0079  19.0142  19.1101
    19.2188  19.3339  19.3604  19.4191  19.4486  19.6289  19.6302  20.0278
    20.1742  20.2218  20.2537  20.3155  20.3537  20.3986  20.4476  20.4823
    20.6594  20.7194  20.7226  20.7507  20.7993  20.8043

          k = 0.0552 0.1657 0.3867 ( 12750 PWs)   bands (ev):

   -52.5891 -52.5443 -52.4787 -52.4625 -52.4528 -52.4438 -52.4305 -52.4294
   -52.4274 -52.4244 -52.4239 -52.4197 -52.4124 -52.4072 -52.3577 -52.3227
   -24.2288 -24.2098 -24.2065 -24.2046 -24.1803 -24.1425 -24.1272 -24.1152
   -24.1058 -24.1016 -24.0633 -24.0602 -24.0532 -24.0026 -23.9642 -23.9135
   -23.8868 -23.8326 -23.8292 -23.7832 -23.7734 -23.7655 -23.7479 -23.7463
   -23.7373 -23.7317 -23.7212 -23.6958 -23.6951 -23.6545 -23.6402 -23.6236
   -23.5912 -23.5841 -23.5750 -23.5611 -23.5404 -23.5290 -23.5237 -23.4945
   -23.4944 -23.4942 -23.4940 -23.4913 -23.4701 -23.4656 -23.4376 -23.4352
    12.3677  13.3989  14.7965  14.8873  15.1881  15.2974  15.3587  15.4205
    15.4973  15.5359  15.5412  15.5778  15.6260  15.7609  15.8620  16.0873
    16.2098  16.2405  16.7622  16.8121  16.8156  16.8394  17.1104  17.1816
    17.1998  17.2337  17.2611  17.4043  17.5138  17.6667  17.7556  17.8175
    17.8820  17.9198  17.9653  17.9996  18.1493  18.1581  18.1853  18.2012
    18.2427  18.2989  18.3328  18.4748  18.5640  18.5654  18.9450  19.3638
    19.3813  19.5624  19.5666  19.6410  19.6471  19.6696  19.8654  19.9486
    19.9595  20.0584  20.1482  20.2006  20.3517  20.4731  20.5047  20.5848
    20.6178  20.6443  20.6530  20.7312  20.7951  20.7980

          k = 0.0552 0.1657-0.4972 ( 12742 PWs)   bands (ev):

   -52.5686 -52.5682 -52.4713 -52.4709 -52.4487 -52.4483 -52.4285 -52.4281
   -52.4276 -52.4271 -52.4221 -52.4216 -52.4095 -52.4091 -52.3387 -52.3382
   -24.1823 -24.1822 -24.1629 -24.1625 -24.1620 -24.1615 -24.1570 -24.1569
   -24.1244 -24.1243 -24.0755 -24.0754 -24.0607 -24.0605 -23.9290 -23.9286
   -23.8737 -23.8735 -23.7991 -23.7987 -23.7618 -23.7616 -23.7613 -23.7613
   -23.7401 -23.7398 -23.6956 -23.6953 -23.6504 -23.6503 -23.6468 -23.6463
   -23.5736 -23.5735 -23.5386 -23.5382 -23.5313 -23.5310 -23.5233 -23.5233
   -23.5021 -23.5017 -23.4913 -23.4913 -23.4614 -23.4613 -23.4609 -23.4608
    12.8447  12.8452  14.8633  14.8636  15.2673  15.2676  15.5119  15.5121
    15.6041  15.6043  15.7010  15.7014  15.7860  15.7865  15.8836  15.8840
    15.9004  15.9008  16.7734  16.7737  16.8027  16.8030  17.3557  17.3559
    17.3737  17.3739  17.4158  17.4159  17.4722  17.4726  17.8450  17.8451
    17.8859  17.8861  17.9566  17.9568  18.0770  18.0772  18.1363  18.1365
    18.1377  18.1378  18.1771  18.1772  18.2732  18.2735  19.1486  19.1488
    19.6680  19.6683  19.7084  19.7084  19.8612  19.8613  19.9199  19.9199
    19.9462  19.9463  19.9668  19.9668  20.3365  20.3368  20.5584  20.5588
    20.5766  20.5770  20.7136  20.7140  20.7931  20.7934

          k = 0.0552 0.2762 0.2762 ( 12766 PWs)   bands (ev):

   -52.5947 -52.5116 -52.5116 -52.4670 -52.4539 -52.4371 -52.4371 -52.4296
   -52.4258 -52.4257 -52.4240 -52.4187 -52.4067 -52.3825 -52.3825 -52.3182
   -24.2525 -24.2239 -24.2238 -24.2088 -24.2087 -24.1484 -24.0904 -24.0891
   -24.0891 -24.0739 -24.0726 -24.0704 -24.0350 -23.9747 -23.9110 -23.8638
   -23.8621 -23.8620 -23.8307 -23.8306 -23.7907 -23.7636 -23.7566 -23.7478
   -23.7477 -23.7276 -23.7276 -23.7135 -23.7135 -23.7059 -23.6445 -23.6122
   -23.5905 -23.5904 -23.5875 -23.5811 -23.5712 -23.5356 -23.5285 -23.4952
   -23.4951 -23.4772 -23.4772 -23.4653 -23.4653 -23.4609 -23.4184 -23.4139
    12.2420  14.1439  14.1439  14.7868  15.3097  15.3097  15.3677  15.4042
    15.4103  15.4104  15.4254  15.4977  15.7476  15.9406  15.9406  16.3580
    16.4384  16.5531  16.5531  16.8741  16.9582  16.9582  16.9620  17.0075
    17.0075  17.0314  17.1020  17.2609  17.3894  17.4831  17.4884  17.9040
    17.9041  18.0269  18.0269  18.0323  18.0514  18.0843  18.1353  18.2806
    18.5002  18.5003  18.5671  18.5671  18.7172  18.8416  18.8417  18.9706
    19.4321  19.4321  19.5066  19.5538  19.5948  19.5949  19.8601  19.9747
    19.9747  20.1682  20.2845  20.2845  20.3270  20.3464  20.3464  20.3634
    20.4506  20.6642  20.6679  20.6704  20.7954  20.8047

          k = 0.0552 0.2762 0.3867 ( 12737 PWs)   bands (ev):

   -52.5792 -52.5368 -52.5030 -52.4801 -52.4503 -52.4415 -52.4342 -52.4284
   -52.4274 -52.4261 -52.4239 -52.4201 -52.3983 -52.3863 -52.3616 -52.3293
   -24.2271 -24.1919 -24.1901 -24.1830 -24.1694 -24.1420 -24.1202 -24.1096
   -24.1092 -24.0996 -24.0900 -24.0857 -24.0771 -23.9486 -23.9381 -23.8753
   -23.8696 -23.8444 -23.8169 -23.7903 -23.7798 -23.7791 -23.7784 -23.7770
   -23.7694 -23.7587 -23.7361 -23.7139 -23.7120 -23.6727 -23.6456 -23.6266
   -23.5995 -23.5718 -23.5686 -23.5518 -23.5492 -23.5405 -23.5110 -23.4953
   -23.4928 -23.4923 -23.4837 -23.4757 -23.4617 -23.4617 -23.4228 -23.4199
    12.6046  13.5851  14.3278  14.6664  15.3939  15.4510  15.5532  15.5745
    15.5796  15.6002  15.6804  15.7096  15.7768  15.8720  15.8944  16.2228
    16.2416  16.2422  16.8116  16.8411  16.8941  16.8953  16.9281  17.0441
    17.0875  17.1304  17.2007  17.2276  17.5581  17.6018  17.6432  17.6552
    17.7622  17.8830  17.8963  17.9570  17.9789  17.9868  18.0839  18.1124
    18.1321  18.2123  18.2235  18.2282  18.3539  18.4528  19.1728  19.1954
    19.5849  19.6135  19.7033  19.7188  19.7316  19.7434  19.7447  19.8268
    19.9515  20.0407  20.1313  20.1838  20.2184  20.3356  20.3740  20.4103
    20.4849  20.5175  20.5791  20.5870  20.7000  20.7997

          k = 0.0552 0.2762-0.4972 ( 12736 PWs)   bands (ev):

   -52.5599 -52.5594 -52.4926 -52.4921 -52.4463 -52.4459 -52.4311 -52.4306
   -52.4273 -52.4269 -52.4222 -52.4217 -52.3917 -52.3913 -52.3440 -52.3436
   -24.1893 -24.1893 -24.1526 -24.1525 -24.1522 -24.1521 -24.1503 -24.1502
   -24.1240 -24.1239 -24.0992 -24.0991 -24.0142 -24.0141 -23.9152 -23.9148
   -23.8247 -23.8246 -23.8141 -23.8139 -23.7997 -23.7993 -23.7671 -23.7668
   -23.7593 -23.7590 -23.7169 -23.7168 -23.7142 -23.7140 -23.6202 -23.6202
   -23.6118 -23.6114 -23.5275 -23.5272 -23.5205 -23.5202 -23.5141 -23.5140
   -23.5136 -23.5132 -23.4909 -23.4909 -23.4373 -23.4373 -23.4363 -23.4362
    13.0604  13.0609  14.5113  14.5117  15.4566  15.4568  15.6948  15.6950
    15.7385  15.7387  15.7520  15.7524  15.9331  15.9335  15.9603  15.9607
    15.9764  15.9767  16.8448  16.8450  16.8761  16.8764  17.1491  17.1495
    17.1778  17.1782  17.1841  17.1844  17.4112  17.4113  17.8596  17.8597
    17.8682  17.8683  17.8746  17.8747  17.9221  17.9221  17.9254  17.9255
    18.0858  18.0859  18.0878  18.0880  18.1739  18.1742  19.4391  19.4393
    19.5470  19.5471  19.6241  19.6242  19.8370  19.8373  19.9466  19.9467
    19.9711  19.9712  20.0148  20.0149  20.1348  20.1351  20.4772  20.4776
    20.4957  20.4961  20.6445  20.6449  20.6797  20.6798

          k = 0.0552 0.3867 0.3867 ( 12729 PWs)   bands (ev):

   -52.5650 -52.5261 -52.5261 -52.4971 -52.4469 -52.4385 -52.4384 -52.4310
   -52.4270 -52.4245 -52.4245 -52.4212 -52.3861 -52.3677 -52.3677 -52.3390
   -24.2111 -24.1682 -24.1681 -24.1555 -24.1554 -24.1443 -24.1442 -24.1286
   -24.1232 -24.1228 -24.1161 -24.0985 -24.0184 -23.9248 -23.8665 -23.8665
   -23.8576 -23.8575 -23.8403 -23.8223 -23.8085 -23.7907 -23.7906 -23.7871
   -23.7708 -23.7361 -23.7361 -23.7256 -23.7228 -23.7228 -23.7163 -23.6189
   -23.6016 -23.5627 -23.5627 -23.5407 -23.5295 -23.5218 -23.5039 -23.5006
   -23.4991 -23.4991 -23.4918 -23.4918 -23.4368 -23.4368 -23.4173 -23.4149
    12.9434  13.8371  13.8372  14.4090  15.6092  15.6691  15.6691  15.6875
    15.7081  15.8070  15.8070  15.8740  15.8741  15.9073  15.9416  16.1675
    16.1985  16.5102  16.5102  16.8863  16.9096  16.9354  16.9852  16.9852
    16.9965  16.9966  17.0702  17.2288  17.3179  17.4911  17.6035  17.6615
    17.6616  17.7769  17.8394  17.8542  17.8795  17.8795  17.9098  17.9098
    18.0398  18.0399  18.0485  18.1544  18.1786  18.7720  18.7721  19.4660
    19.5364  19.6283  19.6957  19.6957  19.8664  19.8665  19.8904  19.8997
    20.0441  20.0442  20.0858  20.1871  20.2040  20.2378  20.2378  20.2636
    20.2636  20.4807  20.4868  20.4875  20.6027  20.7133

          k = 0.0552 0.3867-0.4972 ( 12706 PWs)   bands (ev):

   -52.5472 -52.5468 -52.5128 -52.5124 -52.4430 -52.4426 -52.4350 -52.4346
   -52.4259 -52.4254 -52.4230 -52.4225 -52.3760 -52.3756 -52.3521 -52.3516
   -24.1825 -24.1824 -24.1442 -24.1439 -24.1438 -24.1436 -24.1411 -24.1408
   -24.1348 -24.1348 -24.1258 -24.1256 -23.9440 -23.9440 -23.8942 -23.8938
   -23.8353 -23.8348 -23.8204 -23.8202 -23.7942 -23.7940 -23.7912 -23.7912
   -23.7729 -23.7728 -23.7564 -23.7562 -23.7334 -23.7332 -23.6698 -23.6698
   -23.5805 -23.5800 -23.5308 -23.5304 -23.5140 -23.5138 -23.5114 -23.5112
   -23.5078 -23.5077 -23.4940 -23.4939 -23.4219 -23.4218 -23.4210 -23.4209
    13.3636  13.3640  14.1234  14.1238  15.6898  15.6900  15.7978  15.7981
    15.8103  15.8106  15.9111  15.9113  15.9581  15.9584  16.0548  16.0551
    16.2152  16.2156  16.8513  16.8517  16.9108  16.9110  16.9114  16.9115
    16.9673  16.9676  17.0308  17.0310  17.4650  17.4651  17.6359  17.6360
    17.7226  17.7227  17.7257  17.7259  17.7284  17.7284  17.7874  17.7875
    18.0594  18.0595  18.0915  18.0918  18.3911  18.3912  19.1369  19.1369
    19.6203  19.6204  19.7487  19.7488  19.9064  19.9066  20.0088  20.0090
    20.0738  20.0739  20.0809  20.0810  20.0811  20.0813  20.3609  20.3612
    20.3724  20.3728  20.3848  20.3848  20.5658  20.5662

          k = 0.0552-0.4972-0.4972 ( 12664 PWs)   bands (ev):

   -52.5315 -52.5312 -52.5310 -52.5307 -52.4393 -52.4389 -52.4389 -52.4385
   -52.4244 -52.4241 -52.4240 -52.4237 -52.3629 -52.3626 -52.3625 -52.3622
   -24.1636 -24.1636 -24.1636 -24.1636 -24.1409 -24.1408 -24.1407 -24.1405
   -24.1316 -24.1314 -24.1314 -24.1312 -23.8684 -23.8684 -23.8684 -23.8684
   -23.8671 -23.8669 -23.8667 -23.8664 -23.8136 -23.8136 -23.8135 -23.8135
   -23.7482 -23.7482 -23.7481 -23.7481 -23.7209 -23.7209 -23.7208 -23.7208
   -23.5534 -23.5531 -23.5530 -23.5527 -23.5067 -23.5066 -23.5065 -23.5064
   -23.5019 -23.5018 -23.5018 -23.5016 -23.4162 -23.4162 -23.4161 -23.4161
    13.7288  13.7289  13.7293  13.7294  15.8244  15.8245  15.8247  15.8248
    15.8847  15.8847  15.8849  15.8850  16.0575  16.0575  16.0577  16.0577
    16.5214  16.5216  16.5218  16.5220  16.8948  16.8949  16.8951  16.8951
    16.9463  16.9464  16.9465  16.9465  17.5729  17.5729  17.5730  17.5730
    17.6064  17.6065  17.6065  17.6067  17.6965  17.6966  17.6966  17.6967
    18.0516  18.0518  18.0518  18.0519  18.7456  18.7456  18.7457  18.7457
    19.7194  19.7196  19.7196  19.7197  20.0596  20.0597  20.0597  20.0598
    20.1141  20.1142  20.1142  20.1143  20.2202  20.2204  20.2204  20.2206
    20.2254  20.2257  20.2258  20.2259  20.5385  20.5388

          k = 0.1657 0.1657 0.1657 ( 12749 PWs)   bands (ev):

   -52.6110 -52.4871 -52.4871 -52.4871 -52.4433 -52.4433 -52.4433 -52.4219
   -52.4213 -52.4213 -52.4212 -52.4158 -52.4054 -52.4054 -52.4054 -52.3066
   -24.2696 -24.2695 -24.2695 -24.2343 -24.2343 -24.2342 -24.0512 -24.0341
   -24.0341 -24.0341 -24.0323 -24.0323 -23.9562 -23.9562 -23.9477 -23.8935
   -23.8935 -23.8934 -23.8011 -23.8011 -23.8011 -23.7323 -23.7323 -23.7323
   -23.7313 -23.7313 -23.6935 -23.6935 -23.6934 -23.6832 -23.6832 -23.6832
   -23.6372 -23.6372 -23.6372 -23.6338 -23.5551 -23.5551 -23.5551 -23.5115
   -23.4659 -23.4659 -23.4658 -23.4318 -23.4318 -23.4318 -23.4221 -23.4221
    11.8619  14.6619  14.6619  14.6620  15.0051  15.0051  15.0052  15.2008
    15.2008  15.2008  15.2618  15.2618  15.8839  15.8839  15.8840  16.4621
    16.7962  16.7963  16.7963  16.8011  16.8011  16.9236  16.9236  16.9236
    17.0464  17.0464  17.0464  17.1589  17.2141  17.2141  17.7768  17.7768
    17.7768  18.2324  18.2324  18.2324  18.2562  18.2562  18.7099  18.7099
    18.7099  18.7498  18.8620  18.8621  18.8621  19.1236  19.1236  19.1236
    19.2362  19.2362  19.2363  19.4521  19.4521  19.4521  20.1285  20.1286
    20.1286  20.2280  20.2280  20.2280  20.3544  20.3544  20.4194  20.4194
    20.4194  20.7323  20.7323  20.7323  20.7738  20.7739

          k = 0.1657 0.1657 0.2762 ( 12760 PWs)   bands (ev):

   -52.6000 -52.5146 -52.4828 -52.4828 -52.4520 -52.4520 -52.4409 -52.4254
   -52.4203 -52.4163 -52.4162 -52.4156 -52.4061 -52.4061 -52.3811 -52.3144
   -24.2505 -24.2505 -24.2429 -24.2152 -24.1929 -24.1928 -24.0847 -24.0768
   -24.0768 -24.0577 -24.0515 -24.0282 -24.0127 -23.9487 -23.9486 -23.9192
   -23.9132 -23.8539 -23.8279 -23.8034 -23.8034 -23.7596 -23.7510 -23.7510
   -23.7425 -23.7413 -23.6965 -23.6707 -23.6707 -23.6611 -23.6476 -23.6476
   -23.6420 -23.6420 -23.5933 -23.5867 -23.5604 -23.5222 -23.5222 -23.5152
   -23.4912 -23.4912 -23.4778 -23.4566 -23.4401 -23.4351 -23.4351 -23.4231
    12.1181  14.0820  14.7749  14.7750  15.0035  15.0035  15.2237  15.3468
    15.3468  15.3891  15.3976  15.4065  15.9229  15.9230  15.9889  16.3711
    16.4401  16.6440  16.7620  16.8285  16.8285  16.8833  16.9805  17.0128
    17.0128  17.0442  17.2093  17.2093  17.2652  17.4547  17.6246  17.6246
    17.9613  18.0252  18.0253  18.1271  18.1628  18.2248  18.3986  18.3987
    18.4161  18.4161  18.6493  18.7809  18.7810  18.8080  18.9242  18.9310
    19.2587  19.3882  19.3882  19.5561  19.5561  19.7402  19.8624  20.0879
    20.0879  20.2096  20.3083  20.3486  20.3486  20.3842  20.4352  20.4457
    20.4458  20.4458  20.7126  20.7182  20.7399  20.7733

          k = 0.1657 0.1657 0.3867 ( 12755 PWs)   bands (ev):

   -52.5841 -52.5405 -52.4767 -52.4767 -52.4608 -52.4608 -52.4376 -52.4294
   -52.4189 -52.4164 -52.4122 -52.4122 -52.4073 -52.4073 -52.3595 -52.3259
   -24.2180 -24.2179 -24.2039 -24.1885 -24.1398 -24.1398 -24.1266 -24.1266
   -24.1205 -24.0949 -24.0700 -24.0653 -24.0128 -24.0127 -23.9838 -23.9030
   -23.8788 -23.8749 -23.7969 -23.7969 -23.7956 -23.7882 -23.7687 -23.7687
   -23.7579 -23.7409 -23.7136 -23.6607 -23.6607 -23.6467 -23.6467 -23.6199
   -23.6021 -23.6021 -23.5969 -23.5554 -23.5404 -23.5227 -23.5227 -23.4964
   -23.4932 -23.4908 -23.4908 -23.4810 -23.4661 -23.4462 -23.4461 -23.4335
    12.4890  13.4996  14.8922  14.8923  15.0026  15.0026  15.5224  15.5225
    15.5306  15.5763  15.5948  15.6647  15.8603  15.8603  15.9412  16.1099
    16.2174  16.2904  16.7617  16.8348  16.9018  16.9098  17.0147  17.0148
    17.1589  17.1589  17.3923  17.3923  17.5104  17.5104  17.5605  17.7381
    17.8739  17.8740  17.9538  17.9538  18.0670  18.0686  18.0933  18.1071
    18.1071  18.1831  18.3101  18.3102  18.3569  18.3652  19.1256  19.2193
    19.4899  19.5992  19.6706  19.6707  19.6872  19.6873  19.9413  19.9413
    19.9718  20.0040  20.0865  20.1944  20.1944  20.4110  20.5002  20.5464
    20.6255  20.6470  20.7361  20.7362  20.7492  20.7665

          k = 0.1657 0.1657-0.4972 ( 12740 PWs)   bands (ev):

   -52.5643 -52.5638 -52.4695 -52.4694 -52.4690 -52.4690 -52.4338 -52.4334
   -52.4177 -52.4173 -52.4096 -52.4095 -52.4091 -52.4091 -52.3412 -52.3408
   -24.1754 -24.1754 -24.1753 -24.1753 -24.1562 -24.1558 -24.1543 -24.1539
   -24.0784 -24.0784 -24.0783 -24.0783 -24.0720 -24.0718 -23.9470 -23.9466
   -23.8367 -23.8364 -23.8330 -23.8328 -23.7848 -23.7848 -23.7845 -23.7845
   -23.7301 -23.7297 -23.6872 -23.6871 -23.6530 -23.6530 -23.6526 -23.6526
   -23.5600 -23.5600 -23.5599 -23.5598 -23.5406 -23.5402 -23.5225 -23.5222
   -23.5001 -23.4997 -23.4649 -23.4649 -23.4649 -23.4648 -23.4533 -23.4532
    12.9573  12.9578  14.9722  14.9722  14.9725  14.9725  15.7066  15.7067
    15.7068  15.7068  15.7898  15.7901  15.8186  15.8191  15.8989  15.8994
    15.9610  15.9613  16.7898  16.7902  16.8670  16.8673  17.3198  17.3199
    17.3202  17.3203  17.3429  17.3430  17.3431  17.3432  17.8495  17.8495
    17.8497  17.8497  17.9328  17.9329  17.9732  17.9732  17.9733  17.9734
    18.0497  18.0498  18.0590  18.0591  18.1326  18.1330  19.3514  19.3515
    19.5734  19.5735  19.7543  19.7545  19.7997  19.7997  19.7997  19.7998
    19.9664  19.9664  19.9665  19.9665  20.4718  20.4721  20.5211  20.5215
    20.5706  20.5710  20.6801  20.6805  20.7584  20.7588

          k = 0.1657 0.2762 0.2762 ( 12740 PWs)   bands (ev):

   -52.5896 -52.5087 -52.5087 -52.4787 -52.4651 -52.4492 -52.4492 -52.4302
   -52.4156 -52.4155 -52.4144 -52.4067 -52.4066 -52.3835 -52.3835 -52.3215
   -24.2393 -24.2253 -24.2252 -24.1801 -24.1801 -24.1452 -24.1034 -24.0972
   -24.0948 -24.0947 -24.0633 -24.0422 -24.0083 -23.9854 -23.9362 -23.8852
   -23.8851 -23.8731 -23.8557 -23.8556 -23.8210 -23.7830 -23.7830 -23.7789
   -23.7193 -23.6936 -23.6936 -23.6821 -23.6821 -23.6494 -23.6484 -23.6343
   -23.6126 -23.6101 -23.5922 -23.5921 -23.5632 -23.5224 -23.5042 -23.4937
   -23.4937 -23.4885 -23.4885 -23.4578 -23.4578 -23.4510 -23.4304 -23.4235
    12.3666  14.2372  14.2373  14.9072  14.9131  15.2271  15.2271  15.5056
    15.5077  15.5394  15.5394  15.5524  16.0307  16.0393  16.0394  16.3341
    16.5240  16.5241  16.5815  16.7749  16.8276  16.9636  16.9636  17.0739
    17.0889  17.1075  17.1075  17.1341  17.3930  17.4268  17.4521  17.7699
    17.7700  17.9096  17.9543  17.9544  18.0046  18.0553  18.1540  18.2044
    18.2571  18.2572  18.4233  18.4234  18.4905  18.5919  18.5919  19.1368
    19.5058  19.5059  19.5507  19.6950  19.7728  19.7728  19.9515  19.9695
    20.1924  20.1925  20.1946  20.1946  20.2164  20.3304  20.3745  20.3746
    20.4018  20.6742  20.6744  20.6768  20.6827  20.7541

          k = 0.1657 0.2762 0.3867 ( 12729 PWs)   bands (ev):

   -52.5745 -52.5332 -52.5003 -52.4779 -52.4728 -52.4576 -52.4452 -52.4353
   -52.4149 -52.4140 -52.4120 -52.4077 -52.3986 -52.3871 -52.3634 -52.3321
   -24.2149 -24.1972 -24.1888 -24.1628 -24.1379 -24.1354 -24.1274 -24.1228
   -24.1004 -24.0909 -24.0869 -24.0819 -24.0328 -23.9831 -23.9520 -23.9087
   -23.9042 -23.8458 -23.8304 -23.8263 -23.8237 -23.8160 -23.8050 -23.8040
   -23.7398 -23.7150 -23.6958 -23.6755 -23.6713 -23.6564 -23.6456 -23.6292
   -23.6010 -23.5835 -23.5739 -23.5589 -23.5469 -23.5367 -23.5152 -23.5013
   -23.4910 -23.4867 -23.4750 -23.4635 -23.4631 -23.4608 -23.4337 -23.4277
    12.7249  13.6902  14.4319  14.7869  15.0646  15.2236  15.5409  15.6666
    15.6775  15.7133  15.7554  15.7959  15.9802  16.0000  16.0323  16.2405
    16.2568  16.2999  16.7696  16.8220  16.8684  16.9044  16.9758  17.0000
    17.0877  17.1935  17.2138  17.3240  17.3332  17.5121  17.5663  17.5934
    17.6929  17.7764  17.8364  17.8665  17.8947  17.9498  17.9628  17.9785
    18.0282  18.0356  18.0577  18.0908  18.1626  18.2537  18.8374  19.3767
    19.5510  19.6880  19.7672  19.7770  19.7799  19.8266  19.8435  19.9156
    20.0633  20.0726  20.0892  20.2244  20.2255  20.3268  20.4341  20.4849
    20.5359  20.5842  20.6003  20.6898  20.7506  20.7512

          k = 0.1657 0.2762-0.4972 ( 12748 PWs)   bands (ev):

   -52.5557 -52.5553 -52.4901 -52.4897 -52.4658 -52.4654 -52.4407 -52.4403
   -52.4144 -52.4140 -52.4096 -52.4092 -52.3923 -52.3919 -52.3464 -52.3459
   -24.1798 -24.1798 -24.1629 -24.1628 -24.1432 -24.1432 -24.1429 -24.1428
   -24.0956 -24.0955 -24.0848 -24.0847 -24.0211 -24.0210 -23.9476 -23.9472
   -23.8676 -23.8674 -23.8283 -23.8279 -23.8198 -23.8195 -23.7858 -23.7856
   -23.7448 -23.7447 -23.7079 -23.7076 -23.6633 -23.6631 -23.6136 -23.6132
   -23.6003 -23.6002 -23.5419 -23.5418 -23.5340 -23.5336 -23.5157 -23.5154
   -23.5077 -23.5072 -23.4728 -23.4727 -23.4449 -23.4449 -23.4402 -23.4402
    13.1745  13.1750  14.6259  14.6262  15.1762  15.1765  15.8445  15.8448
    15.8491  15.8495  15.8957  15.8958  15.9154  15.9158  15.9869  15.9873
    16.0641  16.0644  16.8504  16.8507  16.9350  16.9352  17.1074  17.1078
    17.1296  17.1300  17.2250  17.2252  17.3633  17.3634  17.6497  17.6498
    17.7905  17.7906  17.8080  17.8080  17.8249  17.8251  17.8775  17.8775
    17.9360  17.9361  17.9385  17.9385  18.0239  18.0241  19.1633  19.1634
    19.6364  19.6365  19.7819  19.7819  19.8982  19.8985  19.9501  19.9501
    20.0178  20.0180  20.0277  20.0279  20.4069  20.4072  20.4626  20.4630
    20.5140  20.5144  20.6191  20.6195  20.7277  20.7280

          k = 0.1657 0.3867 0.3867 ( 12737 PWs)   bands (ev):

   -52.5607 -52.5228 -52.5228 -52.4944 -52.4673 -52.4530 -52.4530 -52.4415
   -52.4126 -52.4118 -52.4117 -52.4084 -52.3868 -52.3692 -52.3691 -52.3415
   -24.1985 -24.1684 -24.1683 -24.1368 -24.1368 -24.1339 -24.1305 -24.1304
   -24.1242 -24.1053 -24.1049 -24.0613 -24.0242 -23.9630 -23.9092 -23.8912
   -23.8911 -23.8840 -23.8840 -23.8481 -23.8451 -23.8450 -23.8390 -23.7841
   -23.7415 -23.7030 -23.6911 -23.6910 -23.6835 -23.6835 -23.6656 -23.6016
   -23.5995 -23.5598 -23.5598 -23.5538 -23.5477 -23.5219 -23.5112 -23.5111
   -23.4954 -23.4880 -23.4879 -23.4845 -23.4431 -23.4430 -23.4288 -23.4252
    13.0622  13.9483  13.9484  14.5304  15.2702  15.5279  15.5279  15.7792
    15.8132  15.9604  15.9604  15.9813  15.9814  15.9817  16.1668  16.1760
    16.2832  16.5099  16.5100  16.7867  16.8907  16.9553  17.0049  17.0049
    17.0382  17.0383  17.1937  17.2214  17.2506  17.2839  17.5475  17.6142
    17.6143  17.6414  17.7224  17.7225  17.7830  17.7830  17.8029  17.8320
    17.8524  17.8918  17.8918  17.9952  18.0120  18.4685  18.4686  19.1382
    19.6560  19.8065  19.9074  19.9074  19.9402  19.9523  19.9523  19.9832
    20.1309  20.2198  20.2287  20.2288  20.2615  20.2616  20.3011  20.3012
    20.4617  20.5034  20.5095  20.5106  20.6033  20.7031

          k = 0.1657 0.3867-0.4972 ( 12736 PWs)   bands (ev):

   -52.5434 -52.5429 -52.5098 -52.5094 -52.4608 -52.4603 -52.4477 -52.4473
   -52.4121 -52.4117 -52.4099 -52.4095 -52.3772 -52.3767 -52.3541 -52.3537
   -24.1713 -24.1712 -24.1482 -24.1480 -24.1354 -24.1350 -24.1267 -24.1264
   -24.1248 -24.1248 -24.0954 -24.0952 -23.9551 -23.9551 -23.9313 -23.9309
   -23.8836 -23.8835 -23.8685 -23.8682 -23.8544 -23.8543 -23.8125 -23.8125
   -23.7376 -23.7375 -23.6942 -23.6940 -23.6744 -23.6742 -23.6439 -23.6438
   -23.5784 -23.5780 -23.5266 -23.5265 -23.5245 -23.5241 -23.5194 -23.5191
   -23.5133 -23.5131 -23.4853 -23.4851 -23.4320 -23.4320 -23.4300 -23.4300
    13.4795  13.4799  14.2408  14.2412  15.4419  15.4422  15.8715  15.8718
    15.8970  15.8973  15.9170  15.9173  16.1237  16.1239  16.1896  16.1899
    16.2419  16.2422  16.8513  16.8517  16.9117  16.9121  16.9315  16.9316
    16.9342  16.9343  17.1014  17.1017  17.4262  17.4263  17.4329  17.4330
    17.5823  17.5825  17.6461  17.6462  17.6890  17.6890  17.7228  17.7229
    17.8963  17.8964  17.9427  17.9428  18.1357  18.1357  18.7677  18.7678
    19.8481  19.8482  19.9454  19.9455  20.0578  20.0580  20.1043  20.1045
    20.1167  20.1168  20.1262  20.1265  20.2131  20.2133  20.3801  20.3804
    20.4032  20.4035  20.5497  20.5501  20.5864  20.5866

          k = 0.1657-0.4972-0.4972 ( 12744 PWs)   bands (ev):

   -52.5280 -52.5277 -52.5276 -52.5273 -52.4548 -52.4544 -52.4543 -52.4540
   -52.4108 -52.4105 -52.4104 -52.4101 -52.3645 -52.3642 -52.3641 -52.3638
   -24.1518 -24.1518 -24.1518 -24.1518 -24.1373 -24.1371 -24.1371 -24.1368
   -24.1100 -24.1098 -24.1097 -24.1096 -23.9037 -23.9035 -23.9034 -23.9031
   -23.8842 -23.8842 -23.8841 -23.8841 -23.8788 -23.8787 -23.8787 -23.8787
   -23.6899 -23.6899 -23.6898 -23.6898 -23.6843 -23.6843 -23.6842 -23.6842
   -23.5486 -23.5483 -23.5482 -23.5479 -23.5169 -23.5168 -23.5167 -23.5166
   -23.5018 -23.5017 -23.5016 -23.5015 -23.4270 -23.4270 -23.4269 -23.4269
    13.8463  13.8464  13.8467  13.8468  15.7039  15.7039  15.7042  15.7043
    15.9278  15.9279  15.9281  15.9283  16.2564  16.2564  16.2566  16.2566
    16.5414  16.5416  16.5418  16.5420  16.8476  16.8477  16.8479  16.8480
    17.0081  17.0082  17.0083  17.0083  17.4241  17.4242  17.4242  17.4244
    17.5352  17.5353  17.5353  17.5353  17.6370  17.6370  17.6371  17.6371
    17.8956  17.8958  17.8958  17.8959  18.4175  18.4176  18.4176  18.4176
    20.0031  20.0033  20.0033  20.0034  20.1309  20.1310  20.1311  20.1312
    20.2645  20.2648  20.2648  20.2650  20.2654  20.2656  20.2656  20.2657
    20.2900  20.2900  20.2900  20.2900  20.5301  20.5303

          k = 0.2762 0.2762 0.2762 ( 12749 PWs)   bands (ev):

   -52.5797 -52.5031 -52.5031 -52.5031 -52.4616 -52.4616 -52.4616 -52.4369
   -52.4112 -52.4067 -52.4067 -52.4067 -52.3856 -52.3855 -52.3855 -52.3281
   -24.2135 -24.2135 -24.2135 -24.1396 -24.1396 -24.1395 -24.1123 -24.1086
   -24.1086 -24.1086 -24.0426 -24.0426 -24.0058 -24.0058 -23.9263 -23.9263
   -23.9262 -23.8765 -23.8764 -23.8764 -23.8297 -23.8170 -23.8169 -23.8169
   -23.6633 -23.6550 -23.6549 -23.6549 -23.6518 -23.6518 -23.6517 -23.6516
   -23.6516 -23.5962 -23.5961 -23.5961 -23.5419 -23.5154 -23.5154 -23.5154
   -23.4782 -23.4781 -23.4781 -23.4545 -23.4545 -23.4545 -23.4422 -23.4422
    12.6097  14.4086  14.4086  14.4087  15.1405  15.1405  15.1405  15.6601
    15.6601  15.6964  15.6964  15.6964  16.1846  16.1846  16.1847  16.3465
    16.5089  16.5090  16.5090  16.7301  16.8204  16.8204  17.0232  17.0232
    17.0232  17.2463  17.2463  17.2463  17.2480  17.2480  17.6052  17.6052
    17.6052  17.8106  17.8106  17.8107  17.9114  17.9115  17.9115  18.0006
    18.0006  18.1410  18.1410  18.1411  18.2863  18.2864  18.2864  19.3749
    19.5354  19.6685  19.6686  19.6686  19.9215  19.9215  19.9215  20.1047
    20.1047  20.1048  20.3068  20.3068  20.3642  20.3642  20.3643  20.4995
    20.4996  20.4996  20.6807  20.6808  20.6808  20.6855

          k = 0.2762 0.2762 0.3867 ( 12747 PWs)   bands (ev):

   -52.5654 -52.5263 -52.4951 -52.4951 -52.4738 -52.4738 -52.4566 -52.4438
   -52.4090 -52.4069 -52.3993 -52.3993 -52.3888 -52.3888 -52.3668 -52.3379
   -24.1911 -24.1911 -24.1760 -24.1327 -24.1323 -24.1322 -24.1190 -24.1070
   -24.0900 -24.0899 -24.0722 -24.0702 -24.0124 -23.9782 -23.9781 -23.9621
   -23.9279 -23.8813 -23.8813 -23.8641 -23.8605 -23.8471 -23.8471 -23.7848
   -23.7249 -23.6952 -23.6621 -23.6617 -23.6329 -23.6329 -23.6110 -23.6110
   -23.6039 -23.6039 -23.5896 -23.5476 -23.5421 -23.5421 -23.5253 -23.5121
   -23.4897 -23.4697 -23.4677 -23.4677 -23.4582 -23.4552 -23.4552 -23.4398
    12.9589  13.8895  14.6262  14.6263  15.0198  15.0198  15.4714  15.8168
    15.8562  15.8716  15.8716  15.9482  16.1828  16.1828  16.1836  16.2513
    16.3178  16.3372  16.6867  16.6868  16.8465  16.9601  17.0535  17.0675
    17.0920  17.1324  17.1324  17.3270  17.3270  17.4269  17.4433  17.4434
    17.6148  17.6148  17.6912  17.6912  17.7295  17.7586  17.7671  17.7762
    17.8618  17.8618  17.8713  17.9256  17.9936  17.9937  18.4553  19.1126
    19.6445  19.8310  19.8781  19.8782  19.9857  19.9858  20.0399  20.0399
    20.1716  20.2187  20.2322  20.2665  20.2665  20.2824  20.4278  20.4291
    20.6003  20.6007  20.6851  20.6851  20.6871  20.6907

          k = 0.2762 0.2762-0.4972 ( 12732 PWs)   bands (ev):

   -52.5476 -52.5471 -52.4854 -52.4853 -52.4849 -52.4849 -52.4507 -52.4503
   -52.4079 -52.4074 -52.3936 -52.3935 -52.3932 -52.3931 -52.3511 -52.3507
   -24.1620 -24.1620 -24.1619 -24.1619 -24.1279 -24.1274 -24.1257 -24.1254
   -24.0946 -24.0945 -24.0346 -24.0346 -24.0345 -24.0345 -23.9740 -23.9736
   -23.9138 -23.9136 -23.8702 -23.8701 -23.8699 -23.8699 -23.7921 -23.7920
   -23.7398 -23.7396 -23.6650 -23.6647 -23.6160 -23.6160 -23.6157 -23.6157
   -23.5742 -23.5741 -23.5740 -23.5740 -23.5353 -23.5349 -23.5152 -23.5150
   -23.5052 -23.5048 -23.4598 -23.4598 -23.4597 -23.4597 -23.4453 -23.4452
    13.3944  13.3949  14.8440  14.8441  14.8444  14.8444  15.8754  15.8758
    16.0165  16.0169  16.0454  16.0454  16.0456  16.0456  16.0518  16.0522
    16.1987  16.1991  16.8968  16.8971  16.9959  16.9960  17.0254  17.0254
    17.0257  17.0258  17.2797  17.2798  17.2799  17.2799  17.3922  17.3923
    17.6091  17.6093  17.6975  17.6975  17.6976  17.6977  17.7395  17.7395
    17.7396  17.7396  17.7889  17.7890  17.8346  17.8349  18.7392  18.7393
    19.9340  19.9340  20.0069  20.0071  20.0073  20.0074  20.0074  20.0074
    20.0899  20.0899  20.0901  20.0902  20.4543  20.4546  20.5103  20.5107
    20.5667  20.5670  20.5722  20.5726  20.6909  20.6912

          k = 0.2762 0.3867 0.3867 ( 12752 PWs)   bands (ev):

   -52.5522 -52.5163 -52.5163 -52.4894 -52.4876 -52.4678 -52.4678 -52.4524
   -52.4052 -52.4005 -52.4005 -52.3915 -52.3884 -52.3721 -52.3721 -52.3465
   -24.1739 -24.1570 -24.1569 -24.1309 -24.1244 -24.1244 -24.1112 -24.0952
   -24.0952 -24.0829 -24.0764 -24.0356 -24.0135 -24.0081 -23.9755 -23.9318
   -23.9318 -23.9160 -23.9160 -23.9068 -23.8957 -23.8956 -23.8857 -23.7851
   -23.7388 -23.6513 -23.6512 -23.6386 -23.6360 -23.6360 -23.6090 -23.6000
   -23.5783 -23.5740 -23.5674 -23.5565 -23.5565 -23.5283 -23.5283 -23.5195
   -23.4865 -23.4864 -23.4840 -23.4738 -23.4546 -23.4546 -23.4515 -23.4451
    13.2923  14.1602  14.1602  14.7649  14.8797  15.3469  15.3469  15.9501
    16.0137  16.0597  16.1126  16.1276  16.1276  16.1875  16.1876  16.3956
    16.4234  16.5029  16.5029  16.6272  16.9237  17.0145  17.0157  17.0568
    17.0568  17.1149  17.1149  17.2045  17.2221  17.3107  17.3468  17.5235
    17.5260  17.5260  17.5323  17.5323  17.5327  17.5327  17.5623  17.6754
    17.6755  17.7126  17.7347  17.7515  17.8190  18.0970  18.0970  18.6948
    19.9473  20.0048  20.0049  20.0290  20.0614  20.1464  20.2175  20.2203
    20.2204  20.2521  20.2522  20.2708  20.3432  20.3433  20.4117  20.5391
    20.5655  20.5656  20.5706  20.6026  20.6702  20.6814

          k = 0.2762 0.3867-0.4972 ( 12734 PWs)   bands (ev):

   -52.5358 -52.5354 -52.5040 -52.5036 -52.4786 -52.4781 -52.4608 -52.4603
   -52.4026 -52.4022 -52.3956 -52.3951 -52.3795 -52.3791 -52.3582 -52.3578
   -24.1495 -24.1494 -24.1395 -24.1393 -24.1157 -24.1153 -24.1063 -24.1062
   -24.1027 -24.1024 -24.0541 -24.0539 -23.9761 -23.9760 -23.9759 -23.9755
   -23.9426 -23.9424 -23.9158 -23.9156 -23.9120 -23.9118 -23.8503 -23.8502
   -23.6942 -23.6941 -23.6367 -23.6366 -23.6191 -23.6189 -23.6106 -23.6104
   -23.5742 -23.5739 -23.5504 -23.5502 -23.5259 -23.5255 -23.5205 -23.5203
   -23.5159 -23.5155 -23.4809 -23.4808 -23.4517 -23.4517 -23.4475 -23.4474
    13.7028  13.7033  14.4664  14.4668  15.1402  15.1405  15.7346  15.7350
    16.0837  16.0841  16.1217  16.1220  16.2926  16.2930  16.3099  16.3101
    16.3678  16.3681  16.8458  16.8462  16.8723  16.8727  16.9678  16.9678
    16.9826  16.9829  17.1807  17.1810  17.2292  17.2293  17.3562  17.3564
    17.4251  17.4253  17.4478  17.4481  17.5640  17.5641  17.6176  17.6176
    17.6499  17.6500  17.7322  17.7324  17.7921  17.7922  18.3401  18.3401
    20.1319  20.1321  20.1364  20.1365  20.1710  20.1713  20.1954  20.1957
    20.2224  20.2224  20.2711  20.2712  20.4401  20.4403  20.4405  20.4407
    20.5104  20.5106  20.5187  20.5191  20.6040  20.6044

          k = 0.2762-0.4972-0.4972 ( 12744 PWs)   bands (ev):

   -52.5213 -52.5209 -52.5208 -52.5205 -52.4704 -52.4700 -52.4699 -52.4696
   -52.3987 -52.3984 -52.3983 -52.3980 -52.3678 -52.3675 -52.3674 -52.3671
   -24.1286 -24.1286 -24.1285 -24.1285 -24.1200 -24.1198 -24.1197 -24.1195
   -24.0776 -24.0775 -24.0775 -24.0773 -23.9533 -23.9531 -23.9530 -23.9527
   -23.9412 -23.9412 -23.9411 -23.9411 -23.9133 -23.9132 -23.9132 -23.9131
   -23.6509 -23.6508 -23.6507 -23.6506 -23.6239 -23.6239 -23.6238 -23.6238
   -23.5403 -23.5400 -23.5399 -23.5396 -23.5323 -23.5322 -23.5321 -23.5320
   -23.5051 -23.5050 -23.5049 -23.5047 -23.4484 -23.4483 -23.4483 -23.4483
    14.0724  14.0725  14.0728  14.0730  15.4647  15.4648  15.4651  15.4652
    16.1252  16.1253  16.1255  16.1257  16.4935  16.4936  16.4937  16.4938
    16.5790  16.5792  16.5794  16.5795  16.7986  16.7988  16.7989  16.7990
    17.0842  17.0842  17.0843  17.0843  17.2587  17.2589  17.2589  17.2591
    17.4408  17.4408  17.4409  17.4409  17.4658  17.4658  17.4659  17.4659
    17.6671  17.6673  17.6673  17.6674  18.0077  18.0078  18.0078  18.0078
    20.2077  20.2078  20.2079  20.2081  20.3212  20.3215  20.3216  20.3218
    20.3238  20.3239  20.3240  20.3240  20.3746  20.3748  20.3748  20.3749
    20.5114  20.5117  20.5118  20.5120  20.6235  20.6236

          k = 0.3867 0.3867 0.3867 ( 12733 PWs)   bands (ev):

   -52.5401 -52.5070 -52.5070 -52.5070 -52.4822 -52.4822 -52.4822 -52.4632
   -52.3991 -52.3908 -52.3908 -52.3908 -52.3767 -52.3767 -52.3767 -52.3541
   -24.1379 -24.1378 -24.1378 -24.1147 -24.1147 -24.1147 -24.0929 -24.0520
   -24.0520 -24.0520 -24.0509 -24.0509 -24.0370 -24.0370 -23.9613 -23.9612
   -23.9612 -23.9579 -23.9579 -23.9578 -23.9380 -23.9379 -23.9379 -23.8392
   -23.6941 -23.6131 -23.6131 -23.6130 -23.5965 -23.5965 -23.5965 -23.5798
   -23.5798 -23.5574 -23.5574 -23.5574 -23.5509 -23.5509 -23.5509 -23.5231
   -23.4850 -23.4849 -23.4849 -23.4742 -23.4742 -23.4686 -23.4686 -23.4686
    13.6185  14.4499  14.4499  14.4500  15.0943  15.0943  15.0943  15.8680
    16.1712  16.1712  16.2867  16.2867  16.2867  16.4645  16.4646  16.4646
    16.4865  16.4865  16.4866  16.5935  16.9821  16.9821  17.0767  17.0767
    17.1427  17.1427  17.1427  17.1754  17.1754  17.1754  17.2579  17.2580
    17.2580  17.4112  17.4112  17.4113  17.4252  17.4252  17.4253  17.4784
    17.4784  17.4785  17.6432  17.6432  17.7454  17.7455  17.7455  18.2758
    20.1358  20.1358  20.1358  20.2806  20.3167  20.3167  20.3168  20.3375
    20.3375  20.3528  20.3528  20.3528  20.3851  20.3851  20.3851  20.5656
    20.5656  20.5975  20.5976  20.5976  20.6176  20.6176

          k = 0.3867 0.3867-0.4972 ( 12762 PWs)   bands (ev):

   -52.5250 -52.5246 -52.4958 -52.4957 -52.4953 -52.4952 -52.4735 -52.4731
   -52.3946 -52.3942 -52.3832 -52.3831 -52.3827 -52.3826 -52.3644 -52.3639
   -24.1195 -24.1195 -24.1194 -24.1194 -24.0919 -24.0915 -24.0875 -24.0874
   -24.0721 -24.0719 -24.0101 -24.0097 -24.0050 -24.0049 -24.0047 -24.0047
   -23.9900 -23.9898 -23.9640 -23.9640 -23.9638 -23.9638 -23.8984 -23.8983
   -23.6520 -23.6518 -23.5898 -23.5896 -23.5794 -23.5793 -23.5792 -23.5792
   -23.5697 -23.5697 -23.5695 -23.5694 -23.5336 -23.5335 -23.5284 -23.5280
   -23.5122 -23.5118 -23.4800 -23.4800 -23.4799 -23.4799 -23.4690 -23.4689
    14.0156  14.0160  14.7788  14.7788  14.7792  14.7792  15.4845  15.4849
    16.3089  16.3093  16.3845  16.3848  16.4066  16.4066  16.4068  16.4068
    16.5715  16.5718  16.8206  16.8206  16.8210  16.8210  17.0105  17.0106
    17.0584  17.0588  17.1321  17.1324  17.1476  17.1478  17.2683  17.2683
    17.2685  17.2685  17.3981  17.3981  17.3983  17.3984  17.4555  17.4555
    17.4555  17.4556  17.5217  17.5219  17.5373  17.5376  17.9331  17.9332
    20.2428  20.2431  20.2701  20.2701  20.2704  20.2704  20.3932  20.3932
    20.3932  20.3932  20.4550  20.4554  20.4770  20.4774  20.5341  20.5344
    20.5854  20.5857  20.5881  20.5881  20.5884  20.5885

          k = 0.3867-0.4972-0.4972 ( 12744 PWs)   bands (ev):

   -52.5116 -52.5112 -52.5111 -52.5108 -52.4855 -52.4852 -52.4851 -52.4847
   -52.3883 -52.3880 -52.3878 -52.3875 -52.3728 -52.3725 -52.3724 -52.3721
   -24.0945 -24.0945 -24.0945 -24.0945 -24.0908 -24.0906 -24.0905 -24.0903
   -24.0381 -24.0380 -24.0380 -24.0378 -24.0042 -24.0040 -24.0039 -24.0037
   -23.9992 -23.9992 -23.9992 -23.9992 -23.9515 -23.9515 -23.9514 -23.9513
   -23.6134 -23.6134 -23.6133 -23.6132 -23.5685 -23.5685 -23.5685 -23.5685
   -23.5535 -23.5534 -23.5533 -23.5532 -23.5302 -23.5300 -23.5299 -23.5296
   -23.5116 -23.5115 -23.5114 -23.5112 -23.4795 -23.4795 -23.4795 -23.4795
    14.3882  14.3883  14.3886  14.3887  15.1397  15.1398  15.1401  15.1402
    16.3951  16.3952  16.3954  16.3956  16.6295  16.6296  16.6298  16.6300
    16.7377  16.7378  16.7380  16.7381  16.7447  16.7448  16.7450  16.7451
    17.1742  17.1743  17.1744  17.1744  17.1927  17.1928  17.1928  17.1928
    17.2025  17.2026  17.2027  17.2028  17.3747  17.3748  17.3749  17.3749
    17.4426  17.4428  17.4428  17.4429  17.6015  17.6016  17.6016  17.6016
    20.3123  20.3125  20.3126  20.3128  20.3819  20.3822  20.3823  20.3825
    20.4807  20.4810  20.4811  20.4814  20.5545  20.5547  20.5547  20.5548
    20.5688  20.5690  20.5691  20.5693  20.5990  20.5991

          k =-0.4972-0.4972-0.4972 ( 12712 PWs)   bands (ev):

   -52.4997 -52.4992 -52.4992 -52.4991 -52.4990 -52.4989 -52.4989 -52.4985
   -52.3799 -52.3794 -52.3794 -52.3793 -52.3792 -52.3791 -52.3791 -52.3787
   -24.0512 -24.0512 -24.0511 -24.0510 -24.0509 -24.0509 -24.0509 -24.0508
   -24.0507 -24.0507 -24.0506 -24.0506 -24.0506 -24.0505 -24.0504 -24.0504
   -23.9947 -23.9947 -23.9947 -23.9945 -23.9945 -23.9944 -23.9944 -23.9944
   -23.5805 -23.5805 -23.5805 -23.5803 -23.5803 -23.5802 -23.5802 -23.5801
   -23.5204 -23.5204 -23.5204 -23.5203 -23.5202 -23.5202 -23.5202 -23.5201
   -23.5200 -23.5200 -23.5199 -23.5199 -23.5199 -23.5198 -23.5197 -23.5197
    14.7607  14.7607  14.7607  14.7608  14.7611  14.7611  14.7611  14.7613
    16.6867  16.6867  16.6868  16.6868  16.6869  16.6869  16.6870  16.6870
    16.6870  16.6871  16.6872  16.6872  16.6872  16.6872  16.6874  16.6874
    17.2503  17.2503  17.2503  17.2503  17.2504  17.2505  17.2505  17.2505
    17.2737  17.2737  17.2737  17.2738  17.2738  17.2738  17.2738  17.2739
    17.2739  17.2740  17.2741  17.2741  17.2741  17.2743  17.2743  17.2743
    20.4368  20.4368  20.4371  20.4371  20.4372  20.4372  20.4372  20.4373
    20.4373  20.4374  20.4374  20.4374  20.4375  20.4375  20.4377  20.4377
    20.8017  20.8018  20.8018  20.8019  20.8020  20.8021

 ------ SPIN DOWN ----------


          k = 0.0552 0.0552 0.0552 ( 12776 PWs)   bands (ev):

   -52.6281 -52.4619 -52.4618 -52.4618 -52.4329 -52.4327 -52.4326 -52.4325
   -52.4323 -52.4323 -52.4299 -52.4297 -52.4297 -52.4165 -52.4153 -52.2944
   -24.2993 -24.2993 -24.2993 -24.2949 -24.2949 -24.2949 -24.0254 -24.0254
   -24.0157 -23.9283 -23.9236 -23.9236 -23.9236 -23.8903 -23.8903 -23.8717
   -23.8717 -23.8717 -23.8132 -23.8132 -23.7753 -23.7370 -23.7370 -23.7370
   -23.7204 -23.7204 -23.7203 -23.6973 -23.6973 -23.6973 -23.6924 -23.6924
   -23.6924 -23.6833 -23.6833 -23.6833 -23.6678 -23.6677 -23.6677 -23.4244
   -23.4244 -23.4244 -23.4230 -23.4197 -23.4197 -23.4197 -23.4127 -23.4127
    11.4645  14.8945  14.8945  14.8946  14.9165  14.9165  14.9165  15.0455
    15.0455  15.0934  15.0934  15.0934  15.5312  15.5312  15.5313  16.7991
    16.8657  16.8657  16.8657  16.8812  16.8813  16.8813  16.9012  16.9012
    17.0657  17.0657  17.1226  17.2586  17.2587  17.2587  17.7078  17.7079
    17.7079  18.3773  18.3773  18.4316  18.7165  18.7166  18.7166  18.8324
    18.8324  18.8324  18.9312  18.9312  18.9312  19.0390  19.0390  19.0390
    19.9124  19.9124  19.9124  19.9601  19.9602  19.9602  20.1867  20.1867
    20.1868  20.1996  20.1997  20.1997  20.3983  20.3983  20.3984  20.4181
    20.4181  20.4520  20.4520  20.4521  20.7608  20.7608

          k = 0.0552 0.0552 0.1657 ( 12783 PWs)   bands (ev):

   -52.6222 -52.4915 -52.4605 -52.4604 -52.4361 -52.4360 -52.4321 -52.4319
   -52.4316 -52.4289 -52.4283 -52.4283 -52.4175 -52.4162 -52.4046 -52.2986
   -24.2868 -24.2868 -24.2855 -24.2816 -24.2735 -24.2735 -24.0317 -24.0157
   -24.0010 -23.9848 -23.9694 -23.9693 -23.9669 -23.9653 -23.9194 -23.9194
   -23.8653 -23.8227 -23.8103 -23.7906 -23.7730 -23.7379 -23.7366 -23.7366
   -23.7170 -23.7072 -23.7030 -23.7029 -23.7016 -23.6888 -23.6888 -23.6840
   -23.6840 -23.6795 -23.6795 -23.6308 -23.6287 -23.6286 -23.6166 -23.4467
   -23.4381 -23.4380 -23.4363 -23.4326 -23.4242 -23.4242 -23.4214 -23.4167
    11.5990  14.5329  14.9215  14.9215  14.9886  14.9886  15.0033  15.0240
    15.1146  15.1219  15.1363  15.1364  15.5643  15.5643  15.7957  16.6739
    16.7939  16.8170  16.8200  16.8460  16.8601  16.9221  16.9221  16.9428
    16.9686  16.9686  17.2184  17.2185  17.2816  17.2913  17.6091  17.6091
    18.1268  18.3460  18.3698  18.4731  18.4731  18.5021  18.5511  18.6744
    18.6745  18.7172  19.0284  19.0284  19.1618  19.1618  19.1960  19.3108
    19.4122  19.4122  19.6336  19.6789  19.6789  19.6928  19.8102  20.1778
    20.1778  20.3174  20.3174  20.3259  20.4113  20.4114  20.4222  20.4500
    20.4549  20.4582  20.4582  20.4871  20.7644  20.7913

          k = 0.0552 0.0552 0.2762 ( 12757 PWs)   bands (ev):

   -52.6107 -52.5205 -52.4578 -52.4577 -52.4403 -52.4402 -52.4311 -52.4310
   -52.4298 -52.4277 -52.4277 -52.4272 -52.4193 -52.4178 -52.3787 -52.3070
   -24.2584 -24.2580 -24.2580 -24.2554 -24.2367 -24.2366 -24.0487 -24.0402
   -24.0347 -24.0325 -24.0325 -23.9965 -23.9962 -23.9859 -23.9859 -23.9789
   -23.8419 -23.8399 -23.8237 -23.8130 -23.7424 -23.7334 -23.7334 -23.7263
   -23.7189 -23.7093 -23.7093 -23.6862 -23.6862 -23.6839 -23.6838 -23.6663
   -23.6538 -23.6276 -23.6276 -23.5816 -23.5797 -23.5797 -23.5683 -23.4868
   -23.4605 -23.4605 -23.4600 -23.4578 -23.4388 -23.4379 -23.4379 -23.4312
    11.8629  13.9156  14.9889  14.9889  15.1058  15.1058  15.1905  15.1905
    15.2123  15.2303  15.2517  15.2642  15.5848  15.5849  15.8769  16.4095
    16.5002  16.5608  16.7370  16.7998  16.8117  16.8235  17.0481  17.0481
    17.1250  17.1250  17.2301  17.2302  17.5500  17.5500  17.5579  17.5796
    18.1440  18.1440  18.3238  18.3250  18.3251  18.3568  18.3586  18.4333
    18.6060  18.8184  18.8184  18.8326  19.0328  19.0329  19.2610  19.3008
    19.3239  19.3239  19.3666  19.3666  19.3712  19.5122  19.6390  20.1457
    20.1907  20.1907  20.3106  20.3107  20.4674  20.4857  20.5259  20.5308
    20.5308  20.7405  20.7421  20.7658  20.7713  20.8004

          k = 0.0552 0.0552 0.3867 ( 12752 PWs)   bands (ev):

   -52.5940 -52.5480 -52.4541 -52.4540 -52.4449 -52.4448 -52.4300 -52.4299
   -52.4280 -52.4279 -52.4274 -52.4250 -52.4218 -52.4200 -52.3555 -52.3193
   -24.2188 -24.2171 -24.2152 -24.2152 -24.1862 -24.1862 -24.1114 -24.1080
   -24.0987 -24.0987 -24.0567 -24.0567 -24.0342 -24.0168 -23.9682 -23.9497
   -23.8897 -23.8710 -23.8119 -23.7931 -23.7520 -23.7421 -23.7286 -23.7286
   -23.7161 -23.7161 -23.6846 -23.6845 -23.6838 -23.6837 -23.6718 -23.6008
   -23.5937 -23.5766 -23.5766 -23.5397 -23.5365 -23.5330 -23.5330 -23.5244
   -23.4950 -23.4949 -23.4917 -23.4917 -23.4642 -23.4609 -23.4609 -23.4549
    12.2463  13.3006  15.0795  15.0795  15.2079  15.2079  15.2549  15.2550
    15.4507  15.4543  15.5044  15.5174  15.5355  15.5355  15.8086  16.0394
    16.2065  16.2204  16.7218  16.7436  16.7716  16.7816  17.2384  17.2385
    17.3436  17.3437  17.3915  17.3915  17.6180  17.6180  17.8424  17.8424
    17.9082  17.9294  17.9760  17.9760  18.2526  18.2526  18.3136  18.3502
    18.3595  18.3666  18.4398  18.4398  18.7461  18.7882  18.7917  19.1322
    19.1869  19.5977  19.5977  19.6330  19.6330  19.8758  19.8855  20.0139
    20.0235  20.0235  20.1445  20.1445  20.5291  20.5413  20.6263  20.6740
    20.6778  20.6816  20.7805  20.8009  20.8073  20.8165

          k = 0.0552 0.0552-0.4972 ( 12732 PWs)   bands (ev):

   -52.5730 -52.5726 -52.4499 -52.4497 -52.4494 -52.4494 -52.4291 -52.4289
   -52.4286 -52.4285 -52.4249 -52.4244 -52.4226 -52.4223 -52.3358 -52.3354
   -24.1686 -24.1684 -24.1682 -24.1680 -24.1610 -24.1610 -24.1610 -24.1609
   -24.1251 -24.1251 -24.1250 -24.1250 -24.0292 -24.0289 -23.9326 -23.9322
   -23.9136 -23.9133 -23.7819 -23.7815 -23.7684 -23.7680 -23.7228 -23.7228
   -23.7224 -23.7224 -23.6840 -23.6839 -23.6836 -23.6835 -23.6026 -23.6023
   -23.5433 -23.5429 -23.5401 -23.5398 -23.5308 -23.5308 -23.5307 -23.5307
   -23.4971 -23.4967 -23.4928 -23.4928 -23.4927 -23.4927 -23.4864 -23.4861
    12.7331  12.7336  15.1644  15.1645  15.1647  15.1647  15.4114  15.4114
    15.4116  15.4117  15.6475  15.6478  15.7184  15.7189  15.8524  15.8529
    15.8567  15.8571  16.7373  16.7376  16.7486  16.7489  17.4801  17.4802
    17.4803  17.4803  17.5841  17.5841  17.5843  17.5843  17.8049  17.8049
    17.8052  17.8052  17.9764  17.9764  17.9766  17.9767  18.3223  18.3224
    18.3225  18.3227  18.3359  18.3360  18.3520  18.3524  18.9222  18.9225
    19.5585  19.5588  19.8225  19.8225  19.8225  19.8226  19.9145  19.9145
    19.9145  19.9146  20.2733  20.2736  20.4198  20.4201  20.6004  20.6008
    20.6077  20.6081  20.7507  20.7510  20.7906  20.7910

          k = 0.0552 0.1657 0.1657 ( 12757 PWs)   bands (ev):

   -52.6165 -52.4892 -52.4892 -52.4590 -52.4444 -52.4350 -52.4349 -52.4315
   -52.4275 -52.4274 -52.4218 -52.4189 -52.4166 -52.4049 -52.4049 -52.3027
   -24.2830 -24.2736 -24.2736 -24.2616 -24.2616 -24.2442 -24.0426 -24.0205
   -24.0102 -24.0085 -24.0085 -23.9983 -23.9895 -23.9777 -23.9511 -23.8811
   -23.8595 -23.8594 -23.8054 -23.7890 -23.7890 -23.7462 -23.7308 -23.7307
   -23.7178 -23.7144 -23.7144 -23.7074 -23.6978 -23.6978 -23.6912 -23.6758
   -23.6734 -23.6454 -23.6327 -23.6326 -23.5989 -23.5797 -23.5797 -23.4790
   -23.4603 -23.4475 -23.4475 -23.4360 -23.4360 -23.4287 -23.4193 -23.4131
    11.7314  14.5942  14.5943  14.8919  15.0313  15.0313  15.0949  15.0949
    15.0974  15.1833  15.1886  15.1969  15.6102  15.8312  15.8313  16.5592
    16.6872  16.8182  16.8183  16.8872  16.8992  16.8992  16.9407  16.9407
    16.9470  17.0244  17.0860  17.1585  17.2695  17.3051  17.4988  17.9408
    17.9408  18.2739  18.3215  18.3215  18.3498  18.3733  18.5325  18.6194
    18.9232  18.9233  18.9739  18.9920  18.9920  19.1211  19.2393  19.2441
    19.2442  19.3624  19.3624  19.4232  19.4232  19.5281  19.8995  19.8996
    20.1832  20.3107  20.3446  20.3446  20.3837  20.4157  20.4158  20.4269
    20.4280  20.6240  20.7273  20.7345  20.7346  20.7727

          k = 0.0552 0.1657 0.2762 ( 12767 PWs)   bands (ev):

   -52.6052 -52.5175 -52.4848 -52.4564 -52.4534 -52.4391 -52.4330 -52.4305
   -52.4270 -52.4260 -52.4212 -52.4178 -52.4164 -52.4057 -52.3799 -52.3107
   -24.2633 -24.2476 -24.2464 -24.2383 -24.2271 -24.1996 -24.0671 -24.0659
   -24.0535 -24.0461 -24.0454 -24.0362 -24.0030 -23.9919 -23.9482 -23.9283
   -23.8626 -23.8397 -23.7984 -23.7922 -23.7828 -23.7812 -23.7492 -23.7363
   -23.7331 -23.7228 -23.7148 -23.6958 -23.6948 -23.6774 -23.6643 -23.6497
   -23.6357 -23.6237 -23.6030 -23.5844 -23.5610 -23.5350 -23.5345 -23.5262
   -23.4911 -23.4664 -23.4659 -23.4595 -23.4470 -23.4454 -23.4236 -23.4190
    11.9912  13.9968  14.6949  14.8877  15.0991  15.2109  15.2421  15.2448
    15.2603  15.2980  15.3130  15.3426  15.6541  15.8413  15.9220  16.4300
    16.4353  16.5304  16.8105  16.8591  16.8882  16.8929  16.9155  17.0154
    17.0412  17.0815  17.1314  17.2712  17.4061  17.4466  17.5108  17.8058
    18.0233  18.1395  18.1409  18.2062  18.2264  18.2738  18.3260  18.4699
    18.5588  18.7091  18.7689  18.8637  18.9399  19.0079  19.0144  19.1098
    19.2193  19.3338  19.3605  19.4193  19.4489  19.6293  19.6308  20.0275
    20.1733  20.2215  20.2543  20.3152  20.3535  20.3982  20.4472  20.4814
    20.6597  20.7187  20.7219  20.7512  20.7984  20.8034

          k = 0.0552 0.1657 0.3867 ( 12750 PWs)   bands (ev):

   -52.5889 -52.5442 -52.4786 -52.4624 -52.4527 -52.4437 -52.4304 -52.4293
   -52.4272 -52.4242 -52.4238 -52.4196 -52.4123 -52.4071 -52.3575 -52.3226
   -24.2288 -24.2098 -24.2065 -24.2046 -24.1803 -24.1425 -24.1272 -24.1152
   -24.1058 -24.1016 -24.0633 -24.0602 -24.0532 -24.0026 -23.9642 -23.9135
   -23.8868 -23.8326 -23.8292 -23.7832 -23.7735 -23.7655 -23.7479 -23.7463
   -23.7373 -23.7317 -23.7212 -23.6958 -23.6952 -23.6545 -23.6402 -23.6236
   -23.5912 -23.5841 -23.5750 -23.5611 -23.5405 -23.5291 -23.5237 -23.4945
   -23.4944 -23.4942 -23.4940 -23.4913 -23.4701 -23.4656 -23.4376 -23.4352
    12.3679  13.3991  14.7966  14.8874  15.1883  15.2975  15.3587  15.4205
    15.4968  15.5361  15.5406  15.5780  15.6260  15.7608  15.8616  16.0867
    16.2101  16.2408  16.7626  16.8126  16.8160  16.8399  17.1099  17.1822
    17.2004  17.2334  17.2616  17.4043  17.5143  17.6672  17.7560  17.8178
    17.8819  17.9202  17.9649  18.0000  18.1499  18.1587  18.1859  18.2010
    18.2430  18.2995  18.3327  18.4748  18.5642  18.5657  18.9456  19.3634
    19.3816  19.5630  19.5668  19.6411  19.6471  19.6695  19.8652  19.9478
    19.9600  20.0582  20.1479  20.2003  20.3522  20.4726  20.5042  20.5839
    20.6183  20.6437  20.6524  20.7317  20.7943  20.7972

          k = 0.0552 0.1657-0.4972 ( 12742 PWs)   bands (ev):

   -52.5685 -52.5681 -52.4712 -52.4708 -52.4485 -52.4481 -52.4283 -52.4279
   -52.4275 -52.4270 -52.4219 -52.4215 -52.4094 -52.4090 -52.3385 -52.3381
   -24.1823 -24.1822 -24.1629 -24.1625 -24.1620 -24.1615 -24.1570 -24.1569
   -24.1244 -24.1243 -24.0755 -24.0754 -24.0606 -24.0605 -23.9290 -23.9286
   -23.8737 -23.8735 -23.7991 -23.7988 -23.7618 -23.7616 -23.7614 -23.7613
   -23.7401 -23.7398 -23.6956 -23.6953 -23.6504 -23.6503 -23.6468 -23.6464
   -23.5736 -23.5735 -23.5386 -23.5383 -23.5313 -23.5310 -23.5234 -23.5233
   -23.5021 -23.5017 -23.4913 -23.4913 -23.4614 -23.4613 -23.4609 -23.4608
    12.8449  12.8454  14.8635  14.8637  15.2675  15.2677  15.5120  15.5122
    15.6041  15.6043  15.7005  15.7009  15.7855  15.7859  15.8838  15.8843
    15.9006  15.9010  16.7739  16.7742  16.8032  16.8035  17.3561  17.3563
    17.3738  17.3741  17.4164  17.4165  17.4718  17.4722  17.8455  17.8456
    17.8860  17.8861  17.9566  17.9567  18.0769  18.0771  18.1367  18.1368
    18.1382  18.1384  18.1774  18.1775  18.2737  18.2740  19.1492  19.1494
    19.6673  19.6676  19.7083  19.7084  19.8611  19.8612  19.9197  19.9198
    19.9467  19.9469  19.9666  19.9666  20.3370  20.3373  20.5579  20.5583
    20.5761  20.5764  20.7127  20.7131  20.7923  20.7926

          k = 0.0552 0.2762 0.2762 ( 12766 PWs)   bands (ev):

   -52.5945 -52.5115 -52.5114 -52.4668 -52.4538 -52.4370 -52.4369 -52.4295
   -52.4257 -52.4256 -52.4239 -52.4185 -52.4065 -52.3824 -52.3823 -52.3181
   -24.2525 -24.2238 -24.2238 -24.2088 -24.2088 -24.1484 -24.0904 -24.0892
   -24.0891 -24.0739 -24.0726 -24.0704 -24.0350 -23.9747 -23.9110 -23.8639
   -23.8621 -23.8620 -23.8307 -23.8306 -23.7907 -23.7636 -23.7566 -23.7478
   -23.7477 -23.7277 -23.7276 -23.7135 -23.7135 -23.7059 -23.6445 -23.6122
   -23.5905 -23.5905 -23.5875 -23.5811 -23.5712 -23.5356 -23.5285 -23.4952
   -23.4951 -23.4773 -23.4772 -23.4653 -23.4653 -23.4609 -23.4185 -23.4139
    12.2422  14.1440  14.1441  14.7870  15.3098  15.3099  15.3678  15.4042
    15.4105  15.4105  15.4248  15.4971  15.7477  15.9403  15.9403  16.3585
    16.4388  16.5526  16.5526  16.8745  16.9588  16.9588  16.9623  17.0080
    17.0080  17.0311  17.1026  17.2607  17.3898  17.4836  17.4887  17.9045
    17.9045  18.0270  18.0270  18.0328  18.0510  18.0849  18.1357  18.2811
    18.5001  18.5002  18.5672  18.5672  18.7173  18.8421  18.8422  18.9712
    19.4319  19.4319  19.5065  19.5540  19.5952  19.5952  19.8599  19.9752
    19.9753  20.1674  20.2841  20.2842  20.3266  20.3460  20.3460  20.3639
    20.4497  20.6636  20.6672  20.6696  20.7945  20.8036

          k = 0.0552 0.2762 0.3867 ( 12737 PWs)   bands (ev):

[...]
    20.1167  20.1168  20.1259  20.1261  20.2135  20.2137  20.3798  20.3801
    20.4027  20.4030  20.5489  20.5492  20.5863  20.5864

          k = 0.1657-0.4972-0.4972 ( 12744 PWs)   bands (ev):

   -52.5278 -52.5276 -52.5274 -52.5272 -52.4546 -52.4543 -52.4541 -52.4540
   -52.4107 -52.4104 -52.4102 -52.4101 -52.3644 -52.3641 -52.3639 -52.3638
   -24.1519 -24.1519 -24.1518 -24.1518 -24.1373 -24.1372 -24.1370 -24.1369
   -24.1099 -24.1098 -24.1097 -24.1096 -23.9037 -23.9035 -23.9033 -23.9032
   -23.8842 -23.8842 -23.8841 -23.8841 -23.8788 -23.8788 -23.8787 -23.8787
   -23.6899 -23.6899 -23.6898 -23.6898 -23.6843 -23.6843 -23.6842 -23.6842
   -23.5485 -23.5483 -23.5482 -23.5480 -23.5169 -23.5168 -23.5167 -23.5166
   -23.5018 -23.5017 -23.5016 -23.5015 -23.4270 -23.4270 -23.4269 -23.4269
    13.8465  13.8466  13.8469  13.8470  15.7042  15.7042  15.7045  15.7045
    15.9275  15.9275  15.9278  15.9278  16.2567  16.2567  16.2569  16.2569
    16.5410  16.5411  16.5414  16.5414  16.8476  16.8476  16.8478  16.8478
    17.0084  17.0084  17.0085  17.0086  17.4246  17.4247  17.4247  17.4248
    17.5358  17.5358  17.5359  17.5359  17.6371  17.6372  17.6372  17.6373
    17.8960  17.8961  17.8961  17.8962  18.4180  18.4180  18.4181  18.4181
    20.0034  20.0036  20.0036  20.0037  20.1304  20.1305  20.1306  20.1307
    20.2641  20.2642  20.2644  20.2645  20.2653  20.2654  20.2655  20.2656
    20.2905  20.2905  20.2905  20.2906  20.5291  20.5294

          k = 0.2762 0.2762 0.2762 ( 12749 PWs)   bands (ev):

   -52.5796 -52.5030 -52.5029 -52.5029 -52.4615 -52.4614 -52.4614 -52.4368
   -52.4111 -52.4066 -52.4065 -52.4065 -52.3855 -52.3854 -52.3854 -52.3280
   -24.2135 -24.2135 -24.2135 -24.1396 -24.1396 -24.1396 -24.1123 -24.1086
   -24.1086 -24.1086 -24.0426 -24.0426 -24.0058 -24.0058 -23.9263 -23.9263
   -23.9262 -23.8765 -23.8765 -23.8765 -23.8297 -23.8170 -23.8169 -23.8169
   -23.6633 -23.6550 -23.6549 -23.6549 -23.6518 -23.6518 -23.6517 -23.6516
   -23.6516 -23.5962 -23.5962 -23.5961 -23.5419 -23.5154 -23.5154 -23.5154
   -23.4782 -23.4781 -23.4781 -23.4545 -23.4545 -23.4545 -23.4422 -23.4422
    12.6099  14.4088  14.4088  14.4089  15.1407  15.1407  15.1408  15.6595
    15.6595  15.6965  15.6965  15.6965  16.1844  16.1844  16.1845  16.3470
    16.5084  16.5085  16.5085  16.7304  16.8208  16.8208  17.0238  17.0238
    17.0238  17.2468  17.2468  17.2468  17.2481  17.2481  17.6054  17.6054
    17.6054  17.8112  17.8112  17.8112  17.9111  17.9112  17.9112  18.0012
    18.0012  18.1412  18.1412  18.1413  18.2868  18.2868  18.2868  19.3755
    19.5360  19.6681  19.6682  19.6682  19.9219  19.9219  19.9219  20.1045
    20.1045  20.1046  20.3060  20.3060  20.3638  20.3638  20.3639  20.4999
    20.4999  20.5000  20.6799  20.6799  20.6799  20.6848

          k = 0.2762 0.2762 0.3867 ( 12747 PWs)   bands (ev):

   -52.5653 -52.5261 -52.4950 -52.4949 -52.4737 -52.4736 -52.4565 -52.4437
   -52.4089 -52.4068 -52.3992 -52.3991 -52.3887 -52.3886 -52.3667 -52.3378
   -24.1911 -24.1911 -24.1759 -24.1327 -24.1323 -24.1322 -24.1190 -24.1070
   -24.0900 -24.0899 -24.0722 -24.0702 -24.0124 -23.9782 -23.9781 -23.9621
   -23.9279 -23.8813 -23.8813 -23.8641 -23.8605 -23.8472 -23.8471 -23.7848
   -23.7249 -23.6952 -23.6621 -23.6617 -23.6329 -23.6329 -23.6110 -23.6110
   -23.6039 -23.6039 -23.5896 -23.5476 -23.5421 -23.5421 -23.5253 -23.5122
   -23.4897 -23.4697 -23.4677 -23.4677 -23.4582 -23.4552 -23.4552 -23.4398
    12.9591  13.8897  14.6265  14.6265  15.0200  15.0200  15.4717  15.8163
    15.8557  15.8716  15.8716  15.9483  16.1826  16.1826  16.1832  16.2508
    16.3181  16.3377  16.6863  16.6864  16.8470  16.9606  17.0537  17.0679
    17.0924  17.1329  17.1330  17.3272  17.3272  17.4270  17.4436  17.4437
    17.6147  17.6147  17.6916  17.6917  17.7298  17.7589  17.7677  17.7760
    17.8620  17.8620  17.8718  17.9260  17.9940  17.9940  18.4558  19.1131
    19.6450  19.8304  19.8777  19.8777  19.9860  19.9860  20.0398  20.0398
    20.1708  20.2191  20.2328  20.2660  20.2661  20.2822  20.4273  20.4282
    20.5997  20.6003  20.6843  20.6844  20.6864  20.6899

          k = 0.2762 0.2762-0.4972 ( 12732 PWs)   bands (ev):

   -52.5474 -52.5470 -52.4853 -52.4851 -52.4848 -52.4848 -52.4506 -52.4502
   -52.4077 -52.4073 -52.3935 -52.3933 -52.3930 -52.3930 -52.3509 -52.3506
   -24.1620 -24.1620 -24.1619 -24.1619 -24.1279 -24.1275 -24.1257 -24.1254
   -24.0946 -24.0945 -24.0347 -24.0346 -24.0345 -24.0344 -23.9740 -23.9736
   -23.9138 -23.9136 -23.8702 -23.8701 -23.8699 -23.8699 -23.7921 -23.7921
   -23.7398 -23.7396 -23.6650 -23.6648 -23.6160 -23.6160 -23.6157 -23.6157
   -23.5742 -23.5741 -23.5740 -23.5740 -23.5353 -23.5349 -23.5152 -23.5150
   -23.5052 -23.5048 -23.4598 -23.4598 -23.4598 -23.4597 -23.4453 -23.4453
    13.3946  13.3951  14.8442  14.8443  14.8446  14.8446  15.8756  15.8761
    16.0160  16.0164  16.0452  16.0453  16.0454  16.0455  16.0514  16.0517
    16.1990  16.1993  16.8973  16.8976  16.9961  16.9963  17.0251  17.0251
    17.0255  17.0256  17.2801  17.2802  17.2804  17.2804  17.3925  17.3926
    17.6090  17.6092  17.6977  17.6978  17.6979  17.6979  17.7398  17.7398
    17.7399  17.7399  17.7895  17.7896  17.8350  17.8353  18.7398  18.7398
    19.9345  19.9345  20.0063  20.0065  20.0074  20.0074  20.0075  20.0075
    20.0895  20.0895  20.0897  20.0897  20.4541  20.4544  20.5097  20.5101
    20.5672  20.5674  20.5714  20.5717  20.6901  20.6904

          k = 0.2762 0.3867 0.3867 ( 12752 PWs)   bands (ev):

   -52.5521 -52.5162 -52.5161 -52.4893 -52.4875 -52.4677 -52.4677 -52.4522
   -52.4051 -52.4004 -52.4003 -52.3914 -52.3882 -52.3720 -52.3720 -52.3464
   -24.1739 -24.1570 -24.1570 -24.1309 -24.1244 -24.1244 -24.1112 -24.0952
   -24.0952 -24.0829 -24.0764 -24.0356 -24.0135 -24.0081 -23.9755 -23.9318
   -23.9318 -23.9160 -23.9159 -23.9068 -23.8957 -23.8956 -23.8857 -23.7851
   -23.7388 -23.6513 -23.6512 -23.6386 -23.6360 -23.6360 -23.6090 -23.6000
   -23.5783 -23.5740 -23.5674 -23.5565 -23.5565 -23.5284 -23.5283 -23.5195
   -23.4865 -23.4865 -23.4840 -23.4738 -23.4547 -23.4546 -23.4515 -23.4451
    13.2925  14.1604  14.1604  14.7651  14.8800  15.3472  15.3472  15.9496
    16.0135  16.0592  16.1129  16.1276  16.1277  16.1872  16.1872  16.3956
    16.4238  16.5025  16.5025  16.6269  16.9241  17.0145  17.0161  17.0573
    17.0573  17.1151  17.1151  17.2041  17.2226  17.3110  17.3468  17.5240
    17.5259  17.5259  17.5326  17.5326  17.5331  17.5332  17.5627  17.6758
    17.6758  17.7128  17.7352  17.7518  17.8195  18.0975  18.0975  18.6954
    19.9479  20.0043  20.0043  20.0285  20.0615  20.1466  20.2168  20.2206
    20.2207  20.2521  20.2521  20.2703  20.3427  20.3428  20.4109  20.5385
    20.5657  20.5658  20.5704  20.6018  20.6695  20.6806

          k = 0.2762 0.3867-0.4972 ( 12734 PWs)   bands (ev):

   -52.5357 -52.5353 -52.5039 -52.5035 -52.4784 -52.4780 -52.4606 -52.4602
   -52.4025 -52.4021 -52.3954 -52.3950 -52.3794 -52.3790 -52.3580 -52.3577
   -24.1495 -24.1494 -24.1395 -24.1393 -24.1157 -24.1153 -24.1063 -24.1062
   -24.1027 -24.1024 -24.0541 -24.0539 -23.9761 -23.9760 -23.9759 -23.9755
   -23.9426 -23.9424 -23.9158 -23.9156 -23.9120 -23.9118 -23.8503 -23.8502
   -23.6942 -23.6941 -23.6367 -23.6366 -23.6191 -23.6189 -23.6106 -23.6105
   -23.5742 -23.5739 -23.5504 -23.5502 -23.5259 -23.5255 -23.5205 -23.5203
   -23.5159 -23.5155 -23.4809 -23.4808 -23.4518 -23.4517 -23.4475 -23.4475
    13.7030  13.7035  14.4666  14.4670  15.1404  15.1407  15.7348  15.7353
    16.0833  16.0836  16.1215  16.1217  16.2921  16.2925  16.3100  16.3101
    16.3681  16.3684  16.8454  16.8458  16.8721  16.8725  16.9678  16.9679
    16.9831  16.9833  17.1811  17.1813  17.2296  17.2297  17.3568  17.3569
    17.4251  17.4253  17.4483  17.4485  17.5642  17.5642  17.6181  17.6181
    17.6502  17.6503  17.7326  17.7328  17.7926  17.7926  18.3406  18.3406
    20.1313  20.1315  20.1366  20.1367  20.1705  20.1707  20.1949  20.1952
    20.2225  20.2225  20.2717  20.2717  20.4396  20.4399  20.4403  20.4405
    20.5108  20.5110  20.5179  20.5183  20.6033  20.6036

          k = 0.2762-0.4972-0.4972 ( 12744 PWs)   bands (ev):

   -52.5211 -52.5208 -52.5206 -52.5205 -52.4702 -52.4699 -52.4697 -52.4696
   -52.3985 -52.3983 -52.3981 -52.3979 -52.3677 -52.3674 -52.3672 -52.3671
   -24.1286 -24.1286 -24.1285 -24.1285 -24.1200 -24.1199 -24.1197 -24.1196
   -24.0776 -24.0775 -24.0774 -24.0773 -23.9533 -23.9531 -23.9530 -23.9528
   -23.9412 -23.9412 -23.9411 -23.9411 -23.9133 -23.9133 -23.9132 -23.9131
   -23.6509 -23.6508 -23.6507 -23.6506 -23.6239 -23.6239 -23.6238 -23.6238
   -23.5402 -23.5401 -23.5399 -23.5397 -23.5323 -23.5322 -23.5321 -23.5320
   -23.5051 -23.5050 -23.5049 -23.5048 -23.4484 -23.4484 -23.4483 -23.4483
    14.0727  14.0727  14.0731  14.0731  15.4650  15.4650  15.4654  15.4654
    16.1249  16.1249  16.1252  16.1252  16.4938  16.4938  16.4940  16.4940
    16.5786  16.5787  16.5789  16.5790  16.7985  16.7985  16.7988  16.7988
    17.0845  17.0845  17.0846  17.0846  17.2593  17.2594  17.2594  17.2595
    17.4408  17.4409  17.4409  17.4410  17.4663  17.4663  17.4664  17.4664
    17.6675  17.6676  17.6677  17.6678  18.0082  18.0082  18.0083  18.0083
    20.2071  20.2072  20.2073  20.2074  20.3207  20.3209  20.3211  20.3211
    20.3241  20.3242  20.3243  20.3243  20.3747  20.3747  20.3748  20.3749
    20.5106  20.5108  20.5110  20.5111  20.6240  20.6241

          k = 0.3867 0.3867 0.3867 ( 12733 PWs)   bands (ev):

   -52.5400 -52.5070 -52.5069 -52.5069 -52.4821 -52.4820 -52.4820 -52.4630
   -52.3990 -52.3908 -52.3907 -52.3907 -52.3766 -52.3765 -52.3765 -52.3540
   -24.1378 -24.1378 -24.1378 -24.1148 -24.1147 -24.1147 -24.0929 -24.0520
   -24.0520 -24.0520 -24.0508 -24.0508 -24.0370 -24.0370 -23.9612 -23.9612
   -23.9612 -23.9579 -23.9579 -23.9578 -23.9380 -23.9379 -23.9379 -23.8392
   -23.6941 -23.6131 -23.6131 -23.6130 -23.5966 -23.5965 -23.5965 -23.5798
   -23.5798 -23.5574 -23.5574 -23.5574 -23.5510 -23.5510 -23.5509 -23.5231
   -23.4850 -23.4850 -23.4850 -23.4742 -23.4742 -23.4687 -23.4686 -23.4686
    13.6187  14.4501  14.4501  14.4502  15.0945  15.0945  15.0946  15.8683
    16.1707  16.1707  16.2867  16.2867  16.2867  16.4641  16.4642  16.4642
    16.4862  16.4862  16.4863  16.5940  16.9825  16.9825  17.0765  17.0765
    17.1432  17.1432  17.1433  17.1751  17.1751  17.1751  17.2583  17.2583
    17.2583  17.4116  17.4116  17.4116  17.4256  17.4256  17.4256  17.4789
    17.4790  17.4790  17.6436  17.6436  17.7459  17.7459  17.7459  18.2763
    20.1352  20.1352  20.1352  20.2812  20.3168  20.3168  20.3168  20.3368
    20.3368  20.3522  20.3522  20.3523  20.3854  20.3854  20.3854  20.5649
    20.5649  20.5967  20.5968  20.5968  20.6168  20.6169

          k = 0.3867 0.3867-0.4972 ( 12762 PWs)   bands (ev):

   -52.5249 -52.5245 -52.4956 -52.4955 -52.4951 -52.4951 -52.4734 -52.4729
   -52.3944 -52.3940 -52.3831 -52.3829 -52.3826 -52.3826 -52.3642 -52.3638
   -24.1195 -24.1195 -24.1194 -24.1194 -24.0919 -24.0915 -24.0875 -24.0874
   -24.0721 -24.0719 -24.0101 -24.0097 -24.0050 -24.0049 -24.0047 -24.0047
   -23.9900 -23.9898 -23.9640 -23.9640 -23.9638 -23.9638 -23.8984 -23.8983
   -23.6520 -23.6518 -23.5898 -23.5896 -23.5795 -23.5793 -23.5792 -23.5792
   -23.5697 -23.5697 -23.5695 -23.5695 -23.5337 -23.5335 -23.5284 -23.5280
   -23.5122 -23.5118 -23.4800 -23.4800 -23.4799 -23.4799 -23.4690 -23.4689
    14.0158  14.0163  14.7790  14.7791  14.7794  14.7795  15.4847  15.4852
    16.3084  16.3088  16.3840  16.3843  16.4063  16.4064  16.4066  16.4066
    16.5717  16.5720  16.8203  16.8203  16.8207  16.8207  17.0106  17.0108
    17.0589  17.0592  17.1319  17.1322  17.1479  17.1481  17.2687  17.2688
    17.2690  17.2690  17.3985  17.3986  17.3987  17.3988  17.4558  17.4558
    17.4559  17.4559  17.5222  17.5224  17.5377  17.5380  17.9337  17.9337
    20.2422  20.2424  20.2695  20.2695  20.2698  20.2698  20.3933  20.3934
    20.3934  20.3934  20.4544  20.4548  20.4763  20.4766  20.5342  20.5344
    20.5846  20.5849  20.5873  20.5873  20.5876  20.5877

          k = 0.3867-0.4972-0.4972 ( 12744 PWs)   bands (ev):

   -52.5114 -52.5111 -52.5109 -52.5108 -52.4853 -52.4851 -52.4849 -52.4847
   -52.3881 -52.3878 -52.3876 -52.3875 -52.3727 -52.3724 -52.3722 -52.3721
   -24.0945 -24.0945 -24.0944 -24.0944 -24.0908 -24.0906 -24.0905 -24.0903
   -24.0381 -24.0381 -24.0380 -24.0379 -24.0042 -24.0041 -24.0039 -24.0038
   -23.9993 -23.9993 -23.9992 -23.9992 -23.9515 -23.9515 -23.9514 -23.9513
   -23.6134 -23.6134 -23.6133 -23.6132 -23.5685 -23.5685 -23.5685 -23.5684
   -23.5535 -23.5534 -23.5533 -23.5532 -23.5302 -23.5300 -23.5298 -23.5297
   -23.5116 -23.5115 -23.5114 -23.5112 -23.4795 -23.4795 -23.4795 -23.4794
    14.3884  14.3885  14.3889  14.3889  15.1399  15.1400  15.1404  15.1404
    16.3948  16.3948  16.3951  16.3951  16.6291  16.6292  16.6294  16.6295
    16.7378  16.7379  16.7381  16.7381  16.7444  16.7445  16.7448  16.7448
    17.1746  17.1746  17.1747  17.1748  17.1929  17.1929  17.1930  17.1930
    17.2030  17.2031  17.2032  17.2032  17.3753  17.3753  17.3753  17.3753
    17.4430  17.4431  17.4432  17.4433  17.6021  17.6021  17.6021  17.6021
    20.3117  20.3118  20.3120  20.3121  20.3814  20.3815  20.3817  20.3818
    20.4800  20.4802  20.4804  20.4805  20.5547  20.5547  20.5548  20.5549
    20.5681  20.5682  20.5684  20.5685  20.5993  20.5994

          k =-0.4972-0.4972-0.4972 ( 12712 PWs)   bands (ev):

   -52.4995 -52.4991 -52.4991 -52.4990 -52.4989 -52.4987 -52.4987 -52.4986
   -52.3797 -52.3793 -52.3793 -52.3792 -52.3791 -52.3789 -52.3789 -52.3788
   -24.0511 -24.0511 -24.0511 -24.0509 -24.0509 -24.0509 -24.0509 -24.0507
   -24.0507 -24.0507 -24.0507 -24.0506 -24.0506 -24.0506 -24.0505 -24.0505
   -23.9947 -23.9947 -23.9947 -23.9945 -23.9945 -23.9944 -23.9944 -23.9944
   -23.5805 -23.5805 -23.5805 -23.5803 -23.5803 -23.5802 -23.5802 -23.5802
   -23.5205 -23.5205 -23.5204 -23.5202 -23.5202 -23.5202 -23.5202 -23.5201
   -23.5200 -23.5200 -23.5200 -23.5199 -23.5199 -23.5199 -23.5198 -23.5198
    14.7609  14.7609  14.7610  14.7610  14.7613  14.7614  14.7614  14.7615
    16.6864  16.6864  16.6865  16.6865  16.6865  16.6865  16.6865  16.6866
    16.6868  16.6868  16.6868  16.6868  16.6869  16.6869  16.6869  16.6869
    17.2508  17.2508  17.2508  17.2509  17.2510  17.2510  17.2510  17.2510
    17.2741  17.2741  17.2741  17.2743  17.2743  17.2743  17.2743  17.2743
    17.2744  17.2745  17.2745  17.2745  17.2745  17.2746  17.2746  17.2746
    20.4362  20.4362  20.4364  20.4364  20.4365  20.4365  20.4365  20.4365
    20.4366  20.4367  20.4367  20.4367  20.4368  20.4368  20.4369  20.4369
    20.8020  20.8020  20.8021  20.8022  20.8022  20.8022

     the Fermi energy is    19.2285 ev

!    total energy              =   -3971.54073706 Ry
     Harris-Foulkes estimate   =   -3971.54073083 Ry
     estimated scf accuracy    <       0.00000014 Ry

     total all-electron energy =    -33628.063617 Ry

     The total energy is the sum of the following terms:

     one-electron contribution =    -899.32683044 Ry
     hartree contribution      =     584.41073947 Ry
     xc contribution           =    -356.32755902 Ry
     ewald contribution        =   -2112.35684047 Ry
     one-center paw contrib.   =   -1187.96459346 Ry
     smearing contrib. (-TS)   =       0.02434686 Ry

     total magnetization       =     0.00 Bohr mag/cell
     absolute magnetization    =     0.02 Bohr mag/cell

     convergence has been achieved in  18 iterations

     Forces acting on atoms (cartesian axes, Ry/au):

     atom    1 type  1   force =     0.00000000    0.00000000    0.00000000
     atom    2 type  2   force =    -0.00002032   -0.00002032   -0.00002032
     atom    3 type  1   force =     0.00000000    0.00000000    0.00000000
     atom    4 type  2   force =    -0.00002032   -0.00002032    0.00002032
     atom    5 type  1   force =     0.00000000    0.00000000    0.00000000
     atom    6 type  2   force =    -0.00002032    0.00002032   -0.00002032
     atom    7 type  1   force =     0.00000000    0.00000000    0.00000000
     atom    8 type  2   force =    -0.00002032    0.00002032    0.00002032
     atom    9 type  1   force =     0.00000000    0.00000000    0.00000000
     atom   10 type  2   force =     0.00002032   -0.00002032   -0.00002032
     atom   11 type  1   force =     0.00000000    0.00000000    0.00000000
     atom   12 type  2   force =     0.00002032   -0.00002032    0.00002032
     atom   13 type  1   force =     0.00000000    0.00000000    0.00000000
     atom   14 type  2   force =     0.00002032    0.00002032   -0.00002032
     atom   15 type  1   force =     0.00000000    0.00000000    0.00000000
     atom   16 type  2   force =     0.00002032    0.00002032    0.00002032

     Total force =     0.000100     Total SCF correction =     0.000054
     SCF correction compared to forces is large: reduce conv_thr to get better values


     Computing stress (Cartesian axis) and pressure

          total   stress  (Ry/bohr**3)                   (kbar)     P=  -41.26
  -0.00028048   0.00000000   0.00000000        -41.26      0.00      0.00
   0.00000000  -0.00028048   0.00000000          0.00    -41.26      0.00
   0.00000000   0.00000000  -0.00028048          0.00      0.00    -41.26


     Writing output data file REFGYJNJrEEcNFDh.save/
 
     init_run     :      9.58s CPU      9.94s WALL (       1 calls)
     electrons    :    635.50s CPU    649.08s WALL (       1 calls)
     forces       :      3.27s CPU      3.45s WALL (       1 calls)
     stress       :     13.01s CPU     13.54s WALL (       1 calls)

     Called by init_run:
     wfcinit      :      8.88s CPU      9.18s WALL (       1 calls)
     potinit      :      0.35s CPU      0.36s WALL (       1 calls)
     hinit0       :      0.13s CPU      0.14s WALL (       1 calls)

     Called by electrons:
     c_bands      :    575.34s CPU    586.18s WALL (      19 calls)
     sum_band     :     52.95s CPU     55.15s WALL (      19 calls)
     v_of_rho     :      0.56s CPU      0.59s WALL (      19 calls)
     newd         :      1.30s CPU      1.56s WALL (      19 calls)
     PAW_pot      :      5.45s CPU      5.67s WALL (      19 calls)
     mix_rho      :      0.17s CPU      0.18s WALL (      19 calls)

     Called by c_bands:
     init_us_2    :      4.20s CPU      4.24s WALL (    2870 calls)
     cegterg      :    554.32s CPU    565.02s WALL (    1330 calls)

     Called by sum_band:
     sum_band:bec :      0.58s CPU      0.58s WALL (    1330 calls)
     addusdens    :      2.35s CPU      2.68s WALL (      19 calls)

     Called by *egterg:
     h_psi        :    229.47s CPU    237.05s WALL (    5814 calls)
     s_psi        :     22.39s CPU     22.47s WALL (    5814 calls)
     g_psi        :      1.26s CPU      1.27s WALL (    4414 calls)
     cdiaghg      :    232.09s CPU    232.35s WALL (    5674 calls)

     Called by h_psi:
     h_psi:pot    :    228.06s CPU    235.62s WALL (    5814 calls)
     h_psi:calbec :     24.43s CPU     26.31s WALL (    5814 calls)
     vloc_psi     :    181.53s CPU    187.16s WALL (    5814 calls)
     add_vuspsi   :     22.04s CPU     22.11s WALL (    5814 calls)

     General routines
     calbec       :     37.50s CPU     40.38s WALL (    7494 calls)
     fft          :      0.45s CPU      0.49s WALL (     517 calls)
     ffts         :      0.04s CPU      0.04s WALL (      76 calls)
     fftw         :    203.62s CPU    209.78s WALL ( 1073458 calls)
     interpolate  :      0.07s CPU      0.07s WALL (      38 calls)
 
     Parallel routines
     fft_scatt_xy :     16.54s CPU     17.06s WALL ( 1074051 calls)
     fft_scatt_yz :     99.85s CPU    103.13s WALL ( 1074051 calls)
 
     PWSCF        : 11m 6.48s CPU    11m30.98s WALL

 
   This run was terminated on:   6:30:35  15Jun2020            

=------------------------------------------------------------------------------=
   JOB DONE.
=------------------------------------------------------------------------------=
