
     Program PWSCF v.6.3 starts on 15Jun2020 at  6: 7:37 

     This program is part of the open-source Quantum ESPRESSO suite
     for quantum simulation of materials; please cite
         "P. Giannozzi et al., J. Phys.:Condens. Matter 21 395502 (2009);
         "P. Giannozzi et al., J. Phys.:Condens. Matter 29 465901 (2017);
          URL http://www.quantum-espresso.org", 
     in publications or presentations arising from this work. More details at
     http://www.quantum-espresso.org/quote

     Parallel version (MPI & OpenMP), running on      20 processor cores
     Number of MPI processes:                20
     Threads/MPI process:                     1

     MPI processes distributed on     1 nodes
     R & G space division:  proc/nbgrp/npool/nimage =      20
     Reading input from wd/eos/eos_009.in
Warning: card &IONS ignored
Warning: card ION_DYNAMICS = 'BFGS', ignored
Warning: card / ignored
Warning: card &CELL ignored
Warning: card CELL_DYNAMICS = 'BFGS', ignored
Warning: card CELL_FACTOR = 2.0, ignored
Warning: card PRESS = 0.0, ignored
Warning: card / ignored

     Current dimensions of program PWSCF are:
     Max number of different atomic species (ntypx) = 10
     Max number of k-points (npk) =  40000
     Max angular momentum in pseudopotentials (lmaxx) =  3
     Message from routine read_upf::
     Pseudo file /rds/homes/b/bxp912/pp/Cr.pbe-spn-kjpaw_psl.1.0.0.UPF has been successfully fixed on the fly.
To avoid this message in the future you can permanently fix 
 your pseudo files following instructions given in: 
https://gitlab.com/QEF/q-e/blob/master/upftools/how_to_fix_upf.md
               file Cr.pbe-spn-kjpaw_psl.1.0.0.UPF: wavefunction(s)  3S 3P 3D renormalized
     Message from routine read_upf::
     Pseudo file /rds/homes/b/bxp912/pp/Cr.pbe-spn-kjpaw_psl.1.0.0.UPF has been successfully fixed on the fly.
To avoid this message in the future you can permanently fix 
 your pseudo files following instructions given in: 
https://gitlab.com/QEF/q-e/blob/master/upftools/how_to_fix_upf.md
               file Cr.pbe-spn-kjpaw_psl.1.0.0.UPF: wavefunction(s)  3S 3P 3D renormalized

     Subspace diagonalization in iterative solution of the eigenvalue problem:
     a serial algorithm will be used

     Found symmetry operation: I + (  0.0000  0.0000  0.5000)
     This is a supercell, fractional translations are disabled
 
     Parallelization info
     --------------------
     sticks:   dense  smooth     PW     G-vecs:    dense   smooth      PW
     Min         199     130     37                 9407     5052     757
     Max         200     131     38                 9410     5055     760
     Sum        3985    2617    749               188183   101073   15155
 


     bravais-lattice index     =            0
     lattice parameter (alat)  =      10.7442  a.u.
     unit-cell volume          =    1250.9484 (a.u.)^3
     number of atoms/cell      =           16
     number of atomic types    =            2
     number of electrons       =       224.00
     number of Kohn-Sham states=          134
     kinetic-energy cutoff     =      71.0000  Ry
     charge density cutoff     =     430.0000  Ry
     convergence threshold     =      1.0E-06
     mixing beta               =       0.1000
     number of iterations used =           10  plain     mixing
     Exchange-correlation      = SLA PW PBX PBC ( 1  4  3  4 0 0)

     celldm(1)=  10.744199  celldm(2)=   0.000000  celldm(3)=   0.000000
     celldm(4)=   0.000000  celldm(5)=   0.000000  celldm(6)=   0.000000

     crystal axes: (cart. coord. in units of alat)
               a(1) = (   1.002857   0.000000   0.000000 )  
               a(2) = (   0.000000   1.002857   0.000000 )  
               a(3) = (   0.000000   0.000000   1.002857 )  

     reciprocal axes: (cart. coord. in units 2 pi/alat)
               b(1) = (  0.997151  0.000000  0.000000 )  
               b(2) = (  0.000000  0.997151  0.000000 )  
               b(3) = (  0.000000  0.000000  0.997151 )  


     PseudoPot. # 1 for Cr read from file:
     /rds/homes/b/bxp912/pp/Cr.pbe-spn-kjpaw_psl.1.0.0.UPF
     MD5 check sum: cb1c17117da000fe5e03c4f1a6841d9c
     Pseudo is Projector augmented-wave + core cor, Zval = 14.0
     Generated using "atomic" code by A. Dal Corso v.5.1
     Shape of augmentation charge: PSQ
     Using radial grid of 1183 points,  6 beta functions with: 
                l(1) =   0
                l(2) =   0
                l(3) =   1
                l(4) =   1
                l(5) =   2
                l(6) =   2
     Q(r) pseudized with 0 coefficients 


     PseudoPot. # 2 for Cr read from file:
     /rds/homes/b/bxp912/pp/Cr.pbe-spn-kjpaw_psl.1.0.0.UPF
     MD5 check sum: cb1c17117da000fe5e03c4f1a6841d9c
     Pseudo is Projector augmented-wave + core cor, Zval = 14.0
     Generated using "atomic" code by A. Dal Corso v.5.1
     Shape of augmentation charge: PSQ
     Using radial grid of 1183 points,  6 beta functions with: 
                l(1) =   0
                l(2) =   0
                l(3) =   1
                l(4) =   1
                l(5) =   2
                l(6) =   2
     Q(r) pseudized with 0 coefficients 


     atomic species   valence    mass     pseudopotential
        Cr1           14.00    55.84500     Cr( 1.00)
        Cr2           14.00    55.84500     Cr( 1.00)

     Starting magnetic structure 
     atomic species   magnetization
        Cr1          0.100
        Cr2          0.100

     48 Sym. Ops., with inversion, found



   Cartesian axes

     site n.     atom                  positions (alat units)
         1           Cr1 tau(   1) = (   0.0000000   0.0000000   0.0000000  )
         2           Cr2 tau(   2) = (   0.2507147   0.2507147   0.2507143  )
         3           Cr1 tau(   3) = (   0.0000000   0.0000000   0.5014276  )
         4           Cr2 tau(   4) = (   0.2507147   0.2507147   0.7521419  )
         5           Cr1 tau(   5) = (   0.0000000   0.5014285   0.0000000  )
         6           Cr2 tau(   6) = (   0.2507147   0.7521422   0.2507143  )
         7           Cr1 tau(   7) = (   0.0000000   0.5014285   0.5014276  )
         8           Cr2 tau(   8) = (   0.2507147   0.7521422   0.7521419  )
         9           Cr1 tau(   9) = (   0.5014285   0.0000000   0.0000000  )
        10           Cr2 tau(  10) = (   0.7521422   0.2507147   0.2507143  )
        11           Cr1 tau(  11) = (   0.5014285   0.0000000   0.5014276  )
        12           Cr2 tau(  12) = (   0.7521422   0.2507147   0.7521419  )
        13           Cr1 tau(  13) = (   0.5014285   0.5014285   0.0000000  )
        14           Cr2 tau(  14) = (   0.7521422   0.7521422   0.2507143  )
        15           Cr1 tau(  15) = (   0.5014285   0.5014285   0.5014276  )
        16           Cr2 tau(  16) = (   0.7521422   0.7521422   0.7521419  )

     number of k points=    35  Marzari-Vanderbilt smearing, width (Ry)=  0.0400
                       cart. coord. in units 2pi/alat
        k(    1) = (   0.0553973   0.0553973   0.0553973), wk =   0.0109739
        k(    2) = (   0.0553973   0.0553973   0.1661918), wk =   0.0329218
        k(    3) = (   0.0553973   0.0553973   0.2769864), wk =   0.0329218
        k(    4) = (   0.0553973   0.0553973   0.3877809), wk =   0.0329218
        k(    5) = (   0.0553973   0.0553973  -0.4985755), wk =   0.0164609
        k(    6) = (   0.0553973   0.1661918   0.1661918), wk =   0.0329218
        k(    7) = (   0.0553973   0.1661918   0.2769864), wk =   0.0658436
        k(    8) = (   0.0553973   0.1661918   0.3877809), wk =   0.0658436
        k(    9) = (   0.0553973   0.1661918  -0.4985755), wk =   0.0329218
        k(   10) = (   0.0553973   0.2769864   0.2769864), wk =   0.0329218
        k(   11) = (   0.0553973   0.2769864   0.3877809), wk =   0.0658436
        k(   12) = (   0.0553973   0.2769864  -0.4985755), wk =   0.0329218
        k(   13) = (   0.0553973   0.3877809   0.3877809), wk =   0.0329218
        k(   14) = (   0.0553973   0.3877809  -0.4985755), wk =   0.0329218
        k(   15) = (   0.0553973  -0.4985755  -0.4985755), wk =   0.0082305
        k(   16) = (   0.1661918   0.1661918   0.1661918), wk =   0.0109739
        k(   17) = (   0.1661918   0.1661918   0.2769864), wk =   0.0329218
        k(   18) = (   0.1661918   0.1661918   0.3877809), wk =   0.0329218
        k(   19) = (   0.1661918   0.1661918  -0.4985755), wk =   0.0164609
        k(   20) = (   0.1661918   0.2769864   0.2769864), wk =   0.0329218
        k(   21) = (   0.1661918   0.2769864   0.3877809), wk =   0.0658436
        k(   22) = (   0.1661918   0.2769864  -0.4985755), wk =   0.0329218
        k(   23) = (   0.1661918   0.3877809   0.3877809), wk =   0.0329218
        k(   24) = (   0.1661918   0.3877809  -0.4985755), wk =   0.0329218
        k(   25) = (   0.1661918  -0.4985755  -0.4985755), wk =   0.0082305
        k(   26) = (   0.2769864   0.2769864   0.2769864), wk =   0.0109739
        k(   27) = (   0.2769864   0.2769864   0.3877809), wk =   0.0329218
        k(   28) = (   0.2769864   0.2769864  -0.4985755), wk =   0.0164609
        k(   29) = (   0.2769864   0.3877809   0.3877809), wk =   0.0329218
        k(   30) = (   0.2769864   0.3877809  -0.4985755), wk =   0.0329218
        k(   31) = (   0.2769864  -0.4985755  -0.4985755), wk =   0.0082305
        k(   32) = (   0.3877809   0.3877809   0.3877809), wk =   0.0109739
        k(   33) = (   0.3877809   0.3877809  -0.4985755), wk =   0.0164609
        k(   34) = (   0.3877809  -0.4985755  -0.4985755), wk =   0.0082305
        k(   35) = (  -0.4985755  -0.4985755  -0.4985755), wk =   0.0013717

     Dense  grid:   188183 G-vectors     FFT dimensions: (  72,  72,  72)

     Smooth grid:   101073 G-vectors     FFT dimensions: (  60,  60,  60)

     Estimated max dynamical RAM per process >     144.04 MB

     Estimated total dynamical RAM >       2.81 GB
     Generating pointlists ...
     new r_m :   0.1791 (alat units)  1.9246 (a.u.) for type    1
     new r_m :   0.1791 (alat units)  1.9246 (a.u.) for type    2

     Check: negative/imaginary core charge=   -0.000009    0.000000

     Initial potential from superposition of free atoms

     starting charge  223.98764, renormalised to  224.00000
     Starting wfcs are  160 randomized atomic wfcs
     Checking if some PAW data can be deallocated... 

     total cpu time spent up to now is       11.6 secs

     Self-consistent Calculation

     iteration #  1     ecut=    71.00 Ry     beta= 0.10
     Davidson diagonalization with overlap
     ethr =  1.00E-02,  avg # of iterations =  3.1

     Threshold (ethr) on eigenvalues was too large:
     Diagonalizing with lowered threshold

     Davidson diagonalization with overlap
     ethr =  7.90E-04,  avg # of iterations =  3.5

     total cpu time spent up to now is       71.9 secs

     total energy              =   -3971.39687752 Ry
     Harris-Foulkes estimate   =   -3971.57748740 Ry
     estimated scf accuracy    <       1.94506424 Ry

     total magnetization       =     4.72 Bohr mag/cell
     absolute magnetization    =     4.94 Bohr mag/cell

     iteration #  2     ecut=    71.00 Ry     beta= 0.10
     Davidson diagonalization with overlap
     ethr =  8.68E-04,  avg # of iterations =  1.1

     total cpu time spent up to now is       92.7 secs

     total energy              =   -3971.09264798 Ry
     Harris-Foulkes estimate   =   -3971.42022344 Ry
     estimated scf accuracy    <       1.25321330 Ry

     total magnetization       =     4.60 Bohr mag/cell
     absolute magnetization    =     4.78 Bohr mag/cell

     iteration #  3     ecut=    71.00 Ry     beta= 0.10
     Davidson diagonalization with overlap
     ethr =  5.59E-04,  avg # of iterations =  3.1

     total cpu time spent up to now is      126.2 secs

     total energy              =   -3971.38490998 Ry
     Harris-Foulkes estimate   =   -3971.43838681 Ry
     estimated scf accuracy    <       0.30011549 Ry

     total magnetization       =     3.79 Bohr mag/cell
     absolute magnetization    =     3.93 Bohr mag/cell

     iteration #  4     ecut=    71.00 Ry     beta= 0.10
     Davidson diagonalization with overlap
     ethr =  1.34E-04,  avg # of iterations =  1.7

     total cpu time spent up to now is      148.7 secs

     total energy              =   -3971.41134763 Ry
     Harris-Foulkes estimate   =   -3971.39605855 Ry
     estimated scf accuracy    <       0.19525728 Ry

     total magnetization       =     3.68 Bohr mag/cell
     absolute magnetization    =     3.84 Bohr mag/cell

     iteration #  5     ecut=    71.00 Ry     beta= 0.10
     Davidson diagonalization with overlap
     ethr =  8.72E-05,  avg # of iterations =  2.9

     total cpu time spent up to now is      179.2 secs

     total energy              =   -3971.49476231 Ry
     Harris-Foulkes estimate   =   -3971.45151205 Ry
     estimated scf accuracy    <       0.17416721 Ry

     total magnetization       =     2.74 Bohr mag/cell
     absolute magnetization    =     2.95 Bohr mag/cell

     iteration #  6     ecut=    71.00 Ry     beta= 0.10
     Davidson diagonalization with overlap
     ethr =  7.78E-05,  avg # of iterations =  2.2

     total cpu time spent up to now is      205.8 secs

     total energy              =   -3971.53991961 Ry
     Harris-Foulkes estimate   =   -3971.54000597 Ry
     estimated scf accuracy    <       0.00887314 Ry

     total magnetization       =     0.26 Bohr mag/cell
     absolute magnetization    =     0.46 Bohr mag/cell

     iteration #  7     ecut=    71.00 Ry     beta= 0.10
     Davidson diagonalization with overlap
     ethr =  3.96E-06,  avg # of iterations =  6.0

     total cpu time spent up to now is      248.0 secs

     total energy              =   -3971.53809422 Ry
     Harris-Foulkes estimate   =   -3971.54117075 Ry
     estimated scf accuracy    <       0.00766003 Ry

     total magnetization       =     0.17 Bohr mag/cell
     absolute magnetization    =     0.49 Bohr mag/cell

     iteration #  8     ecut=    71.00 Ry     beta= 0.10
     Davidson diagonalization with overlap
     ethr =  3.42E-06,  avg # of iterations =  3.5

     total cpu time spent up to now is      290.2 secs

     total energy              =   -3971.54196739 Ry
     Harris-Foulkes estimate   =   -3971.54198791 Ry
     estimated scf accuracy    <       0.00726208 Ry

     total magnetization       =     0.15 Bohr mag/cell
     absolute magnetization    =     0.38 Bohr mag/cell

     iteration #  9     ecut=    71.00 Ry     beta= 0.10
     Davidson diagonalization with overlap
     ethr =  3.24E-06,  avg # of iterations =  1.6

     total cpu time spent up to now is      312.4 secs

     total energy              =   -3971.54102941 Ry
     Harris-Foulkes estimate   =   -3971.54218095 Ry
     estimated scf accuracy    <       0.00375039 Ry

     total magnetization       =     0.11 Bohr mag/cell
     absolute magnetization    =     0.25 Bohr mag/cell

     iteration # 10     ecut=    71.00 Ry     beta= 0.10
     Davidson diagonalization with overlap
     ethr =  1.67E-06,  avg # of iterations =  2.9

     total cpu time spent up to now is      342.4 secs

     total energy              =   -3971.54153605 Ry
     Harris-Foulkes estimate   =   -3971.54159513 Ry
     estimated scf accuracy    <       0.00012996 Ry

     total magnetization       =     0.05 Bohr mag/cell
     absolute magnetization    =     0.14 Bohr mag/cell

     iteration # 11     ecut=    71.00 Ry     beta= 0.10
     Davidson diagonalization with overlap
     ethr =  5.80E-08,  avg # of iterations =  5.9

     total cpu time spent up to now is      391.5 secs

     total energy              =   -3971.54169574 Ry
     Harris-Foulkes estimate   =   -3971.54157828 Ry
     estimated scf accuracy    <       0.00023071 Ry

     total magnetization       =     0.08 Bohr mag/cell
     absolute magnetization    =     0.17 Bohr mag/cell

     iteration # 12     ecut=    71.00 Ry     beta= 0.10
     Davidson diagonalization with overlap
     ethr =  5.80E-08,  avg # of iterations =  5.7

     total cpu time spent up to now is      451.0 secs

     total energy              =   -3971.54164241 Ry
     Harris-Foulkes estimate   =   -3971.54183907 Ry
     estimated scf accuracy    <       0.00198553 Ry

     total magnetization       =     0.00 Bohr mag/cell
     absolute magnetization    =     0.07 Bohr mag/cell

     iteration # 13     ecut=    71.00 Ry     beta= 0.10
     Davidson diagonalization with overlap
     ethr =  5.80E-08,  avg # of iterations =  5.1

     total cpu time spent up to now is      506.9 secs

     total energy              =   -3971.54177599 Ry
     Harris-Foulkes estimate   =   -3971.54175534 Ry
     estimated scf accuracy    <       0.00002241 Ry

     total magnetization       =     0.03 Bohr mag/cell
     absolute magnetization    =     0.07 Bohr mag/cell

     iteration # 14     ecut=    71.00 Ry     beta= 0.10
     Davidson diagonalization with overlap
     ethr =  1.00E-08,  avg # of iterations =  3.6

     total cpu time spent up to now is      544.5 secs

     total energy              =   -3971.54178837 Ry
     Harris-Foulkes estimate   =   -3971.54178587 Ry
     estimated scf accuracy    <       0.00000598 Ry

     total magnetization       =     0.00 Bohr mag/cell
     absolute magnetization    =     0.03 Bohr mag/cell

     iteration # 15     ecut=    71.00 Ry     beta= 0.10
     Davidson diagonalization with overlap
     ethr =  2.67E-09,  avg # of iterations =  4.4

     total cpu time spent up to now is      582.6 secs

     total energy              =   -3971.54179422 Ry
     Harris-Foulkes estimate   =   -3971.54179171 Ry
     estimated scf accuracy    <       0.00000716 Ry

     total magnetization       =    -0.01 Bohr mag/cell
     absolute magnetization    =     0.03 Bohr mag/cell

     iteration # 16     ecut=    71.00 Ry     beta= 0.10
     Davidson diagonalization with overlap
     ethr =  2.67E-09,  avg # of iterations =  1.3

     total cpu time spent up to now is      603.9 secs

     total energy              =   -3971.54179650 Ry
     Harris-Foulkes estimate   =   -3971.54179473 Ry
     estimated scf accuracy    <       0.00000173 Ry

     total magnetization       =    -0.00 Bohr mag/cell
     absolute magnetization    =     0.03 Bohr mag/cell

     iteration # 17     ecut=    71.00 Ry     beta= 0.10
     Davidson diagonalization with overlap
     ethr =  7.74E-10,  avg # of iterations =  3.7

     total cpu time spent up to now is      634.3 secs

     total energy              =   -3971.54179810 Ry
     Harris-Foulkes estimate   =   -3971.54179666 Ry
     estimated scf accuracy    <       0.00000111 Ry

     total magnetization       =     0.00 Bohr mag/cell
     absolute magnetization    =     0.03 Bohr mag/cell

     iteration # 18     ecut=    71.00 Ry     beta= 0.10
     Davidson diagonalization with overlap
     ethr =  4.96E-10,  avg # of iterations =  1.8
 
     Magnetic moment per site:
     atom:    1    charge:   12.2235    magn:    0.0008    constr:    0.0000
     atom:    2    charge:   12.2229    magn:   -0.0015    constr:    0.0000
     atom:    3    charge:   12.2233    magn:    0.0015    constr:    0.0000
     atom:    4    charge:   12.2229    magn:   -0.0015    constr:    0.0000
     atom:    5    charge:   12.2233    magn:    0.0015    constr:    0.0000
     atom:    6    charge:   12.2229    magn:   -0.0015    constr:    0.0000
     atom:    7    charge:   12.2231    magn:    0.0015    constr:    0.0000
     atom:    8    charge:   12.2229    magn:   -0.0015    constr:    0.0000
     atom:    9    charge:   12.2233    magn:    0.0015    constr:    0.0000
     atom:   10    charge:   12.2229    magn:   -0.0015    constr:    0.0000
     atom:   11    charge:   12.2231    magn:    0.0015    constr:    0.0000
     atom:   12    charge:   12.2229    magn:   -0.0015    constr:    0.0000
     atom:   13    charge:   12.2231    magn:    0.0015    constr:    0.0000
     atom:   14    charge:   12.2229    magn:   -0.0015    constr:    0.0000
     atom:   15    charge:   12.2229    magn:    0.0021    constr:    0.0000
     atom:   16    charge:   12.2229    magn:   -0.0015    constr:    0.0000

     total cpu time spent up to now is      656.9 secs

     End of self-consistent calculation

 ------ SPIN UP ------------


          k = 0.0554 0.0554 0.0554 ( 12704 PWs)   bands (ev):

   -52.4381 -52.2662 -52.2662 -52.2662 -52.2361 -52.2361 -52.2360 -52.2358
   -52.2358 -52.2357 -52.2328 -52.2328 -52.2328 -52.2194 -52.2176 -52.0931
   -24.1193 -24.1192 -24.1192 -24.1149 -24.1149 -24.1148 -23.8370 -23.8370
   -23.8268 -23.7383 -23.7335 -23.7334 -23.7334 -23.6992 -23.6992 -23.6802
   -23.6802 -23.6802 -23.6200 -23.6200 -23.5810 -23.5410 -23.5409 -23.5409
   -23.5241 -23.5240 -23.5240 -23.5003 -23.5003 -23.5003 -23.4952 -23.4951
   -23.4951 -23.4857 -23.4857 -23.4857 -23.4701 -23.4701 -23.4701 -23.2205
   -23.2205 -23.2204 -23.2190 -23.2157 -23.2156 -23.2156 -23.2084 -23.2084
    11.6269  15.0455  15.0455  15.0455  15.0672  15.0672  15.0672  15.1868
    15.1868  15.2710  15.2710  15.2710  15.7062  15.7062  15.7062  16.9677
    17.0291  17.0291  17.0291  17.0448  17.0448  17.0448  17.0715  17.0715
    17.2390  17.2390  17.2975  17.4229  17.4230  17.4230  17.8774  17.8775
    17.8775  18.5590  18.5590  18.6140  18.9025  18.9025  18.9025  19.0195
    19.0195  19.0196  19.1196  19.1197  19.1197  19.2287  19.2287  19.2288
    20.1117  20.1117  20.1117  20.1679  20.1680  20.1680  20.3989  20.3989
    20.3989  20.4024  20.4024  20.4024  20.6050  20.6050  20.6051  20.6235
    20.6235  20.6603  20.6603  20.6603  20.9718  20.9719

          k = 0.0554 0.0554 0.1662 ( 12680 PWs)   bands (ev):

   -52.4320 -52.2968 -52.2647 -52.2647 -52.2394 -52.2394 -52.2353 -52.2353
   -52.2350 -52.2319 -52.2314 -52.2314 -52.2204 -52.2185 -52.2070 -52.0975
   -24.1062 -24.1062 -24.1050 -24.1008 -24.0928 -24.0928 -23.8434 -23.8271
   -23.8118 -23.7964 -23.7804 -23.7804 -23.7778 -23.7763 -23.7289 -23.7289
   -23.6733 -23.6298 -23.6171 -23.5957 -23.5780 -23.5428 -23.5407 -23.5407
   -23.5211 -23.5105 -23.5060 -23.5060 -23.5044 -23.4914 -23.4914 -23.4865
   -23.4865 -23.4821 -23.4821 -23.4320 -23.4299 -23.4299 -23.4176 -23.2434
   -23.2344 -23.2344 -23.2326 -23.2288 -23.2202 -23.2202 -23.2173 -23.2124
    11.7624  14.7110  15.0739  15.0739  15.1403  15.1403  15.1554  15.1759
    15.2566  15.2646  15.3133  15.3133  15.7386  15.7387  15.9662  16.8407
    16.9616  16.9794  16.9869  17.0094  17.0237  17.0861  17.0862  17.1141
    17.1332  17.1333  17.3832  17.3832  17.4591  17.4683  17.7786  17.7786
    18.3021  18.5273  18.5514  18.6560  18.6560  18.6853  18.7349  18.8597
    18.8598  18.9023  19.2175  19.2175  19.3528  19.3528  19.3876  19.5038
    19.6134  19.6135  19.8297  19.8853  19.8853  19.8986  20.0188  20.3805
    20.3805  20.5229  20.5230  20.5300  20.6184  20.6184  20.6292  20.6574
    20.6609  20.6644  20.6644  20.6934  20.9756  21.0027

          k = 0.0554 0.0554 0.2770 ( 12650 PWs)   bands (ev):

   -52.4201 -52.3269 -52.2619 -52.2619 -52.2438 -52.2438 -52.2343 -52.2343
   -52.2331 -52.2308 -52.2308 -52.2302 -52.2223 -52.2202 -52.1802 -52.1061
   -24.0773 -24.0768 -24.0768 -24.0739 -24.0550 -24.0550 -23.8619 -23.8529
   -23.8467 -23.8452 -23.8452 -23.8078 -23.8073 -23.7972 -23.7972 -23.7894
   -23.6486 -23.6474 -23.6300 -23.6196 -23.5473 -23.5372 -23.5372 -23.5301
   -23.5224 -23.5125 -23.5125 -23.4887 -23.4887 -23.4863 -23.4863 -23.4692
   -23.4562 -23.4289 -23.4289 -23.3812 -23.3797 -23.3796 -23.3679 -23.2842
   -23.2576 -23.2575 -23.2571 -23.2547 -23.2350 -23.2343 -23.2342 -23.2273
    12.0283  14.0924  15.1440  15.1440  15.2595  15.2595  15.3651  15.3651
    15.3666  15.3843  15.3950  15.4095  15.7567  15.7567  16.0419  16.5645
    16.6659  16.7284  16.9029  16.9677  16.9750  16.9870  17.2137  17.2137
    17.2915  17.2915  17.3974  17.3974  17.7211  17.7211  17.7394  17.7609
    18.3228  18.3229  18.5047  18.5060  18.5061  18.5371  18.5400  18.6157
    18.7904  19.0129  19.0130  19.0169  19.2318  19.2319  19.4627  19.5038
    19.5165  19.5165  19.5599  19.5599  19.5642  19.7076  19.8360  20.3470
    20.3944  20.3944  20.5161  20.5161  20.6749  20.6935  20.7330  20.7381
    20.7381  20.9513  20.9531  20.9756  20.9826  21.0109

          k = 0.0554 0.0554 0.3878 ( 12631 PWs)   bands (ev):

   -52.4028 -52.3552 -52.2581 -52.2581 -52.2486 -52.2486 -52.2331 -52.2331
   -52.2310 -52.2310 -52.2306 -52.2278 -52.2248 -52.2225 -52.1563 -52.1189
   -24.0367 -24.0347 -24.0329 -24.0329 -24.0031 -24.0031 -23.9263 -23.9227
   -23.9131 -23.9131 -23.8700 -23.8700 -23.8464 -23.8287 -23.7784 -23.7594
   -23.6977 -23.6785 -23.6183 -23.5990 -23.5566 -23.5463 -23.5322 -23.5322
   -23.5194 -23.5194 -23.4871 -23.4871 -23.4862 -23.4862 -23.4746 -23.4018
   -23.3945 -23.3766 -23.3766 -23.3386 -23.3350 -23.3318 -23.3317 -23.3228
   -23.2930 -23.2929 -23.2894 -23.2894 -23.2611 -23.2579 -23.2578 -23.2515
    12.4144  13.4749  15.2386  15.2386  15.3780  15.3780  15.4120  15.4120
    15.5996  15.5999  15.6616  15.6744  15.7024  15.7024  15.9680  16.1905
    16.3702  16.3848  16.8864  16.9089  16.9351  16.9453  17.4062  17.4063
    17.5128  17.5128  17.5642  17.5642  17.7925  17.7925  18.0185  18.0185
    18.0945  18.1155  18.1529  18.1529  18.4402  18.4402  18.4945  18.5315
    18.5409  18.5479  18.6310  18.6310  18.9321  18.9848  18.9888  19.3225
    19.3749  19.7937  19.7937  19.8294  19.8294  20.0755  20.0831  20.2153
    20.2249  20.2249  20.3476  20.3476  20.7373  20.7497  20.8349  20.8840
    20.8878  20.8909  20.9919  21.0126  21.0191  21.0284

          k = 0.0554 0.0554-0.4986 ( 12666 PWs)   bands (ev):

   -52.3811 -52.3807 -52.2537 -52.2537 -52.2533 -52.2533 -52.2321 -52.2321
   -52.2317 -52.2317 -52.2278 -52.2277 -52.2255 -52.2249 -52.1359 -52.1356
   -23.9851 -23.9848 -23.9848 -23.9844 -23.9771 -23.9771 -23.9771 -23.9770
   -23.9403 -23.9403 -23.9403 -23.9402 -23.8413 -23.8411 -23.7417 -23.7413
   -23.7223 -23.7220 -23.5874 -23.5871 -23.5737 -23.5733 -23.5263 -23.5263
   -23.5260 -23.5260 -23.4865 -23.4865 -23.4862 -23.4862 -23.4037 -23.4034
   -23.3427 -23.3424 -23.3394 -23.3391 -23.3296 -23.3296 -23.3295 -23.3295
   -23.2948 -23.2945 -23.2907 -23.2907 -23.2906 -23.2906 -23.2839 -23.2837
    12.9043  12.9047  15.3288  15.3288  15.3290  15.3290  15.5729  15.5729
    15.5731  15.5731  15.8014  15.8018  15.8663  15.8667  16.0132  16.0136
    16.0171  16.0175  16.9012  16.9014  16.9127  16.9130  17.6509  17.6509
    17.6510  17.6510  17.7571  17.7571  17.7573  17.7573  17.9847  17.9847
    17.9850  17.9850  18.1598  18.1598  18.1600  18.1601  18.5034  18.5036
    18.5138  18.5138  18.5272  18.5273  18.5333  18.5336  19.1101  19.1104
    19.7515  19.7518  20.0213  20.0213  20.0213  20.0213  20.1145  20.1145
    20.1145  20.1146  20.4778  20.4780  20.6261  20.6263  20.8095  20.8099
    20.8169  20.8173  20.9613  20.9616  21.0022  21.0025

          k = 0.0554 0.1662 0.1662 ( 12667 PWs)   bands (ev):

   -52.4261 -52.2945 -52.2945 -52.2633 -52.2481 -52.2384 -52.2383 -52.2348
   -52.2305 -52.2305 -52.2247 -52.2217 -52.2191 -52.2073 -52.2073 -52.1017
   -24.1025 -24.0927 -24.0927 -24.0805 -24.0805 -24.0626 -23.8546 -23.8327
   -23.8213 -23.8205 -23.8205 -23.8101 -23.8012 -23.7878 -23.7615 -23.6898
   -23.6675 -23.6675 -23.6119 -23.5945 -23.5944 -23.5505 -23.5348 -23.5348
   -23.5213 -23.5179 -23.5179 -23.5112 -23.5007 -23.5007 -23.4939 -23.4780
   -23.4763 -23.4472 -23.4340 -23.4339 -23.3995 -23.3798 -23.3798 -23.2762
   -23.2574 -23.2442 -23.2442 -23.2324 -23.2324 -23.2247 -23.2151 -23.2086
    11.8959  14.7719  14.7719  15.0462  15.1847  15.1847  15.2477  15.2477
    15.2495  15.3263  15.3406  15.3652  15.7844  16.0014  16.0014  16.7242
    16.8540  16.9785  16.9785  17.0569  17.0631  17.0632  17.1052  17.1052
    17.1113  17.1967  17.2521  17.3229  17.4482  17.4827  17.6676  18.1150
    18.1150  18.4542  18.5025  18.5025  18.5311  18.5555  18.7164  18.8040
    19.1115  19.1115  19.1695  19.1799  19.1799  19.3109  19.4310  19.4442
    19.4442  19.5559  19.5559  19.6274  19.6274  19.7358  20.0990  20.0990
    20.3868  20.5146  20.5504  20.5504  20.5891  20.6226  20.6226  20.6336
    20.6342  20.8324  20.9378  20.9441  20.9441  20.9830

          k = 0.0554 0.1662 0.2770 ( 12655 PWs)   bands (ev):

   -52.4144 -52.3237 -52.2899 -52.2605 -52.2574 -52.2426 -52.2363 -52.2338
   -52.2300 -52.2290 -52.2241 -52.2203 -52.2191 -52.2081 -52.1815 -52.1100
   -24.0820 -24.0660 -24.0648 -24.0565 -24.0451 -24.0170 -23.8806 -23.8795
   -23.8660 -23.8591 -23.8585 -23.8488 -23.8148 -23.8024 -23.7578 -23.7382
   -23.6705 -23.6464 -23.6047 -23.5985 -23.5881 -23.5865 -23.5536 -23.5404
   -23.5369 -23.5264 -23.5183 -23.4986 -23.4977 -23.4799 -23.4663 -23.4520
   -23.4370 -23.4251 -23.4037 -23.3844 -23.3604 -23.3339 -23.3333 -23.3247
   -23.2888 -23.2636 -23.2629 -23.2565 -23.2436 -23.2418 -23.2196 -23.2147
    12.1575  14.1735  14.8710  15.0452  15.2552  15.3657  15.3977  15.3983
    15.4351  15.4529  15.4575  15.4887  15.8265  16.0091  16.0870  16.5915
    16.5939  16.6964  16.9783  17.0230  17.0518  17.0572  17.0857  17.1807
    17.2066  17.2477  17.2971  17.4395  17.5751  17.6275  17.6913  17.9801
    18.2008  18.3172  18.3208  18.3856  18.4062  18.4548  18.5070  18.6594
    18.7426  18.9028  18.9553  19.0612  19.1373  19.2093  19.2143  19.2981
    19.4111  19.5260  19.5530  19.6129  19.6432  19.8262  19.8272  20.2289
    20.3752  20.4255  20.4582  20.5206  20.5595  20.6047  20.6543  20.6878
    20.8688  20.9292  20.9325  20.9613  21.0101  21.0153

          k = 0.0554 0.1662 0.3878 ( 12634 PWs)   bands (ev):

   -52.3976 -52.3513 -52.2835 -52.2667 -52.2567 -52.2473 -52.2335 -52.2325
   -52.2303 -52.2272 -52.2268 -52.2222 -52.2149 -52.2095 -52.1584 -52.1223
   -24.0466 -24.0272 -24.0239 -24.0219 -23.9970 -23.9581 -23.9422 -23.9302
   -23.9205 -23.9161 -23.8768 -23.8728 -23.8660 -23.8143 -23.7741 -23.7222
   -23.6947 -23.6397 -23.6357 -23.5890 -23.5785 -23.5704 -23.5521 -23.5507
   -23.5413 -23.5356 -23.5254 -23.4987 -23.4980 -23.4563 -23.4416 -23.4249
   -23.3919 -23.3844 -23.3751 -23.3607 -23.3391 -23.3278 -23.3223 -23.2924
   -23.2921 -23.2919 -23.2919 -23.2891 -23.2671 -23.2626 -23.2340 -23.2314
    12.5368  13.5736  14.9693  15.0495  15.3484  15.4683  15.5168  15.5764
    15.6441  15.6896  15.6946  15.7356  15.7939  15.9241  16.0207  16.2395
    16.3730  16.4055  16.9280  16.9766  16.9829  17.0043  17.2797  17.3495
    17.3677  17.4032  17.4301  17.5751  17.6856  17.8402  17.9409  18.0025
    18.0605  18.0987  18.1480  18.1785  18.3286  18.3376  18.3652  18.3882
    18.4228  18.4801  18.5229  18.6678  18.7578  18.7605  19.1340  19.5546
    19.5748  19.7589  19.7623  19.8374  19.8433  19.8661  20.0644  20.1464
    20.1609  20.2599  20.3509  20.4042  20.5575  20.6800  20.7120  20.7919
    20.8268  20.8532  20.8620  20.9417  21.0065  21.0090

          k = 0.0554 0.1662-0.4986 ( 12642 PWs)   bands (ev):

   -52.3764 -52.3761 -52.2757 -52.2754 -52.2523 -52.2520 -52.2314 -52.2311
   -52.2305 -52.2302 -52.2247 -52.2243 -52.2119 -52.2115 -52.1387 -52.1384
   -23.9989 -23.9989 -23.9791 -23.9787 -23.9783 -23.9779 -23.9730 -23.9729
   -23.9396 -23.9395 -23.8893 -23.8892 -23.8736 -23.8734 -23.7379 -23.7376
   -23.6813 -23.6812 -23.6051 -23.6049 -23.5667 -23.5664 -23.5664 -23.5660
   -23.5443 -23.5440 -23.4986 -23.4983 -23.4526 -23.4525 -23.4482 -23.4478
   -23.3736 -23.3735 -23.3378 -23.3375 -23.3303 -23.3300 -23.3218 -23.3218
   -23.2999 -23.2996 -23.2890 -23.2890 -23.2581 -23.2581 -23.2578 -23.2576
    13.0166  13.0171  15.0310  15.0313  15.4327  15.4330  15.6745  15.6747
    15.7632  15.7634  15.8534  15.8537  15.9361  15.9365  16.0455  16.0459
    16.0612  16.0616  16.9382  16.9385  16.9683  16.9685  17.5259  17.5261
    17.5451  17.5454  17.5862  17.5863  17.6479  17.6483  18.0210  18.0211
    18.0664  18.0666  18.1396  18.1398  18.2619  18.2621  18.3168  18.3169
    18.3263  18.3264  18.3665  18.3666  18.4540  18.4542  19.3400  19.3402
    19.8621  19.8623  19.9056  19.9056  20.0602  20.0602  20.1196  20.1196
    20.1472  20.1473  20.1672  20.1672  20.5424  20.5426  20.7664  20.7667
    20.7847  20.7851  20.9228  20.9231  21.0039  21.0042

          k = 0.0554 0.2770 0.2770 ( 12636 PWs)   bands (ev):

   -52.4034 -52.3175 -52.3175 -52.2713 -52.2578 -52.2404 -52.2404 -52.2327
   -52.2286 -52.2286 -52.2269 -52.2212 -52.2089 -52.1840 -52.1840 -52.1176
   -24.0711 -24.0417 -24.0416 -24.0263 -24.0262 -23.9643 -23.9045 -23.9031
   -23.9031 -23.8869 -23.8864 -23.8841 -23.8476 -23.7849 -23.7197 -23.6717
   -23.6701 -23.6701 -23.6371 -23.6370 -23.5967 -23.5685 -23.5610 -23.5522
   -23.5522 -23.5314 -23.5314 -23.5170 -23.5170 -23.5091 -23.4458 -23.4133
   -23.3906 -23.3906 -23.3879 -23.3810 -23.3709 -23.3343 -23.3274 -23.2930
   -23.2929 -23.2745 -23.2745 -23.2624 -23.2624 -23.2576 -23.2143 -23.2095
    12.4103  14.3200  14.3200  14.9483  15.4679  15.4679  15.5422  15.5583
    15.5673  15.5673  15.5709  15.6455  15.9200  16.1029  16.1029  16.5214
    16.6038  16.7131  16.7131  17.0432  17.1239  17.1239  17.1329  17.1738
    17.1738  17.1958  17.2686  17.4283  17.5707  17.6545  17.6693  18.0801
    18.0801  18.2048  18.2048  18.2123  18.2351  18.2628  18.3160  18.4616
    18.6921  18.6922  18.7617  18.7617  18.9155  19.0293  19.0293  19.1601
    19.6246  19.6246  19.7006  19.7490  19.7915  19.7915  20.0590  20.1759
    20.1759  20.3693  20.4889  20.4889  20.5322  20.5516  20.5516  20.5692
    20.6556  20.8733  20.8770  20.8790  21.0062  21.0158

          k = 0.0554 0.2770 0.3878 ( 12649 PWs)   bands (ev):

   -52.3874 -52.3436 -52.3086 -52.2849 -52.2541 -52.2450 -52.2374 -52.2314
   -52.2303 -52.2290 -52.2267 -52.2227 -52.2003 -52.1879 -52.1625 -52.1290
   -24.0449 -24.0087 -24.0071 -23.9998 -23.9858 -23.9574 -23.9353 -23.9244
   -23.9239 -23.9135 -23.9036 -23.8998 -23.8910 -23.7582 -23.7483 -23.6828
   -23.6772 -23.6520 -23.6231 -23.5965 -23.5852 -23.5842 -23.5840 -23.5822
   -23.5744 -23.5635 -23.5403 -23.5175 -23.5156 -23.4753 -23.4477 -23.4277
   -23.3999 -23.3717 -23.3686 -23.3514 -23.3484 -23.3396 -23.3093 -23.2930
   -23.2906 -23.2902 -23.2811 -23.2729 -23.2587 -23.2585 -23.2188 -23.2157
    12.7749  13.7599  14.5021  14.8325  15.5560  15.6229  15.7131  15.7273
    15.7297  15.7611  15.8399  15.8607  15.9463  16.0312  16.0509  16.3858
    16.3989  16.4074  16.9777  17.0084  17.0596  17.0641  17.0942  17.2106
    17.2547  17.2984  17.3687  17.3957  17.7411  17.7795  17.8162  17.8381
    17.9371  18.0626  18.0724  18.1366  18.1584  18.1640  18.2701  18.2914
    18.3203  18.4030  18.4086  18.4128  18.5453  18.6358  19.3644  19.3875
    19.7811  19.8077  19.9012  19.9161  19.9284  19.9402  19.9420  20.0265
    20.1525  20.2401  20.3336  20.3867  20.4219  20.5413  20.5794  20.6162
    20.6926  20.7235  20.7870  20.7951  20.9092  21.0104

          k = 0.0554 0.2770-0.4986 ( 12634 PWs)   bands (ev):

   -52.3673 -52.3670 -52.2977 -52.2974 -52.2499 -52.2496 -52.2341 -52.2338
   -52.2302 -52.2299 -52.2248 -52.2244 -52.1935 -52.1931 -52.1442 -52.1439
   -24.0059 -24.0059 -23.9685 -23.9685 -23.9683 -23.9681 -23.9661 -23.9660
   -23.9391 -23.9390 -23.9131 -23.9131 -23.8265 -23.8264 -23.7238 -23.7235
   -23.6311 -23.6310 -23.6206 -23.6204 -23.6053 -23.6049 -23.5720 -23.5718
   -23.5643 -23.5641 -23.5209 -23.5209 -23.5177 -23.5175 -23.4214 -23.4214
   -23.4125 -23.4122 -23.3263 -23.3260 -23.3190 -23.3188 -23.3123 -23.3122
   -23.3118 -23.3114 -23.2885 -23.2884 -23.2337 -23.2337 -23.2325 -23.2324
    13.2332  13.2337  14.6821  14.6824  15.6236  15.6238  15.8592  15.8593
    15.8954  15.8956  15.9034  15.9037  16.0967  16.0971  16.1148  16.1151
    16.1382  16.1386  17.0107  17.0109  17.0429  17.0431  17.3181  17.3183
    17.3498  17.3502  17.3527  17.3529  17.5815  17.5816  18.0462  18.0463
    18.0504  18.0505  18.0557  18.0557  18.0985  18.0985  18.1114  18.1116
    18.2644  18.2645  18.2722  18.2723  18.3537  18.3539  19.6341  19.6342
    19.7432  19.7433  19.8205  19.8205  20.0338  20.0340  20.1465  20.1466
    20.1711  20.1712  20.2153  20.2154  20.3384  20.3386  20.6839  20.6842
    20.7026  20.7029  20.8527  20.8530  20.8895  20.8896

          k = 0.0554 0.3878 0.3878 ( 12619 PWs)   bands (ev):

   -52.3727 -52.3324 -52.3324 -52.3024 -52.2505 -52.2418 -52.2418 -52.2341
   -52.2300 -52.2273 -52.2273 -52.2238 -52.1877 -52.1687 -52.1687 -52.1391
   -24.0284 -23.9845 -23.9844 -23.9715 -23.9714 -23.9597 -23.9596 -23.9439
   -23.9381 -23.9378 -23.9302 -23.9130 -23.8308 -23.7335 -23.6746 -23.6746
   -23.6648 -23.6647 -23.6475 -23.6285 -23.6144 -23.5965 -23.5965 -23.5925
   -23.5761 -23.5402 -23.5401 -23.5295 -23.5267 -23.5267 -23.5202 -23.4202
   -23.4022 -23.3622 -23.3621 -23.3397 -23.3282 -23.3202 -23.3019 -23.2983
   -23.2971 -23.2970 -23.2895 -23.2894 -23.2331 -23.2330 -23.2132 -23.2106
    13.1154  14.0116  14.0116  14.5790  15.7808  15.8334  15.8334  15.8370
    15.8631  15.9691  15.9691  16.0293  16.0293  16.0768  16.0961  16.3335
    16.3619  16.6727  16.6727  17.0542  17.0785  17.1008  17.1519  17.1519
    17.1638  17.1638  17.2372  17.4016  17.4870  17.6726  17.7852  17.8348
    17.8348  17.9563  18.0148  18.0338  18.0649  18.0649  18.0943  18.0943
    18.2195  18.2195  18.2266  18.3341  18.3654  18.9589  18.9589  19.6613
    19.7325  19.8247  19.8937  19.8937  20.0643  20.0643  20.0891  20.0989
    20.2464  20.2464  20.2862  20.3913  20.4070  20.4413  20.4413  20.4674
    20.4674  20.6873  20.6923  20.6942  20.8101  20.9226

          k = 0.0554 0.3878-0.4986 ( 12600 PWs)   bands (ev):

   -52.3543 -52.3539 -52.3187 -52.3183 -52.2464 -52.2461 -52.2382 -52.2379
   -52.2287 -52.2283 -52.2257 -52.2253 -52.1773 -52.1769 -52.1525 -52.1522
   -23.9990 -23.9990 -23.9597 -23.9594 -23.9594 -23.9593 -23.9566 -23.9564
   -23.9499 -23.9498 -23.9411 -23.9409 -23.7543 -23.7542 -23.7022 -23.7018
   -23.6417 -23.6413 -23.6270 -23.6269 -23.6001 -23.6000 -23.5974 -23.5974
   -23.5781 -23.5780 -23.5613 -23.5612 -23.5376 -23.5375 -23.4722 -23.4721
   -23.3803 -23.3800 -23.3293 -23.3290 -23.3123 -23.3121 -23.3095 -23.3094
   -23.3059 -23.3057 -23.2918 -23.2917 -23.2178 -23.2178 -23.2167 -23.2166
    13.5371  13.5376  14.2963  14.2967  15.8583  15.8585  15.9497  15.9501
    15.9653  15.9655  16.0772  16.0774  16.1241  16.1244  16.2185  16.2187
    16.3738  16.3741  17.0189  17.0193  17.0779  17.0779  17.0789  17.0790
    17.1343  17.1346  17.1981  17.1983  17.6359  17.6360  17.8186  17.8187
    17.9025  17.9025  17.9052  17.9053  17.9066  17.9067  17.9682  17.9682
    18.2417  18.2418  18.2711  18.2712  18.5734  18.5735  19.3281  19.3281
    19.8171  19.8171  19.9474  19.9475  20.1072  20.1074  20.2083  20.2085
    20.2751  20.2753  20.2820  20.2821  20.2823  20.2825  20.5660  20.5662
    20.5775  20.5778  20.5912  20.5912  20.7727  20.7730

          k = 0.0554-0.4986-0.4986 ( 12588 PWs)   bands (ev):

   -52.3378 -52.3378 -52.3375 -52.3374 -52.2424 -52.2424 -52.2422 -52.2421
   -52.2271 -52.2270 -52.2267 -52.2267 -52.1636 -52.1635 -52.1633 -52.1632
   -23.9796 -23.9796 -23.9795 -23.9795 -23.9565 -23.9565 -23.9563 -23.9562
   -23.9469 -23.9469 -23.9467 -23.9467 -23.6766 -23.6765 -23.6765 -23.6765
   -23.6745 -23.6744 -23.6742 -23.6741 -23.6201 -23.6201 -23.6200 -23.6200
   -23.5529 -23.5529 -23.5528 -23.5528 -23.5247 -23.5247 -23.5246 -23.5246
   -23.3522 -23.3522 -23.3519 -23.3518 -23.3049 -23.3049 -23.3048 -23.3047
   -23.3000 -23.3000 -23.2998 -23.2998 -23.2118 -23.2118 -23.2118 -23.2118
    13.9027  13.9027  13.9031  13.9031  15.9777  15.9777  15.9780  15.9780
    16.0531  16.0531  16.0533  16.0533  16.2234  16.2234  16.2236  16.2236
    16.6845  16.6846  16.6849  16.6849  17.0618  17.0618  17.0620  17.0620
    17.1134  17.1135  17.1136  17.1136  17.7451  17.7451  17.7452  17.7452
    17.7868  17.7869  17.7869  17.7869  17.8773  17.8773  17.8773  17.8774
    18.2321  18.2321  18.2322  18.2322  18.9322  18.9322  18.9322  18.9322
    19.9178  19.9179  19.9180  19.9180  20.2618  20.2619  20.2619  20.2619
    20.3158  20.3158  20.3159  20.3159  20.4234  20.4235  20.4236  20.4237
    20.4286  20.4287  20.4289  20.4289  20.7447  20.7448

          k = 0.1662 0.1662 0.1662 ( 12665 PWs)   bands (ev):

   -52.4203 -52.2922 -52.2922 -52.2922 -52.2468 -52.2468 -52.2468 -52.2246
   -52.2241 -52.2241 -52.2240 -52.2182 -52.2077 -52.2077 -52.2076 -52.1057
   -24.0887 -24.0887 -24.0887 -24.0525 -24.0525 -24.0525 -23.8645 -23.8467
   -23.8467 -23.8467 -23.8443 -23.8443 -23.7667 -23.7667 -23.7574 -23.7025
   -23.7025 -23.7025 -23.6068 -23.6067 -23.6067 -23.5364 -23.5363 -23.5363
   -23.5360 -23.5359 -23.4962 -23.4962 -23.4961 -23.4855 -23.4855 -23.4855
   -23.4388 -23.4388 -23.4388 -23.4355 -23.3546 -23.3546 -23.3546 -23.3097
   -23.2632 -23.2632 -23.2631 -23.2280 -23.2280 -23.2280 -23.2178 -23.2178
    12.0275  14.8393  14.8393  14.8394  15.1607  15.1607  15.1607  15.3541
    15.3541  15.3541  15.4056  15.4056  16.0543  16.0543  16.0544  16.6260
    16.9559  16.9560  16.9560  16.9690  16.9690  17.0884  17.0884  17.0884
    17.2127  17.2128  17.2128  17.3392  17.3900  17.3900  17.9493  17.9493
    17.9493  18.4135  18.4135  18.4135  18.4369  18.4369  18.8961  18.8961
    18.8961  18.9366  19.0566  19.0566  19.0566  19.3126  19.3126  19.3126
    19.4404  19.4404  19.4405  19.6470  19.6470  19.6470  20.3315  20.3316
    20.3316  20.4317  20.4317  20.4318  20.5580  20.5580  20.6259  20.6259
    20.6260  20.9420  20.9421  20.9421  20.9842  20.9843

          k = 0.1662 0.1662 0.2770 ( 12632 PWs)   bands (ev):

   -52.4089 -52.3206 -52.2877 -52.2877 -52.2558 -52.2558 -52.2443 -52.2282
   -52.2229 -52.2188 -52.2188 -52.2181 -52.2084 -52.2084 -52.1826 -52.1137
   -24.0689 -24.0689 -24.0612 -24.0330 -24.0100 -24.0100 -23.8989 -23.8905
   -23.8905 -23.8709 -23.8638 -23.8406 -23.8237 -23.7589 -23.7589 -23.7287
   -23.7218 -23.6611 -23.6351 -23.6093 -23.6093 -23.5644 -23.5553 -23.5553
   -23.5472 -23.5455 -23.4996 -23.4728 -23.4728 -23.4638 -23.4495 -23.4494
   -23.4435 -23.4435 -23.3937 -23.3866 -23.3597 -23.3207 -23.3207 -23.3136
   -23.2889 -23.2889 -23.2748 -23.2536 -23.2361 -23.2315 -23.2315 -23.2189
    12.2855  14.2588  14.9513  14.9513  15.1623  15.1623  15.3814  15.5015
    15.5015  15.5341  15.5529  15.5530  16.0919  16.0919  16.1545  16.5340
    16.5959  16.8129  16.9284  16.9905  16.9906  17.0479  17.1465  17.1786
    17.1786  17.2170  17.3776  17.3776  17.4459  17.6342  17.7963  17.7964
    18.1370  18.2043  18.2043  18.3067  18.3422  18.4051  18.5873  18.5873
    18.5989  18.5989  18.8422  18.9796  18.9796  19.0070  19.1131  19.1199
    19.4484  19.5805  19.5805  19.7520  19.7520  19.9387  20.0624  20.2898
    20.2898  20.4111  20.5131  20.5540  20.5540  20.5905  20.6401  20.6523
    20.6527  20.6527  20.9224  20.9280  20.9497  20.9834

          k = 0.1662 0.1662 0.3878 ( 12632 PWs)   bands (ev):

   -52.3925 -52.3474 -52.2814 -52.2814 -52.2650 -52.2649 -52.2408 -52.2324
   -52.2215 -52.2188 -52.2147 -52.2147 -52.2097 -52.2097 -52.1603 -52.1255
   -24.0355 -24.0355 -24.0212 -24.0055 -23.9554 -23.9554 -23.9416 -23.9416
   -23.9355 -23.9092 -23.8834 -23.8781 -23.8249 -23.8249 -23.7941 -23.7114
   -23.6870 -23.6824 -23.6027 -23.6027 -23.6013 -23.5936 -23.5737 -23.5736
   -23.5631 -23.5456 -23.5170 -23.4627 -23.4627 -23.4485 -23.4485 -23.4213
   -23.4027 -23.4027 -23.3977 -23.3548 -23.3391 -23.3212 -23.3212 -23.2941
   -23.2912 -23.2884 -23.2884 -23.2783 -23.2629 -23.2428 -23.2428 -23.2297
    12.6588  13.6746  15.0657  15.0657  15.1660  15.1660  15.6794  15.6794
    15.6912  15.7232  15.7450  15.8227  16.0248  16.0248  16.1013  16.2622
    16.3797  16.4575  16.9271  16.9994  17.0709  17.0757  17.1825  17.1825
    17.3264  17.3264  17.5631  17.5631  17.6819  17.6819  17.7442  17.9214
    18.0528  18.0528  18.1365  18.1365  18.2446  18.2473  18.2719  18.2865
    18.2865  18.3627  18.5012  18.5012  18.5503  18.5556  19.3169  19.4117
    19.6820  19.7961  19.8676  19.8676  19.8835  19.8835  20.1412  20.1413
    20.1732  20.2027  20.2892  20.3975  20.3976  20.6171  20.7074  20.7529
    20.8342  20.8559  20.9466  20.9466  20.9592  20.9769

          k = 0.1662 0.1662-0.4986 ( 12640 PWs)   bands (ev):

   -52.3719 -52.3716 -52.2738 -52.2738 -52.2735 -52.2735 -52.2369 -52.2366
   -52.2202 -52.2199 -52.2119 -52.2119 -52.2115 -52.2115 -52.1413 -52.1410
   -23.9918 -23.9918 -23.9917 -23.9917 -23.9723 -23.9720 -23.9701 -23.9697
   -23.8923 -23.8923 -23.8922 -23.8922 -23.8851 -23.8850 -23.7563 -23.7560
   -23.6437 -23.6434 -23.6396 -23.6394 -23.5903 -23.5902 -23.5900 -23.5900
   -23.5342 -23.5339 -23.4905 -23.4904 -23.4548 -23.4547 -23.4545 -23.4544
   -23.3596 -23.3596 -23.3595 -23.3594 -23.3399 -23.3396 -23.3211 -23.3209
   -23.2978 -23.2974 -23.2619 -23.2619 -23.2619 -23.2618 -23.2500 -23.2500
    13.1298  13.1303  15.1409  15.1409  15.1412  15.1412  15.8668  15.8668
    15.8670  15.8670  15.9447  15.9450  15.9679  15.9683  16.0628  16.0632
    16.1216  16.1220  16.9546  16.9549  17.0337  17.0339  17.4927  17.4927
    17.4930  17.4930  17.5126  17.5126  17.5128  17.5128  18.0270  18.0270
    18.0271  18.0271  18.1210  18.1211  18.1568  18.1568  18.1569  18.1570
    18.2367  18.2368  18.2374  18.2374  18.3114  18.3117  19.5454  19.5455
    19.7701  19.7701  19.9497  19.9499  19.9980  19.9980  19.9980  19.9981
    20.1664  20.1665  20.1665  20.1666  20.6792  20.6794  20.7285  20.7288
    20.7787  20.7790  20.8888  20.8891  20.9686  20.9689

          k = 0.1662 0.2770 0.2770 ( 12637 PWs)   bands (ev):

   -52.3981 -52.3145 -52.3145 -52.2834 -52.2694 -52.2529 -52.2529 -52.2332
   -52.2181 -52.2181 -52.2168 -52.2090 -52.2089 -52.1850 -52.1850 -52.1210
   -24.0576 -24.0431 -24.0431 -23.9969 -23.9968 -23.9610 -23.9181 -23.9115
   -23.9088 -23.9087 -23.8760 -23.8553 -23.8194 -23.7967 -23.7461 -23.6938
   -23.6938 -23.6807 -23.6629 -23.6628 -23.6276 -23.5884 -23.5883 -23.5840
   -23.5233 -23.4965 -23.4965 -23.4848 -23.4848 -23.4512 -23.4500 -23.4361
   -23.4136 -23.4109 -23.3925 -23.3924 -23.3630 -23.3210 -23.3021 -23.2915
   -23.2915 -23.2860 -23.2860 -23.2547 -23.2547 -23.2476 -23.2267 -23.2192
    12.5356  14.4137  14.4137  15.0698  15.0892  15.3880  15.3880  15.6545
    15.6608  15.6960  15.6960  15.7008  16.2007  16.2035  16.2035  16.4961
    16.6832  16.6832  16.7502  16.9362  16.9951  17.1291  17.1291  17.2403
    17.2622  17.2751  17.2751  17.3138  17.5635  17.6057  17.6221  17.9438
    17.9439  18.0881  18.1322  18.1322  18.1879  18.2334  18.3333  18.3851
    18.4448  18.4448  18.6175  18.6175  18.6856  18.7767  18.7767  19.3283
    19.6990  19.6990  19.7448  19.8924  19.9715  19.9716  20.1516  20.1708
    20.3965  20.3966  20.3978  20.3978  20.4182  20.5354  20.5800  20.5801
    20.6062  20.8831  20.8835  20.8861  20.8925  20.9642

          k = 0.1662 0.2770 0.3878 ( 12642 PWs)   bands (ev):

   -52.3826 -52.3399 -52.3058 -52.2826 -52.2773 -52.2616 -52.2488 -52.2385
   -52.2173 -52.2164 -52.2144 -52.2100 -52.2006 -52.1887 -52.1642 -52.1320
   -24.0323 -24.0143 -24.0057 -23.9792 -23.9531 -23.9509 -23.9426 -23.9380
   -23.9145 -23.9051 -23.9010 -23.8953 -23.8455 -23.7935 -23.7626 -23.7178
   -23.7126 -23.6529 -23.6368 -23.6330 -23.6304 -23.6227 -23.6110 -23.6099
   -23.5440 -23.5189 -23.4989 -23.4783 -23.4738 -23.4583 -23.4474 -23.4303
   -23.4016 -23.3840 -23.3737 -23.3585 -23.3458 -23.3356 -23.3134 -23.2994
   -23.2890 -23.2842 -23.2722 -23.2607 -23.2602 -23.2576 -23.2299 -23.2238
    12.8961  13.8656  14.6069  14.9542  15.2390  15.3890  15.7046  15.8156
    15.8339  15.8722  15.9071  15.9551  16.1408  16.1582  16.1993  16.3977
    16.4188  16.4690  16.9351  16.9882  17.0335  17.0698  17.1462  17.1671
    17.2547  17.3614  17.3831  17.5026  17.5045  17.6871  17.7383  17.7743
    17.8690  17.9545  18.0117  18.0447  18.0770  18.1266  18.1400  18.1571
    18.2174  18.2232  18.2437  18.2693  18.3511  18.4346  19.0253  19.5712
    19.7475  19.8831  19.9657  19.9739  19.9770  20.0254  20.0423  20.1165
    20.2657  20.2742  20.2893  20.4278  20.4288  20.5316  20.6403  20.6905
    20.7442  20.7924  20.8085  20.8988  20.9607  20.9614

          k = 0.1662 0.2770-0.4986 ( 12616 PWs)   bands (ev):

   -52.3630 -52.3627 -52.2952 -52.2948 -52.2701 -52.2697 -52.2440 -52.2437
   -52.2168 -52.2165 -52.2119 -52.2116 -52.1941 -52.1937 -52.1466 -52.1463
   -23.9962 -23.9962 -23.9789 -23.9788 -23.9589 -23.9587 -23.9586 -23.9584
   -23.9094 -23.9093 -23.8988 -23.8987 -23.8334 -23.8333 -23.7571 -23.7567
   -23.6754 -23.6752 -23.6348 -23.6345 -23.6260 -23.6258 -23.5911 -23.5910
   -23.5495 -23.5495 -23.5113 -23.5111 -23.4655 -23.4653 -23.4143 -23.4140
   -23.4009 -23.4008 -23.3409 -23.3408 -23.3331 -23.3328 -23.3139 -23.3137
   -23.3055 -23.3052 -23.2701 -23.2701 -23.2413 -23.2413 -23.2364 -23.2364
    13.3479  13.3484  14.7977  14.7981  15.3466  15.3469  16.0016  16.0020
    16.0027  16.0029  16.0580  16.0582  16.0822  16.0826  16.1419  16.1423
    16.2254  16.2257  17.0159  17.0161  17.1027  17.1028  17.2770  17.2774
    17.3010  17.3014  17.3936  17.3938  17.5330  17.5332  17.8341  17.8342
    17.9718  17.9718  17.9862  17.9862  18.0085  18.0087  18.0534  18.0534
    18.1156  18.1157  18.1182  18.1182  18.2016  18.2018  19.3552  19.3553
    19.8340  19.8341  19.9802  19.9802  20.0959  20.0961  20.1502  20.1503
    20.2182  20.2183  20.2282  20.2283  20.6136  20.6138  20.6693  20.6695
    20.7211  20.7214  20.8269  20.8272  20.9376  20.9379

          k = 0.1662 0.3878 0.3878 ( 12640 PWs)   bands (ev):

   -52.3682 -52.3290 -52.3290 -52.2997 -52.2716 -52.2569 -52.2569 -52.2449
   -52.2150 -52.2142 -52.2142 -52.2108 -52.1884 -52.1702 -52.1702 -52.1417
   -24.0155 -23.9847 -23.9846 -23.9520 -23.9519 -23.9491 -23.9459 -23.9459
   -23.9393 -23.9198 -23.9189 -23.8748 -23.8367 -23.7730 -23.7185 -23.6995
   -23.6994 -23.6926 -23.6926 -23.6555 -23.6522 -23.6522 -23.6456 -23.5894
   -23.5461 -23.5065 -23.4940 -23.4940 -23.4863 -23.4862 -23.4680 -23.4020
   -23.4002 -23.3592 -23.3591 -23.3534 -23.3470 -23.3204 -23.3093 -23.3093
   -23.2932 -23.2856 -23.2856 -23.2821 -23.2394 -23.2393 -23.2251 -23.2209
    13.2350  14.1236  14.1236  14.7016  15.4447  15.6959  15.6959  15.9300
    15.9695  16.1217  16.1217  16.1367  16.1379  16.1379  16.3377  16.3443
    16.4457  16.6725  16.6726  16.9505  17.0579  17.1253  17.1715  17.1715
    17.2062  17.2062  17.3619  17.3942  17.4285  17.4528  17.7272  17.7869
    17.7869  17.8186  17.9059  17.9059  17.9645  17.9645  17.9778  18.0099
    18.0284  18.0693  18.0694  18.1791  18.1897  18.6521  18.6521  19.3299
    19.8539  20.0052  20.1057  20.1057  20.1393  20.1533  20.1533  20.1837
    20.3319  20.4230  20.4323  20.4323  20.4668  20.4668  20.5053  20.5053
    20.6670  20.7105  20.7174  20.7175  20.8108  20.9124

          k = 0.1662 0.3878-0.4986 ( 12616 PWs)   bands (ev):

   -52.3503 -52.3499 -52.3156 -52.3152 -52.2648 -52.2645 -52.2513 -52.2510
   -52.2145 -52.2141 -52.2122 -52.2119 -52.1784 -52.1781 -52.1546 -52.1543
   -23.9873 -23.9873 -23.9639 -23.9638 -23.9506 -23.9503 -23.9418 -23.9416
   -23.9395 -23.9395 -23.9097 -23.9095 -23.7657 -23.7657 -23.7404 -23.7401
   -23.6920 -23.6919 -23.6760 -23.6757 -23.6620 -23.6619 -23.6191 -23.6191
   -23.5415 -23.5414 -23.4975 -23.4973 -23.4770 -23.4768 -23.4456 -23.4456
   -23.3782 -23.3779 -23.3251 -23.3250 -23.3228 -23.3225 -23.3179 -23.3177
   -23.3115 -23.3113 -23.2828 -23.2827 -23.2282 -23.2282 -23.2260 -23.2260
    13.6539  13.6543  14.4148  14.4152  15.6141  15.6144  16.0418  16.0422
    16.0502  16.0506  16.0732  16.0735  16.2885  16.2887  16.3525  16.3528
    16.4008  16.4011  17.0190  17.0193  17.0787  17.0790  17.0996  17.0996
    17.1009  17.1010  17.2691  17.2693  17.5967  17.5968  17.6125  17.6125
    17.7609  17.7610  17.8263  17.8265  17.8626  17.8626  17.9011  17.9012
    18.0761  18.0762  18.1200  18.1202  18.3151  18.3152  18.9550  18.9550
    20.0476  20.0477  20.1466  20.1466  20.2582  20.2584  20.3056  20.3058
    20.3189  20.3190  20.3279  20.3281  20.4174  20.4175  20.5855  20.5858
    20.6086  20.6089  20.7564  20.7568  20.7947  20.7949

          k = 0.1662-0.4986-0.4986 ( 12600 PWs)   bands (ev):

   -52.3343 -52.3342 -52.3339 -52.3339 -52.2584 -52.2584 -52.2581 -52.2580
   -52.2130 -52.2130 -52.2127 -52.2126 -52.1653 -52.1652 -52.1649 -52.1649
   -23.9672 -23.9672 -23.9672 -23.9672 -23.9525 -23.9524 -23.9523 -23.9522
   -23.9244 -23.9244 -23.9242 -23.9242 -23.7121 -23.7120 -23.7118 -23.7117
   -23.6929 -23.6929 -23.6929 -23.6929 -23.6869 -23.6869 -23.6869 -23.6868
   -23.4927 -23.4927 -23.4926 -23.4926 -23.4871 -23.4871 -23.4871 -23.4871
   -23.3476 -23.3475 -23.3473 -23.3472 -23.3151 -23.3151 -23.3149 -23.3149
   -23.2995 -23.2995 -23.2994 -23.2993 -23.2231 -23.2231 -23.2231 -23.2231
    14.0210  14.0211  14.0215  14.0215  15.8766  15.8766  15.8769  15.8770
    16.0825  16.0825  16.0828  16.0828  16.4216  16.4216  16.4217  16.4218
    16.7048  16.7048  16.7051  16.7052  17.0143  17.0144  17.0146  17.0146
    17.1755  17.1755  17.1757  17.1757  17.6013  17.6013  17.6014  17.6014
    17.7070  17.7070  17.7071  17.7071  17.8155  17.8156  17.8156  17.8156
    18.0737  18.0738  18.0738  18.0739  18.6005  18.6006  18.6006  18.6006
    20.2048  20.2049  20.2049  20.2050  20.3325  20.3325  20.3327  20.3327
    20.4681  20.4682  20.4684  20.4684  20.4694  20.4695  20.4696  20.4697
    20.4956  20.4956  20.4957  20.4957  20.7363  20.7365

          k = 0.2770 0.2770 0.2770 ( 12641 PWs)   bands (ev):

   -52.3879 -52.3087 -52.3087 -52.3087 -52.2657 -52.2657 -52.2657 -52.2401
   -52.2136 -52.2089 -52.2089 -52.2089 -52.1872 -52.1872 -52.1872 -52.1278
   -24.0311 -24.0310 -24.0310 -23.9552 -23.9552 -23.9552 -23.9272 -23.9231
   -23.9231 -23.9231 -23.8547 -23.8547 -23.8176 -23.8176 -23.7360 -23.7360
   -23.7359 -23.6844 -23.6843 -23.6843 -23.6362 -23.6234 -23.6233 -23.6233
   -23.4656 -23.4570 -23.4569 -23.4569 -23.4540 -23.4540 -23.4537 -23.4537
   -23.4536 -23.3966 -23.3965 -23.3965 -23.3410 -23.3137 -23.3137 -23.3136
   -23.2754 -23.2753 -23.2753 -23.2513 -23.2513 -23.2513 -23.2383 -23.2383
    12.7803  14.5854  14.5854  14.5854  15.3053  15.3053  15.3053  15.8095
    15.8095  15.8537  15.8537  15.8537  16.3515  16.3515  16.3515  16.5081
    16.6673  16.6673  16.6673  16.9130  16.9868  16.9868  17.1893  17.1893
    17.1894  17.4155  17.4155  17.4155  17.4236  17.4236  17.7773  17.7773
    17.7773  17.9872  17.9872  17.9873  18.0942  18.0942  18.0942  18.1780
    18.1780  18.3311  18.3311  18.3312  18.4676  18.4677  18.4677  19.5695
    19.7319  19.8637  19.8638  19.8638  20.1220  20.1220  20.1220  20.3068
    20.3068  20.3068  20.5099  20.5099  20.5695  20.5695  20.5696  20.7074
    20.7075  20.7075  20.8896  20.8897  20.8939  20.8948

          k = 0.2770 0.2770 0.3878 ( 12636 PWs)   bands (ev):

   -52.3731 -52.3327 -52.3004 -52.3004 -52.2783 -52.2783 -52.2605 -52.2473
   -52.2113 -52.2092 -52.2013 -52.2013 -52.1905 -52.1905 -52.1678 -52.1379
   -24.0079 -24.0079 -23.9921 -23.9480 -23.9474 -23.9474 -23.9340 -23.9214
   -23.9041 -23.9041 -23.8854 -23.8839 -23.8239 -23.7894 -23.7893 -23.7728
   -23.7372 -23.6892 -23.6892 -23.6716 -23.6684 -23.6543 -23.6543 -23.5900
   -23.5290 -23.4983 -23.4643 -23.4638 -23.4343 -23.4342 -23.4118 -23.4118
   -23.4045 -23.4045 -23.3903 -23.3467 -23.3411 -23.3411 -23.3238 -23.3103
   -23.2876 -23.2666 -23.2648 -23.2648 -23.2550 -23.2520 -23.2520 -23.2362
    13.1315  14.0657  14.8024  14.8024  15.1894  15.1894  15.6393  15.9678
    16.0093  16.0302  16.0302  16.1080  16.3461  16.3463  16.3464  16.4068
    16.4934  16.4992  16.8509  16.8509  17.0124  17.1259  17.2252  17.2420
    17.2601  17.2997  17.2998  17.4985  17.4985  17.6049  17.6140  17.6140
    17.7919  17.7919  17.8673  17.8673  17.9032  17.9425  17.9434  17.9579
    18.0459  18.0459  18.0471  18.1019  18.1717  18.1718  18.6388  19.3042
    19.8424  20.0280  20.0762  20.0762  20.1868  20.1868  20.2412  20.2412
    20.3729  20.4229  20.4373  20.4702  20.4702  20.4868  20.6338  20.6340
    20.8084  20.8091  20.8941  20.8942  20.8962  20.8999

          k = 0.2770 0.2770-0.4986 ( 12608 PWs)   bands (ev):

   -52.3546 -52.3543 -52.2902 -52.2902 -52.2899 -52.2899 -52.2544 -52.2541
   -52.2101 -52.2097 -52.1954 -52.1954 -52.1950 -52.1950 -52.1515 -52.1512
   -23.9780 -23.9780 -23.9779 -23.9779 -23.9429 -23.9425 -23.9408 -23.9405
   -23.9083 -23.9082 -23.8473 -23.8473 -23.8472 -23.8471 -23.7843 -23.7839
   -23.7230 -23.7229 -23.6779 -23.6779 -23.6777 -23.6777 -23.5980 -23.5980
   -23.5438 -23.5437 -23.4673 -23.4671 -23.4170 -23.4170 -23.4167 -23.4167
   -23.3740 -23.3740 -23.3739 -23.3738 -23.3344 -23.3341 -23.3135 -23.3133
   -23.3030 -23.3027 -23.2566 -23.2566 -23.2566 -23.2566 -23.2415 -23.2415
    13.5690  13.5695  15.0178  15.0178  15.0182  15.0182  16.0469  16.0474
    16.1696  16.1700  16.2059  16.2059  16.2061  16.2061  16.2095  16.2098
    16.3606  16.3609  17.0625  17.0628  17.1644  17.1645  17.1953  17.1953
    17.1957  17.1957  17.4487  17.4487  17.4489  17.4489  17.5717  17.5719
    17.7891  17.7894  17.8761  17.8761  17.8762  17.8763  17.9151  17.9151
    17.9152  17.9152  17.9640  17.9641  18.0098  18.0100  18.9264  18.9264
    20.1355  20.1355  20.2062  20.2064  20.2085  20.2085  20.2085  20.2085
    20.2910  20.2910  20.2912  20.2912  20.6609  20.6611  20.7173  20.7176
    20.7753  20.7755  20.7794  20.7797  20.9001  20.9005

          k = 0.2770 0.3878 0.3878 ( 12623 PWs)   bands (ev):

   -52.3595 -52.3223 -52.3223 -52.2945 -52.2926 -52.2722 -52.2722 -52.2562
   -52.2073 -52.2025 -52.2025 -52.1933 -52.1900 -52.1733 -52.1733 -52.1469
   -23.9900 -23.9729 -23.9728 -23.9459 -23.9392 -23.9392 -23.9260 -23.9095
   -23.9094 -23.8964 -23.8900 -23.8484 -23.8256 -23.8195 -23.7865 -23.7411
   -23.7411 -23.7255 -23.7255 -23.7156 -23.7043 -23.7042 -23.6938 -23.5908
   -23.5429 -23.4532 -23.4532 -23.4406 -23.4374 -23.4373 -23.4098 -23.4005
   -23.3781 -23.3738 -23.3673 -23.3557 -23.3557 -23.3270 -23.3269 -23.3176
   -23.2841 -23.2841 -23.2813 -23.2711 -23.2512 -23.2512 -23.2483 -23.2414
    13.4666  14.3368  14.3368  14.9384  15.0567  15.5196  15.5196  16.1034
    16.1723  16.2155  16.2890  16.2890  16.2915  16.3466  16.3466  16.5633
    16.5861  16.6657  16.6657  16.7892  17.0905  17.1855  17.1861  17.2236
    17.2236  17.2839  17.2840  17.3774  17.3903  17.4802  17.5229  17.6978
    17.7030  17.7030  17.7044  17.7045  17.7114  17.7114  17.7352  17.8501
    17.8501  17.8920  17.9088  17.9273  17.9942  18.2764  18.2764  18.8817
    20.1491  20.2044  20.2044  20.2291  20.2632  20.3494  20.4196  20.4245
    20.4245  20.4562  20.4562  20.4744  20.5479  20.5479  20.6164  20.7463
    20.7742  20.7742  20.7787  20.8102  20.8793  20.8904

          k = 0.2770 0.3878-0.4986 ( 12634 PWs)   bands (ev):

   -52.3425 -52.3421 -52.3095 -52.3092 -52.2832 -52.2829 -52.2648 -52.2645
   -52.2046 -52.2043 -52.1974 -52.1971 -52.1808 -52.1805 -52.1588 -52.1585
   -23.9650 -23.9649 -23.9548 -23.9547 -23.9305 -23.9301 -23.9206 -23.9205
   -23.9173 -23.9171 -23.8672 -23.8671 -23.7873 -23.7872 -23.7864 -23.7861
   -23.7526 -23.7525 -23.7247 -23.7245 -23.7211 -23.7210 -23.6579 -23.6579
   -23.4972 -23.4971 -23.4384 -23.4383 -23.4199 -23.4198 -23.4114 -23.4113
   -23.3741 -23.3739 -23.3496 -23.3495 -23.3247 -23.3244 -23.3189 -23.3187
   -23.3139 -23.3136 -23.2782 -23.2781 -23.2486 -23.2485 -23.2439 -23.2439
    13.8787  13.8791  14.6423  14.6427  15.3163  15.3166  15.9108  15.9112
    16.2394  16.2397  16.2805  16.2807  16.4522  16.4526  16.4738  16.4739
    16.5312  16.5315  17.0136  17.0140  17.0398  17.0401  17.1363  17.1363
    17.1493  17.1495  17.3490  17.3492  17.4032  17.4033  17.5260  17.5261
    17.6016  17.6018  17.6227  17.6229  17.7387  17.7388  17.7904  17.7904
    17.8259  17.8260  17.9067  17.9068  17.9679  17.9680  18.5227  18.5227
    20.3330  20.3333  20.3394  20.3394  20.3731  20.3733  20.3979  20.3981
    20.4261  20.4262  20.4769  20.4769  20.6460  20.6463  20.6468  20.6471
    20.7183  20.7184  20.7251  20.7254  20.8118  20.8121

          k = 0.2770-0.4986-0.4986 ( 12632 PWs)   bands (ev):

   -52.3273 -52.3272 -52.3269 -52.3269 -52.2746 -52.2745 -52.2743 -52.2742
   -52.2005 -52.2004 -52.2002 -52.2001 -52.1687 -52.1686 -52.1683 -52.1683
   -23.9434 -23.9434 -23.9433 -23.9433 -23.9347 -23.9347 -23.9345 -23.9344
   -23.8915 -23.8915 -23.8913 -23.8913 -23.7630 -23.7629 -23.7627 -23.7626
   -23.7511 -23.7511 -23.7510 -23.7510 -23.7227 -23.7227 -23.7226 -23.7226
   -23.4527 -23.4527 -23.4526 -23.4526 -23.4252 -23.4252 -23.4252 -23.4252
   -23.3389 -23.3388 -23.3386 -23.3386 -23.3308 -23.3308 -23.3307 -23.3307
   -23.3033 -23.3032 -23.3031 -23.3030 -23.2450 -23.2450 -23.2449 -23.2449
    14.2490  14.2490  14.2494  14.2494  15.6423  15.6424  15.6427  15.6428
    16.2824  16.2824  16.2827  16.2827  16.6594  16.6594  16.6596  16.6596
    16.7428  16.7428  16.7431  16.7431  16.9650  16.9650  16.9652  16.9653
    17.2519  17.2519  17.2521  17.2521  17.4312  17.4312  17.4313  17.4313
    17.6155  17.6155  17.6156  17.6156  17.6368  17.6368  17.6369  17.6369
    17.8418  17.8419  17.8419  17.8420  18.1864  18.1864  18.1864  18.1864
    20.4101  20.4102  20.4104  20.4104  20.5255  20.5255  20.5258  20.5258
    20.5294  20.5294  20.5295  20.5295  20.5803  20.5804  20.5805  20.5805
    20.7177  20.7178  20.7180  20.7181  20.8336  20.8337

          k = 0.3878 0.3878 0.3878 ( 12637 PWs)   bands (ev):

   -52.3469 -52.3127 -52.3127 -52.3127 -52.2870 -52.2870 -52.2870 -52.2673
   -52.2011 -52.1926 -52.1926 -52.1926 -52.1780 -52.1780 -52.1780 -52.1547
   -23.9532 -23.9531 -23.9531 -23.9293 -23.9293 -23.9293 -23.9069 -23.8652
   -23.8652 -23.8652 -23.8636 -23.8636 -23.8496 -23.8496 -23.7716 -23.7716
   -23.7716 -23.7685 -23.7685 -23.7685 -23.7478 -23.7478 -23.7478 -23.6464
   -23.4972 -23.4139 -23.4139 -23.4139 -23.3970 -23.3969 -23.3969 -23.3801
   -23.3801 -23.3567 -23.3567 -23.3567 -23.3501 -23.3501 -23.3501 -23.3216
   -23.2827 -23.2826 -23.2826 -23.2713 -23.2713 -23.2656 -23.2656 -23.2656
    13.7945  14.6279  14.6279  14.6279  15.2710  15.2710  15.2710  16.0509
    16.3281  16.3281  16.4486  16.4486  16.4486  16.6247  16.6247  16.6247
    16.6519  16.6519  16.6519  16.7573  17.1489  17.1489  17.2485  17.2485
    17.3104  17.3104  17.3104  17.3481  17.3482  17.3482  17.4279  17.4279
    17.4279  17.5857  17.5857  17.5858  17.5959  17.5959  17.5959  17.6507
    17.6507  17.6507  17.8162  17.8162  17.9211  17.9211  17.9211  18.4580
    20.3372  20.3372  20.3372  20.4866  20.5218  20.5218  20.5218  20.5413
    20.5413  20.5574  20.5574  20.5575  20.5912  20.5912  20.5913  20.7730
    20.7730  20.8052  20.8052  20.8052  20.8256  20.8256

          k = 0.3878 0.3878-0.4986 ( 12646 PWs)   bands (ev):

   -52.3313 -52.3309 -52.3009 -52.3009 -52.3006 -52.3006 -52.2780 -52.2776
   -52.1964 -52.1960 -52.1846 -52.1846 -52.1842 -52.1842 -52.1652 -52.1649
   -23.9343 -23.9343 -23.9342 -23.9342 -23.9060 -23.9057 -23.9012 -23.9011
   -23.8857 -23.8855 -23.8217 -23.8214 -23.8168 -23.8167 -23.8166 -23.8165
   -23.8012 -23.8011 -23.7742 -23.7742 -23.7741 -23.7740 -23.7073 -23.7073
   -23.4539 -23.4537 -23.3902 -23.3901 -23.3793 -23.3793 -23.3791 -23.3791
   -23.3693 -23.3693 -23.3691 -23.3691 -23.3325 -23.3323 -23.3271 -23.3268
   -23.3103 -23.3099 -23.2773 -23.2773 -23.2773 -23.2773 -23.2660 -23.2660
    14.1931  14.1935  14.9572  14.9572  14.9576  14.9576  15.6649  15.6653
    16.4673  16.4677  16.5457  16.5460  16.5688  16.5688  16.5690  16.5691
    16.7364  16.7367  16.9882  16.9882  16.9886  16.9886  17.1788  17.1789
    17.2256  17.2258  17.3046  17.3049  17.3174  17.3176  17.4373  17.4373
    17.4375  17.4375  17.5702  17.5702  17.5704  17.5705  17.6279  17.6279
    17.6280  17.6280  17.6936  17.6938  17.7092  17.7094  18.1114  18.1114
    20.4455  20.4457  20.4734  20.4735  20.4737  20.4737  20.5993  20.5993
    20.5993  20.5994  20.6610  20.6613  20.6829  20.6832  20.7420  20.7422
    20.7930  20.7933  20.7957  20.7957  20.7960  20.7960

          k = 0.3878-0.4986-0.4986 ( 12632 PWs)   bands (ev):

   -52.3172 -52.3172 -52.3169 -52.3168 -52.2902 -52.2902 -52.2899 -52.2898
   -52.1897 -52.1897 -52.1894 -52.1893 -52.1738 -52.1738 -52.1735 -52.1734
   -23.9084 -23.9084 -23.9083 -23.9083 -23.9046 -23.9045 -23.9043 -23.9043
   -23.8508 -23.8508 -23.8506 -23.8506 -23.8154 -23.8153 -23.8151 -23.8151
   -23.8107 -23.8107 -23.8107 -23.8107 -23.7620 -23.7619 -23.7619 -23.7618
   -23.4142 -23.4142 -23.4141 -23.4141 -23.3683 -23.3683 -23.3683 -23.3683
   -23.3526 -23.3526 -23.3525 -23.3525 -23.3288 -23.3287 -23.3285 -23.3284
   -23.3098 -23.3098 -23.3096 -23.3096 -23.2771 -23.2771 -23.2770 -23.2770
    14.5669  14.5669  14.5673  14.5673  15.3202  15.3203  15.3206  15.3207
    16.5559  16.5559  16.5562  16.5562  16.7939  16.7939  16.7942  16.7942
    16.9051  16.9051  16.9054  16.9054  16.9105  16.9105  16.9108  16.9108
    17.3426  17.3426  17.3427  17.3427  17.3632  17.3632  17.3632  17.3633
    17.3718  17.3718  17.3719  17.3719  17.5448  17.5448  17.5449  17.5449
    17.6140  17.6140  17.6141  17.6142  17.7760  17.7760  17.7760  17.7760
    20.5162  20.5162  20.5164  20.5164  20.5869  20.5870  20.5872  20.5873
    20.6868  20.6869  20.6871  20.6872  20.7628  20.7628  20.7629  20.7629
    20.7763  20.7763  20.7765  20.7766  20.8079  20.8079

          k =-0.4986-0.4986-0.4986 ( 12712 PWs)   bands (ev):

   -52.3047 -52.3047 -52.3047 -52.3046 -52.3044 -52.3043 -52.3043 -52.3042
   -52.1809 -52.1808 -52.1808 -52.1808 -52.1805 -52.1805 -52.1805 -52.1804
   -23.8640 -23.8640 -23.8639 -23.8639 -23.8639 -23.8638 -23.8638 -23.8637
   -23.8637 -23.8637 -23.8636 -23.8636 -23.8636 -23.8636 -23.8635 -23.8635
   -23.8063 -23.8063 -23.8063 -23.8063 -23.8061 -23.8061 -23.8061 -23.8061
   -23.3805 -23.3805 -23.3805 -23.3804 -23.3803 -23.3803 -23.3803 -23.3803
   -23.3190 -23.3190 -23.3189 -23.3189 -23.3189 -23.3189 -23.3189 -23.3188
   -23.3187 -23.3187 -23.3187 -23.3186 -23.3186 -23.3186 -23.3186 -23.3185
    14.9411  14.9411  14.9411  14.9412  14.9415  14.9416  14.9416  14.9416
    16.8519  16.8519  16.8519  16.8519  16.8519  16.8519  16.8519  16.8519
    16.8522  16.8522  16.8522  16.8522  16.8522  16.8522  16.8523  16.8523
    17.4212  17.4212  17.4212  17.4212  17.4212  17.4213  17.4213  17.4213
    17.4429  17.4429  17.4429  17.4430  17.4430  17.4430  17.4430  17.4430
    17.4432  17.4432  17.4432  17.4432  17.4432  17.4432  17.4432  17.4432
    20.6425  20.6425  20.6426  20.6426  20.6426  20.6426  20.6426  20.6426
    20.6428  20.6429  20.6429  20.6429  20.6429  20.6429  20.6430  20.6430
    21.0132  21.0133  21.0133  21.0133  21.0134  21.0134

 ------ SPIN DOWN ----------


          k = 0.0554 0.0554 0.0554 ( 12704 PWs)   bands (ev):

   -52.4381 -52.2662 -52.2661 -52.2661 -52.2362 -52.2361 -52.2359 -52.2358
   -52.2357 -52.2356 -52.2329 -52.2328 -52.2328 -52.2192 -52.2177 -52.0931
   -24.1193 -24.1193 -24.1193 -24.1150 -24.1150 -24.1149 -23.8371 -23.8371
   -23.8270 -23.7384 -23.7336 -23.7335 -23.7335 -23.6993 -23.6993 -23.6803
   -23.6803 -23.6803 -23.6201 -23.6201 -23.5811 -23.5410 -23.5410 -23.5410
   -23.5242 -23.5242 -23.5241 -23.5004 -23.5004 -23.5004 -23.4953 -23.4953
   -23.4953 -23.4858 -23.4858 -23.4858 -23.4702 -23.4702 -23.4702 -23.2206
   -23.2206 -23.2206 -23.2191 -23.2158 -23.2158 -23.2158 -23.2086 -23.2086
    11.6269  15.0455  15.0455  15.0455  15.0672  15.0672  15.0672  15.1862
    15.1862  15.2709  15.2709  15.2709  15.7060  15.7060  15.7060  16.9679
    17.0293  17.0293  17.0294  17.0451  17.0451  17.0451  17.0717  17.0717
    17.2392  17.2392  17.2977  17.4224  17.4224  17.4224  17.8769  17.8769
    17.8769  18.5593  18.5593  18.6143  18.9027  18.9028  18.9028  19.0197
    19.0197  19.0198  19.1199  19.1199  19.1199  19.2290  19.2290  19.2290
    20.1120  20.1120  20.1120  20.1677  20.1677  20.1677  20.3988  20.3988
    20.3988  20.4027  20.4027  20.4027  20.6047  20.6047  20.6047  20.6228
    20.6228  20.6600  20.6600  20.6600  20.9712  20.9712

          k = 0.0554 0.0554 0.1662 ( 12680 PWs)   bands (ev):

   -52.4320 -52.2968 -52.2647 -52.2647 -52.2394 -52.2394 -52.2353 -52.2353
   -52.2349 -52.2319 -52.2314 -52.2313 -52.2202 -52.2186 -52.2069 -52.0975
   -24.1063 -24.1063 -24.1051 -24.1009 -24.0929 -24.0929 -23.8435 -23.8272
   -23.8120 -23.7965 -23.7805 -23.7805 -23.7779 -23.7764 -23.7290 -23.7290
   -23.6735 -23.6299 -23.6172 -23.5958 -23.5781 -23.5429 -23.5408 -23.5408
   -23.5212 -23.5105 -23.5061 -23.5061 -23.5045 -23.4916 -23.4916 -23.4866
   -23.4866 -23.4822 -23.4822 -23.4321 -23.4300 -23.4300 -23.4177 -23.2435
   -23.2345 -23.2345 -23.2327 -23.2289 -23.2203 -23.2203 -23.2174 -23.2125
    11.7624  14.7110  15.0738  15.0738  15.1402  15.1402  15.1554  15.1758
    15.2560  15.2640  15.3132  15.3132  15.7385  15.7385  15.9659  16.8409
    16.9618  16.9788  16.9871  17.0097  17.0239  17.0864  17.0864  17.1143
    17.1335  17.1335  17.3826  17.3827  17.4593  17.4685  17.7781  17.7782
    18.3016  18.5276  18.5517  18.6562  18.6563  18.6856  18.7352  18.8600
    18.8600  18.9024  19.2176  19.2176  19.3530  19.3530  19.3879  19.5041
    19.6131  19.6131  19.8299  19.8851  19.8851  19.8985  20.0188  20.3808
    20.3808  20.5226  20.5226  20.5292  20.6180  20.6181  20.6288  20.6570
    20.6602  20.6646  20.6646  20.6936  20.9749  21.0022

          k = 0.0554 0.0554 0.2770 ( 12650 PWs)   bands (ev):

   -52.4201 -52.3268 -52.2619 -52.2619 -52.2437 -52.2437 -52.2344 -52.2343
   -52.2330 -52.2308 -52.2308 -52.2302 -52.2221 -52.2203 -52.1802 -52.1061
   -24.0774 -24.0769 -24.0769 -24.0740 -24.0551 -24.0551 -23.8621 -23.8531
   -23.8468 -23.8453 -23.8453 -23.8079 -23.8075 -23.7973 -23.7973 -23.7895
   -23.6487 -23.6475 -23.6301 -23.6197 -23.5475 -23.5373 -23.5373 -23.5302
   -23.5226 -23.5126 -23.5126 -23.4888 -23.4888 -23.4864 -23.4864 -23.4693
   -23.4564 -23.4290 -23.4290 -23.3813 -23.3798 -23.3798 -23.3680 -23.2843
   -23.2577 -23.2577 -23.2573 -23.2548 -23.2351 -23.2344 -23.2344 -23.2274
    12.0283  14.0924  15.1439  15.1439  15.2595  15.2595  15.3650  15.3650
    15.3666  15.3843  15.3945  15.4090  15.7565  15.7565  16.0415  16.5640
    16.6661  16.7286  16.9031  16.9679  16.9753  16.9872  17.2139  17.2140
    17.2918  17.2918  17.3970  17.3970  17.7207  17.7207  17.7396  17.7611
    18.3231  18.3231  18.5050  18.5063  18.5063  18.5372  18.5403  18.6160
    18.7907  19.0126  19.0126  19.0165  19.2316  19.2316  19.4627  19.5038
    19.5165  19.5165  19.5599  19.5599  19.5645  19.7079  19.8363  20.3463
    20.3941  20.3941  20.5158  20.5158  20.6745  20.6931  20.7322  20.7383
    20.7383  20.9507  20.9525  20.9758  20.9819  21.0113

          k = 0.0554 0.0554 0.3878 ( 12631 PWs)   bands (ev):

   -52.4028 -52.3552 -52.2581 -52.2580 -52.2486 -52.2485 -52.2331 -52.2331
   -52.2310 -52.2310 -52.2305 -52.2279 -52.2247 -52.2226 -52.1563 -52.1189
   -24.0368 -24.0348 -24.0330 -24.0330 -24.0032 -24.0032 -23.9264 -23.9228
   -23.9132 -23.9132 -23.8701 -23.8701 -23.8465 -23.8289 -23.7785 -23.7595
   -23.6978 -23.6786 -23.6184 -23.5992 -23.5567 -23.5465 -23.5324 -23.5323
   -23.5195 -23.5195 -23.4872 -23.4872 -23.4863 -23.4863 -23.4747 -23.4019
   -23.3946 -23.3767 -23.3767 -23.3388 -23.3351 -23.3319 -23.3319 -23.3229
   -23.2931 -23.2930 -23.2896 -23.2895 -23.2612 -23.2580 -23.2580 -23.2516
    12.4144  13.4749  15.2385  15.2385  15.3780  15.3780  15.4119  15.4119
    15.5990  15.5994  15.6616  15.6744  15.7023  15.7023  15.9676  16.1900
    16.3703  16.3848  16.8867  16.9091  16.9353  16.9455  17.4065  17.4065
    17.5130  17.5131  17.5638  17.5638  17.7923  17.7923  18.0186  18.0186
    18.0946  18.1157  18.1532  18.1532  18.4398  18.4398  18.4948  18.5318
    18.5412  18.5481  18.6307  18.6307  18.9323  18.9848  18.9889  19.3227
    19.3743  19.7936  19.7936  19.8293  19.8293  20.0758  20.0824  20.2156
    20.2246  20.2246  20.3474  20.3474  20.7369  20.7492  20.8341  20.8835
    20.8873  20.8912  20.9912  21.0119  21.0184  21.0278

          k = 0.0554 0.0554-0.4986 ( 12666 PWs)   bands (ev):

   -52.3811 -52.3807 -52.2537 -52.2536 -52.2533 -52.2532 -52.2322 -52.2321
   -52.2317 -52.2317 -52.2279 -52.2274 -52.2254 -52.2250 -52.1359 -52.1355
   -23.9852 -23.9849 -23.9848 -23.9845 -23.9773 -23.9772 -23.9772 -23.9772
   -23.9405 -23.9404 -23.9404 -23.9403 -23.8414 -23.8412 -23.7418 -23.7414
   -23.7224 -23.7221 -23.5875 -23.5872 -23.5738 -23.5734 -23.5265 -23.5264
   -23.5261 -23.5260 -23.4867 -23.4867 -23.4863 -23.4863 -23.4038 -23.4035
   -23.3429 -23.3425 -23.3396 -23.3392 -23.3297 -23.3297 -23.3296 -23.3296
   -23.2950 -23.2946 -23.2908 -23.2908 -23.2907 -23.2907 -23.2841 -23.2838
    12.9042  12.9047  15.3287  15.3287  15.3289  15.3289  15.5728  15.5728
    15.5730  15.5730  15.8010  15.8013  15.8658  15.8662  16.0132  16.0137
    16.0171  16.0175  16.9014  16.9017  16.9129  16.9132  17.6511  17.6512
    17.6513  17.6513  17.7572  17.7573  17.7574  17.7575  17.9844  17.9845
    17.9847  17.9847  18.1595  18.1595  18.1597  18.1597  18.5037  18.5039
    18.5139  18.5140  18.5273  18.5274  18.5335  18.5339  19.1104  19.1107
    19.7508  19.7511  20.0211  20.0211  20.0211  20.0211  20.1143  20.1143
    20.1143  20.1144  20.4780  20.4783  20.6263  20.6266  20.8090  20.8094
    20.8164  20.8168  20.9606  20.9609  21.0015  21.0018

          k = 0.0554 0.1662 0.1662 ( 12667 PWs)   bands (ev):

   -52.4260 -52.2945 -52.2944 -52.2632 -52.2481 -52.2383 -52.2383 -52.2347
   -52.2305 -52.2305 -52.2247 -52.2216 -52.2191 -52.2073 -52.2073 -52.1016
   -24.1026 -24.0928 -24.0928 -24.0806 -24.0806 -24.0627 -23.8547 -23.8329
   -23.8214 -23.8206 -23.8206 -23.8102 -23.8013 -23.7879 -23.7616 -23.6899
   -23.6676 -23.6676 -23.6120 -23.5946 -23.5945 -23.5506 -23.5349 -23.5349
   -23.5214 -23.5180 -23.5180 -23.5113 -23.5009 -23.5008 -23.4940 -23.4782
   -23.4765 -23.4473 -23.4341 -23.4340 -23.3996 -23.3799 -23.3799 -23.2763
   -23.2575 -23.2443 -23.2443 -23.2325 -23.2325 -23.2248 -23.2152 -23.2087
    11.8959  14.7718  14.7718  15.0462  15.1847  15.1847  15.2476  15.2476
    15.2494  15.3257  15.3401  15.3651  15.7842  16.0012  16.0012  16.7244
    16.8542  16.9779  16.9779  17.0571  17.0634  17.0634  17.1055  17.1055
    17.1115  17.1969  17.2524  17.3225  17.4483  17.4829  17.6672  18.1147
    18.1147  18.4545  18.5028  18.5028  18.5314  18.5557  18.7166  18.8043
    19.1117  19.1117  19.1691  19.1799  19.1799  19.3109  19.4311  19.4440
    19.4440  19.5561  19.5561  19.6273  19.6273  19.7357  20.0993  20.0993
    20.3864  20.5138  20.5500  20.5501  20.5893  20.6223  20.6223  20.6329
    20.6339  20.8326  20.9371  20.9443  20.9443  20.9824

          k = 0.0554 0.1662 0.2770 ( 12655 PWs)   bands (ev):

   -52.4144 -52.3237 -52.2899 -52.2605 -52.2574 -52.2426 -52.2363 -52.2337
   -52.2300 -52.2290 -52.2240 -52.2204 -52.2191 -52.2081 -52.1814 -52.1099
   -24.0821 -24.0661 -24.0649 -24.0566 -24.0452 -24.0171 -23.8807 -23.8796
   -23.8661 -23.8593 -23.8586 -23.8489 -23.8149 -23.8025 -23.7579 -23.7383
   -23.6706 -23.6465 -23.6048 -23.5986 -23.5882 -23.5866 -23.5538 -23.5405
   -23.5370 -23.5265 -23.5184 -23.4988 -23.4978 -23.4800 -23.4664 -23.4522
   -23.4372 -23.4252 -23.4038 -23.3845 -23.3605 -23.3340 -23.3334 -23.3248
   -23.2889 -23.2637 -23.2630 -23.2567 -23.2438 -23.2419 -23.2198 -23.2148
    12.1575  14.1735  14.8709  15.0452  15.2551  15.3657  15.3977  15.3982
    15.4350  15.4528  15.4569  15.4882  15.8263  16.0088  16.0866  16.5909
    16.5941  16.6966  16.9784  17.0233  17.0513  17.0575  17.0858  17.1810
    17.2069  17.2479  17.2967  17.4398  17.5747  17.6277  17.6915  17.9799
    18.2010  18.3172  18.3210  18.3859  18.4064  18.4550  18.5073  18.6590
    18.7429  18.9025  18.9556  19.0610  19.1372  19.2091  19.2143  19.2978
    19.4114  19.5259  19.5530  19.6130  19.6433  19.8264  19.8274  20.2286
    20.3745  20.4252  20.4585  20.5203  20.5592  20.6043  20.6539  20.6871
    20.8689  20.9286  20.9319  20.9615  21.0094  21.0146

          k = 0.0554 0.1662 0.3878 ( 12634 PWs)   bands (ev):

   -52.3976 -52.3513 -52.2835 -52.2667 -52.2567 -52.2473 -52.2335 -52.2325
   -52.2303 -52.2271 -52.2267 -52.2222 -52.2148 -52.2095 -52.1583 -52.1223
   -24.0467 -24.0273 -24.0240 -24.0220 -23.9971 -23.9582 -23.9423 -23.9303
   -23.9206 -23.9162 -23.8770 -23.8729 -23.8661 -23.8144 -23.7743 -23.7223
   -23.6948 -23.6398 -23.6358 -23.5891 -23.5786 -23.5706 -23.5522 -23.5508
   -23.5414 -23.5357 -23.5255 -23.4988 -23.4981 -23.4564 -23.4417 -23.4250
   -23.3920 -23.3845 -23.3752 -23.3608 -23.3392 -23.3280 -23.3224 -23.2925
   -23.2922 -23.2921 -23.2920 -23.2892 -23.2672 -23.2627 -23.2341 -23.2315
    12.5368  13.5736  14.9692  15.0495  15.3483  15.4682  15.5167  15.5762
    15.6435  15.6891  15.6946  15.7356  15.7938  15.9239  16.0203  16.2390
    16.3732  16.4056  16.9283  16.9768  16.9831  17.0046  17.2793  17.3498
    17.3679  17.4029  17.4303  17.5750  17.6859  17.8404  17.9410  18.0026
    18.0603  18.0989  18.1476  18.1786  18.3288  18.3378  18.3654  18.3879
    18.4229  18.4803  18.5227  18.6677  18.7577  18.7606  19.1343  19.5542
    19.5750  19.7591  19.7623  19.8373  19.8432  19.8659  20.0642  20.1458
    20.1611  20.2596  20.3506  20.4039  20.5578  20.6796  20.7116  20.7912
    20.8271  20.8527  20.8615  20.9420  21.0053  21.0083

          k = 0.0554 0.1662-0.4986 ( 12642 PWs)   bands (ev):

   -52.3764 -52.3760 -52.2758 -52.2754 -52.2524 -52.2520 -52.2315 -52.2311
   -52.2305 -52.2301 -52.2247 -52.2243 -52.2119 -52.2115 -52.1387 -52.1383
   -23.9990 -23.9990 -23.9792 -23.9788 -23.9784 -23.9780 -23.9731 -23.9730
   -23.9397 -23.9396 -23.8894 -23.8893 -23.8737 -23.8735 -23.7381 -23.7377
   -23.6815 -23.6813 -23.6053 -23.6050 -23.5668 -23.5665 -23.5665 -23.5661
   -23.5444 -23.5441 -23.4988 -23.4984 -23.4528 -23.4526 -23.4483 -23.4479
   -23.3737 -23.3737 -23.3380 -23.3376 -23.3304 -23.3301 -23.3220 -23.3219
   -23.3001 -23.2997 -23.2891 -23.2891 -23.2582 -23.2582 -23.2579 -23.2578
    13.0166  13.0171  15.0310  15.0313  15.4327  15.4329  15.6744  15.6746
    15.7630  15.7632  15.8529  15.8533  15.9356  15.9360  16.0456  16.0460
    16.0613  16.0617  16.9385  16.9388  16.9685  16.9687  17.5261  17.5263
    17.5451  17.5454  17.5865  17.5866  17.6475  17.6479  18.0212  18.0213
    18.0663  18.0665  18.1395  18.1396  18.2617  18.2619  18.3171  18.3172
    18.3264  18.3265  18.3666  18.3667  18.4542  18.4545  19.3403  19.3405
    19.8614  19.8617  19.9054  19.9055  20.0600  20.0601  20.1194  20.1194
    20.1474  20.1476  20.1670  20.1670  20.5426  20.5429  20.7659  20.7662
    20.7842  20.7846  20.9220  20.9224  21.0032  21.0036

          k = 0.0554 0.2770 0.2770 ( 12636 PWs)   bands (ev):

   -52.4033 -52.3175 -52.3174 -52.2713 -52.2578 -52.2404 -52.2404 -52.2327
   -52.2286 -52.2286 -52.2268 -52.2212 -52.2089 -52.1840 -52.1839 -52.1176
   -24.0712 -24.0418 -24.0418 -24.0264 -24.0264 -23.9644 -23.9046 -23.9032
   -23.9032 -23.8870 -23.8865 -23.8842 -23.8477 -23.7850 -23.7198 -23.6718
   -23.6702 -23.6702 -23.6372 -23.6372 -23.5968 -23.5686 -23.5611 -23.5523
   -23.5523 -23.5316 -23.5315 -23.5172 -23.5171 -23.5092 -23.4459 -23.4134
   -23.3907 -23.3907 -23.3880 -23.3811 -23.3711 -23.3344 -23.3275 -23.2931
   -23.2931 -23.2746 -23.2746 -23.2626 -23.2625 -23.2577 -23.2144 -23.2096
    12.4102  14.3200  14.3200  14.9483  15.4679  15.4679  15.5422  15.5582
    15.5672  15.5672  15.5703  15.6450  15.9199  16.1026  16.1026  16.5216
    16.6040  16.7126  16.7126  17.0433  17.1241  17.1241  17.1330  17.1740
    17.1741  17.1955  17.2689  17.4280  17.5708  17.6547  17.6694  18.0803
    18.0803  18.2048  18.2048  18.2126  18.2347  18.2631  18.3162  18.4618
    18.6920  18.6920  18.7616  18.7616  18.9154  19.0296  19.0296  19.1603
    19.6243  19.6243  19.7005  19.7490  19.7916  19.7917  20.0588  20.1762
    20.1762  20.3686  20.4886  20.4886  20.5318  20.5512  20.5512  20.5695
    20.6549  20.8728  20.8764  20.8783  21.0055  21.0148

          k = 0.0554 0.2770 0.3878 ( 12649 PWs)   bands (ev):

   -52.3874 -52.3435 -52.3086 -52.2849 -52.2541 -52.2450 -52.2374 -52.2314
[...]
    20.3187  20.3188  20.3275  20.3277  20.4175  20.4177  20.5852  20.5855
    20.6081  20.6085  20.7557  20.7561  20.7944  20.7946

          k = 0.1662-0.4986-0.4986 ( 12600 PWs)   bands (ev):

   -52.3343 -52.3341 -52.3339 -52.3337 -52.2585 -52.2583 -52.2581 -52.2579
   -52.2131 -52.2129 -52.2127 -52.2125 -52.1653 -52.1651 -52.1649 -52.1648
   -23.9674 -23.9674 -23.9673 -23.9673 -23.9526 -23.9525 -23.9524 -23.9523
   -23.9245 -23.9245 -23.9243 -23.9242 -23.7122 -23.7121 -23.7119 -23.7117
   -23.6930 -23.6930 -23.6930 -23.6930 -23.6870 -23.6870 -23.6870 -23.6869
   -23.4928 -23.4928 -23.4928 -23.4927 -23.4873 -23.4873 -23.4872 -23.4872
   -23.3478 -23.3476 -23.3474 -23.3472 -23.3152 -23.3152 -23.3151 -23.3150
   -23.2997 -23.2996 -23.2995 -23.2994 -23.2233 -23.2233 -23.2232 -23.2232
    14.0210  14.0211  14.0215  14.0215  15.8767  15.8767  15.8770  15.8770
    16.0820  16.0821  16.0823  16.0824  16.4217  16.4217  16.4218  16.4219
    16.7042  16.7043  16.7046  16.7047  17.0141  17.0142  17.0144  17.0144
    17.1755  17.1756  17.1757  17.1757  17.6014  17.6015  17.6016  17.6016
    17.7073  17.7073  17.7073  17.7073  17.8155  17.8155  17.8156  17.8156
    18.0738  18.0739  18.0739  18.0740  18.6008  18.6008  18.6008  18.6008
    20.2049  20.2050  20.2050  20.2051  20.3319  20.3320  20.3322  20.3323
    20.4676  20.4677  20.4679  20.4680  20.4692  20.4693  20.4694  20.4695
    20.4959  20.4959  20.4959  20.4959  20.7356  20.7358

          k = 0.2770 0.2770 0.2770 ( 12641 PWs)   bands (ev):

   -52.3879 -52.3087 -52.3086 -52.3086 -52.2657 -52.2657 -52.2657 -52.2401
   -52.2136 -52.2089 -52.2089 -52.2089 -52.1872 -52.1871 -52.1871 -52.1278
   -24.0312 -24.0312 -24.0312 -23.9553 -23.9553 -23.9553 -23.9273 -23.9232
   -23.9232 -23.9232 -23.8548 -23.8548 -23.8178 -23.8178 -23.7361 -23.7361
   -23.7360 -23.6845 -23.6844 -23.6844 -23.6363 -23.6235 -23.6234 -23.6234
   -23.4657 -23.4571 -23.4570 -23.4570 -23.4541 -23.4541 -23.4538 -23.4538
   -23.4538 -23.3967 -23.3967 -23.3967 -23.3412 -23.3138 -23.3138 -23.3137
   -23.2755 -23.2754 -23.2754 -23.2514 -23.2514 -23.2514 -23.2384 -23.2384
    12.7803  14.5854  14.5854  14.5854  15.3053  15.3053  15.3053  15.8090
    15.8090  15.8536  15.8536  15.8536  16.3512  16.3512  16.3512  16.5083
    16.6668  16.6668  16.6668  16.9131  16.9870  16.9870  17.1896  17.1896
    17.1897  17.4157  17.4157  17.4157  17.4235  17.4235  17.7773  17.7773
    17.7773  17.9875  17.9875  17.9875  18.0939  18.0939  18.0939  18.1782
    18.1782  18.3312  18.3312  18.3312  18.4678  18.4678  18.4678  19.5697
    19.7321  19.8634  19.8634  19.8634  20.1221  20.1221  20.1221  20.3066
    20.3066  20.3066  20.5093  20.5093  20.5691  20.5691  20.5691  20.7076
    20.7076  20.7076  20.8889  20.8889  20.8891  20.8942

          k = 0.2770 0.2770 0.3878 ( 12636 PWs)   bands (ev):

   -52.3731 -52.3326 -52.3004 -52.3003 -52.2783 -52.2783 -52.2605 -52.2473
   -52.2113 -52.2092 -52.2013 -52.2013 -52.1905 -52.1905 -52.1678 -52.1379
   -24.0080 -24.0080 -23.9922 -23.9481 -23.9475 -23.9475 -23.9341 -23.9215
   -23.9042 -23.9042 -23.8855 -23.8840 -23.8240 -23.7895 -23.7894 -23.7729
   -23.7373 -23.6893 -23.6893 -23.6718 -23.6686 -23.6544 -23.6544 -23.5901
   -23.5291 -23.4984 -23.4644 -23.4639 -23.4344 -23.4343 -23.4120 -23.4119
   -23.4046 -23.4046 -23.3904 -23.3468 -23.3413 -23.3412 -23.3239 -23.3104
   -23.2878 -23.2667 -23.2650 -23.2649 -23.2551 -23.2521 -23.2521 -23.2363
    13.1314  14.0657  14.8024  14.8024  15.1894  15.1894  15.6393  15.9673
    16.0088  16.0301  16.0301  16.1080  16.3457  16.3461  16.3461  16.4063
    16.4935  16.4994  16.8505  16.8505  17.0126  17.1262  17.2251  17.2422
    17.2603  17.3000  17.3000  17.4985  17.4985  17.6048  17.6141  17.6141
    17.7917  17.7917  17.8675  17.8675  17.9033  17.9427  17.9435  17.9576
    18.0459  18.0459  18.0474  18.1021  18.1719  18.1719  18.6390  19.3044
    19.8427  20.0275  20.0758  20.0758  20.1868  20.1869  20.2411  20.2411
    20.3723  20.4231  20.4375  20.4698  20.4698  20.4865  20.6333  20.6333
    20.8079  20.8087  20.8935  20.8935  20.8955  20.8993

          k = 0.2770 0.2770-0.4986 ( 12608 PWs)   bands (ev):

   -52.3546 -52.3542 -52.2903 -52.2902 -52.2898 -52.2898 -52.2544 -52.2540
   -52.2101 -52.2097 -52.1954 -52.1953 -52.1950 -52.1949 -52.1515 -52.1511
   -23.9781 -23.9781 -23.9780 -23.9780 -23.9430 -23.9426 -23.9409 -23.9406
   -23.9084 -23.9083 -23.8474 -23.8474 -23.8473 -23.8473 -23.7844 -23.7840
   -23.7231 -23.7230 -23.6781 -23.6780 -23.6778 -23.6778 -23.5981 -23.5981
   -23.5439 -23.5438 -23.4674 -23.4672 -23.4171 -23.4171 -23.4168 -23.4168
   -23.3742 -23.3741 -23.3740 -23.3740 -23.3346 -23.3342 -23.3137 -23.3135
   -23.3032 -23.3028 -23.2567 -23.2567 -23.2567 -23.2567 -23.2417 -23.2416
    13.5690  13.5695  15.0178  15.0178  15.0182  15.0182  16.0470  16.0474
    16.1691  16.1695  16.2057  16.2057  16.2059  16.2059  16.2090  16.2093
    16.3607  16.3610  17.0627  17.0630  17.1644  17.1646  17.1949  17.1950
    17.1953  17.1954  17.4489  17.4489  17.4491  17.4491  17.5718  17.5720
    17.7889  17.7892  17.8762  17.8762  17.8763  17.8763  17.9152  17.9152
    17.9153  17.9153  17.9643  17.9644  18.0099  18.0102  18.9266  18.9267
    20.1357  20.1358  20.2056  20.2058  20.2084  20.2084  20.2084  20.2084
    20.2906  20.2906  20.2908  20.2908  20.6606  20.6609  20.7167  20.7171
    20.7754  20.7757  20.7786  20.7790  20.8994  20.8998

          k = 0.2770 0.3878 0.3878 ( 12623 PWs)   bands (ev):

   -52.3595 -52.3223 -52.3223 -52.2944 -52.2926 -52.2721 -52.2721 -52.2561
   -52.2073 -52.2025 -52.2025 -52.1933 -52.1900 -52.1733 -52.1732 -52.1468
   -23.9901 -23.9730 -23.9729 -23.9460 -23.9394 -23.9393 -23.9261 -23.9096
   -23.9095 -23.8965 -23.8902 -23.8485 -23.8258 -23.8196 -23.7866 -23.7412
   -23.7412 -23.7256 -23.7256 -23.7157 -23.7044 -23.7043 -23.6939 -23.5910
   -23.5430 -23.4533 -23.4533 -23.4407 -23.4375 -23.4374 -23.4100 -23.4006
   -23.3782 -23.3739 -23.3674 -23.3558 -23.3558 -23.3271 -23.3271 -23.3178
   -23.2842 -23.2842 -23.2814 -23.2712 -23.2514 -23.2513 -23.2484 -23.2415
    13.4666  14.3368  14.3368  14.9384  15.0567  15.5196  15.5197  16.1029
    16.1721  16.2150  16.2889  16.2889  16.2916  16.3462  16.3462  16.5631
    16.5863  16.6653  16.6653  16.7888  17.0907  17.1853  17.1863  17.2239
    17.2239  17.2840  17.2840  17.3769  17.3906  17.4802  17.5228  17.6980
    17.7028  17.7028  17.7046  17.7047  17.7114  17.7115  17.7354  17.8502
    17.8502  17.8921  17.9091  17.9274  17.9944  18.2766  18.2766  18.8819
    20.1493  20.2039  20.2039  20.2286  20.2632  20.3494  20.4190  20.4246
    20.4246  20.4560  20.4560  20.4740  20.5474  20.5474  20.6157  20.7457
    20.7742  20.7742  20.7785  20.8096  20.8785  20.8898

          k = 0.2770 0.3878-0.4986 ( 12634 PWs)   bands (ev):

   -52.3425 -52.3421 -52.3096 -52.3092 -52.2832 -52.2828 -52.2648 -52.2644
   -52.2047 -52.2043 -52.1974 -52.1970 -52.1808 -52.1804 -52.1588 -52.1585
   -23.9651 -23.9650 -23.9550 -23.9548 -23.9306 -23.9302 -23.9207 -23.9206
   -23.9174 -23.9171 -23.8673 -23.8672 -23.7874 -23.7873 -23.7865 -23.7861
   -23.7527 -23.7526 -23.7248 -23.7245 -23.7212 -23.7211 -23.6580 -23.6580
   -23.4973 -23.4972 -23.4385 -23.4384 -23.4200 -23.4199 -23.4115 -23.4114
   -23.3743 -23.3740 -23.3497 -23.3496 -23.3248 -23.3245 -23.3190 -23.3188
   -23.3140 -23.3137 -23.2783 -23.2782 -23.2487 -23.2486 -23.2440 -23.2440
    13.8787  13.8791  14.6423  14.6427  15.3163  15.3166  15.9109  15.9113
    16.2389  16.2393  16.2802  16.2804  16.4518  16.4521  16.4736  16.4738
    16.5313  16.5316  17.0132  17.0136  17.0395  17.0399  17.1362  17.1362
    17.1495  17.1497  17.3491  17.3493  17.4034  17.4035  17.5263  17.5264
    17.6014  17.6016  17.6229  17.6231  17.7387  17.7388  17.7906  17.7906
    17.8260  17.8261  17.9068  17.9070  17.9681  17.9682  18.5230  18.5230
    20.3325  20.3327  20.3394  20.3395  20.3726  20.3728  20.3974  20.3977
    20.4261  20.4262  20.4771  20.4771  20.6455  20.6458  20.6466  20.6469
    20.7184  20.7186  20.7244  20.7247  20.8111  20.8115

          k = 0.2770-0.4986-0.4986 ( 12632 PWs)   bands (ev):

   -52.3273 -52.3271 -52.3269 -52.3267 -52.2747 -52.2745 -52.2743 -52.2741
   -52.2006 -52.2004 -52.2002 -52.2000 -52.1687 -52.1685 -52.1683 -52.1681
   -23.9435 -23.9435 -23.9434 -23.9434 -23.9349 -23.9348 -23.9346 -23.9345
   -23.8917 -23.8916 -23.8915 -23.8914 -23.7631 -23.7630 -23.7628 -23.7627
   -23.7512 -23.7512 -23.7511 -23.7511 -23.7228 -23.7228 -23.7227 -23.7227
   -23.4528 -23.4528 -23.4527 -23.4527 -23.4253 -23.4253 -23.4253 -23.4253
   -23.3391 -23.3389 -23.3388 -23.3386 -23.3310 -23.3309 -23.3309 -23.3308
   -23.3034 -23.3033 -23.3032 -23.3031 -23.2451 -23.2451 -23.2450 -23.2450
    14.2489  14.2490  14.2494  14.2495  15.6424  15.6424  15.6428  15.6428
    16.2820  16.2820  16.2823  16.2823  16.6595  16.6595  16.6596  16.6597
    16.7423  16.7424  16.7426  16.7427  16.9647  16.9647  16.9649  16.9650
    17.2520  17.2520  17.2521  17.2522  17.4313  17.4314  17.4315  17.4316
    17.6154  17.6154  17.6155  17.6155  17.6371  17.6371  17.6371  17.6371
    17.8419  17.8420  17.8421  17.8421  18.1866  18.1866  18.1866  18.1867
    20.4095  20.4096  20.4098  20.4099  20.5249  20.5250  20.5252  20.5253
    20.5294  20.5295  20.5296  20.5296  20.5802  20.5803  20.5804  20.5804
    20.7170  20.7171  20.7173  20.7175  20.8339  20.8339

          k = 0.3878 0.3878 0.3878 ( 12637 PWs)   bands (ev):

   -52.3469 -52.3127 -52.3127 -52.3127 -52.2870 -52.2870 -52.2870 -52.2673
   -52.2011 -52.1926 -52.1925 -52.1925 -52.1780 -52.1779 -52.1779 -52.1546
   -23.9532 -23.9532 -23.9532 -23.9295 -23.9294 -23.9294 -23.9070 -23.8653
   -23.8653 -23.8653 -23.8637 -23.8637 -23.8497 -23.8497 -23.7717 -23.7717
   -23.7717 -23.7686 -23.7686 -23.7686 -23.7479 -23.7479 -23.7479 -23.6465
   -23.4973 -23.4140 -23.4140 -23.4140 -23.3971 -23.3971 -23.3970 -23.3802
   -23.3802 -23.3568 -23.3568 -23.3568 -23.3503 -23.3503 -23.3502 -23.3218
   -23.2828 -23.2828 -23.2828 -23.2715 -23.2715 -23.2658 -23.2657 -23.2657
    13.7945  14.6279  14.6279  14.6279  15.2710  15.2710  15.2710  16.0510
    16.3276  16.3276  16.4484  16.4484  16.4484  16.6243  16.6243  16.6243
    16.6516  16.6516  16.6516  16.7576  17.1491  17.1491  17.2483  17.2483
    17.3106  17.3106  17.3106  17.3478  17.3478  17.3478  17.4280  17.4280
    17.4280  17.5858  17.5859  17.5859  17.5960  17.5960  17.5960  17.6509
    17.6510  17.6510  17.8164  17.8164  17.9213  17.9213  17.9213  18.4583
    20.3366  20.3367  20.3367  20.4869  20.5217  20.5217  20.5217  20.5407
    20.5407  20.5569  20.5569  20.5570  20.5913  20.5913  20.5914  20.7724
    20.7724  20.8045  20.8046  20.8046  20.8250  20.8250

          k = 0.3878 0.3878-0.4986 ( 12646 PWs)   bands (ev):

   -52.3313 -52.3309 -52.3010 -52.3009 -52.3006 -52.3005 -52.2780 -52.2776
   -52.1964 -52.1960 -52.1846 -52.1845 -52.1842 -52.1841 -52.1652 -52.1648
   -23.9344 -23.9344 -23.9343 -23.9343 -23.9062 -23.9058 -23.9013 -23.9012
   -23.8858 -23.8856 -23.8219 -23.8214 -23.8169 -23.8168 -23.8167 -23.8167
   -23.8014 -23.8012 -23.7744 -23.7743 -23.7742 -23.7741 -23.7075 -23.7074
   -23.4540 -23.4539 -23.3904 -23.3902 -23.3794 -23.3793 -23.3792 -23.3792
   -23.3694 -23.3694 -23.3692 -23.3692 -23.3326 -23.3325 -23.3273 -23.3269
   -23.3104 -23.3100 -23.2775 -23.2775 -23.2774 -23.2774 -23.2661 -23.2661
    14.1931  14.1935  14.9572  14.9573  14.9577  14.9577  15.6649  15.6653
    16.4669  16.4672  16.5453  16.5456  16.5685  16.5686  16.5688  16.5688
    16.7364  16.7367  16.9878  16.9878  16.9882  16.9882  17.1788  17.1789
    17.2258  17.2261  17.3043  17.3046  17.3175  17.3177  17.4375  17.4376
    17.4377  17.4377  17.5703  17.5704  17.5706  17.5706  17.6281  17.6281
    17.6281  17.6282  17.6939  17.6940  17.7093  17.7096  18.1116  18.1116
    20.4449  20.4452  20.4729  20.4729  20.4732  20.4732  20.5993  20.5994
    20.5994  20.5994  20.6604  20.6608  20.6823  20.6826  20.7419  20.7421
    20.7923  20.7927  20.7950  20.7950  20.7953  20.7954

          k = 0.3878-0.4986-0.4986 ( 12632 PWs)   bands (ev):

   -52.3173 -52.3171 -52.3169 -52.3167 -52.2903 -52.2901 -52.2899 -52.2897
   -52.1898 -52.1896 -52.1894 -52.1892 -52.1739 -52.1737 -52.1735 -52.1733
   -23.9085 -23.9085 -23.9085 -23.9084 -23.9047 -23.9046 -23.9045 -23.9043
   -23.8509 -23.8509 -23.8508 -23.8507 -23.8155 -23.8154 -23.8153 -23.8151
   -23.8109 -23.8109 -23.8108 -23.8108 -23.7621 -23.7621 -23.7620 -23.7619
   -23.4144 -23.4143 -23.4142 -23.4141 -23.3685 -23.3685 -23.3684 -23.3684
   -23.3528 -23.3527 -23.3527 -23.3526 -23.3289 -23.3288 -23.3287 -23.3285
   -23.3100 -23.3099 -23.3098 -23.3096 -23.2772 -23.2772 -23.2772 -23.2771
    14.5669  14.5669  14.5673  14.5674  15.3202  15.3203  15.3206  15.3207
    16.5554  16.5555  16.5558  16.5558  16.7934  16.7935  16.7938  16.7938
    16.9050  16.9051  16.9053  16.9053  16.9101  16.9102  16.9104  16.9105
    17.3427  17.3428  17.3428  17.3429  17.3632  17.3632  17.3632  17.3633
    17.3719  17.3720  17.3721  17.3722  17.5451  17.5451  17.5451  17.5451
    17.6141  17.6142  17.6143  17.6143  17.7762  17.7763  17.7763  17.7763
    20.5155  20.5157  20.5158  20.5159  20.5863  20.5864  20.5866  20.5867
    20.6861  20.6862  20.6864  20.6866  20.7627  20.7628  20.7628  20.7629
    20.7755  20.7757  20.7759  20.7760  20.8080  20.8081

          k =-0.4986-0.4986-0.4986 ( 12712 PWs)   bands (ev):

   -52.3049 -52.3046 -52.3046 -52.3045 -52.3044 -52.3043 -52.3043 -52.3041
   -52.1811 -52.1808 -52.1808 -52.1806 -52.1806 -52.1804 -52.1804 -52.1802
   -23.8642 -23.8642 -23.8641 -23.8640 -23.8640 -23.8639 -23.8639 -23.8638
   -23.8638 -23.8638 -23.8638 -23.8637 -23.8636 -23.8636 -23.8636 -23.8636
   -23.8065 -23.8065 -23.8065 -23.8063 -23.8063 -23.8062 -23.8062 -23.8062
   -23.3807 -23.3806 -23.3806 -23.3805 -23.3805 -23.3804 -23.3804 -23.3804
   -23.3192 -23.3192 -23.3192 -23.3190 -23.3190 -23.3190 -23.3190 -23.3189
   -23.3188 -23.3188 -23.3188 -23.3187 -23.3187 -23.3187 -23.3187 -23.3187
    14.9411  14.9412  14.9412  14.9412  14.9415  14.9416  14.9416  14.9417
    16.8514  16.8514  16.8515  16.8515  16.8515  16.8515  16.8516  16.8516
    16.8518  16.8518  16.8518  16.8518  16.8518  16.8518  16.8519  16.8519
    17.4214  17.4214  17.4214  17.4215  17.4215  17.4216  17.4216  17.4216
    17.4430  17.4430  17.4430  17.4432  17.4432  17.4432  17.4432  17.4432
    17.4433  17.4434  17.4434  17.4434  17.4434  17.4435  17.4435  17.4435
    20.6418  20.6418  20.6420  20.6420  20.6420  20.6420  20.6421  20.6421
    20.6422  20.6422  20.6423  20.6423  20.6423  20.6423  20.6424  20.6425
    21.0132  21.0133  21.0133  21.0134  21.0134  21.0135

     the Fermi energy is    19.4251 ev

!    total energy              =   -3971.54180406 Ry
     Harris-Foulkes estimate   =   -3971.54179814 Ry
     estimated scf accuracy    <       0.00000041 Ry

     total all-electron energy =    -33628.064684 Ry

     The total energy is the sum of the following terms:

     one-electron contribution =    -890.24497819 Ry
     hartree contribution      =     581.48768455 Ry
     xc contribution           =    -356.46057955 Ry
     ewald contribution        =   -2118.37495111 Ry
     one-center paw contrib.   =   -1187.97111056 Ry
     smearing contrib. (-TS)   =       0.02213080 Ry

     total magnetization       =     0.00 Bohr mag/cell
     absolute magnetization    =     0.03 Bohr mag/cell

     convergence has been achieved in  18 iterations

     Forces acting on atoms (cartesian axes, Ry/au):

     atom    1 type  1   force =     0.00000000   -0.00000000    0.00000000
     atom    2 type  2   force =    -0.00009549   -0.00009549   -0.00009549
     atom    3 type  1   force =     0.00000000    0.00000000    0.00000000
     atom    4 type  2   force =    -0.00009549   -0.00009549    0.00009549
     atom    5 type  1   force =     0.00000000    0.00000000   -0.00000000
     atom    6 type  2   force =    -0.00009549    0.00009549   -0.00009549
     atom    7 type  1   force =     0.00000000    0.00000000    0.00000000
     atom    8 type  2   force =    -0.00009549    0.00009549    0.00009549
     atom    9 type  1   force =     0.00000000    0.00000000    0.00000000
     atom   10 type  2   force =     0.00009549   -0.00009549   -0.00009549
     atom   11 type  1   force =     0.00000000    0.00000000    0.00000000
     atom   12 type  2   force =     0.00009549   -0.00009549    0.00009549
     atom   13 type  1   force =     0.00000000    0.00000000    0.00000000
     atom   14 type  2   force =     0.00009549    0.00009549   -0.00009549
     atom   15 type  1   force =     0.00000000    0.00000000    0.00000000
     atom   16 type  2   force =     0.00009549    0.00009549    0.00009549

     Total force =     0.000468     Total SCF correction =     0.002838
     SCF correction compared to forces is large: reduce conv_thr to get better values


     Computing stress (Cartesian axis) and pressure

          total   stress  (Ry/bohr**3)                   (kbar)     P=  -19.66
  -0.00013364   0.00000000   0.00000000        -19.66      0.00      0.00
   0.00000000  -0.00013364   0.00000000          0.00    -19.66      0.00
   0.00000000   0.00000000  -0.00013364          0.00      0.00    -19.66


     Writing output data file jsOXuzIxRVGxnGgq.save/
 
     init_run     :      9.49s CPU      9.86s WALL (       1 calls)
     electrons    :    629.36s CPU    645.36s WALL (       1 calls)
     forces       :      3.27s CPU      3.45s WALL (       1 calls)
     stress       :     12.86s CPU     12.91s WALL (       1 calls)

     Called by init_run:
     wfcinit      :      8.75s CPU      9.07s WALL (       1 calls)
     potinit      :      0.38s CPU      0.40s WALL (       1 calls)
     hinit0       :      0.13s CPU      0.14s WALL (       1 calls)

     Called by electrons:
     c_bands      :    569.71s CPU    582.82s WALL (      19 calls)
     sum_band     :     52.28s CPU     54.54s WALL (      19 calls)
     v_of_rho     :      0.58s CPU      0.62s WALL (      19 calls)
     newd         :      1.33s CPU      1.63s WALL (      19 calls)
     PAW_pot      :      5.51s CPU      5.74s WALL (      19 calls)
     mix_rho      :      0.17s CPU      0.17s WALL (      19 calls)

     Called by c_bands:
     init_us_2    :      4.09s CPU      4.13s WALL (    2870 calls)
     cegterg      :    548.75s CPU    561.69s WALL (    1330 calls)

     Called by sum_band:
     sum_band:bec :      0.59s CPU      0.60s WALL (    1330 calls)
     addusdens    :      2.36s CPU      2.73s WALL (      19 calls)

     Called by *egterg:
     h_psi        :    231.12s CPU    239.90s WALL (    5812 calls)
     s_psi        :     22.12s CPU     22.24s WALL (    5812 calls)
     g_psi        :      1.23s CPU      1.25s WALL (    4412 calls)
     cdiaghg      :    225.27s CPU    226.27s WALL (    5672 calls)

     Called by h_psi:
     h_psi:pot    :    229.73s CPU    238.49s WALL (    5812 calls)
     h_psi:calbec :     24.50s CPU     26.40s WALL (    5812 calls)
     vloc_psi     :    183.38s CPU    190.13s WALL (    5812 calls)
     add_vuspsi   :     21.79s CPU     21.92s WALL (    5812 calls)

     General routines
     calbec       :     35.92s CPU     38.67s WALL (    7492 calls)
     fft          :      0.52s CPU      0.54s WALL (     517 calls)
     ffts         :      0.04s CPU      0.04s WALL (      76 calls)
     fftw         :    204.70s CPU    211.99s WALL ( 1068082 calls)
     interpolate  :      0.07s CPU      0.07s WALL (      38 calls)
 
     Parallel routines
     fft_scatt_xy :     16.48s CPU     17.04s WALL ( 1068675 calls)
     fft_scatt_yz :    101.35s CPU    105.43s WALL ( 1068675 calls)
 
     PWSCF        : 10m59.63s CPU    11m25.58s WALL

 
   This run was terminated on:   6:19: 3  15Jun2020            

=------------------------------------------------------------------------------=
   JOB DONE.
=------------------------------------------------------------------------------=
