
     Program PWSCF v.6.3 starts on 15Jun2020 at  6:30:35 

     This program is part of the open-source Quantum ESPRESSO suite
     for quantum simulation of materials; please cite
         "P. Giannozzi et al., J. Phys.:Condens. Matter 21 395502 (2009);
         "P. Giannozzi et al., J. Phys.:Condens. Matter 29 465901 (2017);
          URL http://www.quantum-espresso.org", 
     in publications or presentations arising from this work. More details at
     http://www.quantum-espresso.org/quote

     Parallel version (MPI & OpenMP), running on      20 processor cores
     Number of MPI processes:                20
     Threads/MPI process:                     1

     MPI processes distributed on     1 nodes
     R & G space division:  proc/nbgrp/npool/nimage =      20
     Reading input from wd/eos/eos_011.in
Warning: card &IONS ignored
Warning: card ION_DYNAMICS = 'BFGS', ignored
Warning: card / ignored
Warning: card &CELL ignored
Warning: card CELL_DYNAMICS = 'BFGS', ignored
Warning: card CELL_FACTOR = 2.0, ignored
Warning: card PRESS = 0.0, ignored
Warning: card / ignored

     Current dimensions of program PWSCF are:
     Max number of different atomic species (ntypx) = 10
     Max number of k-points (npk) =  40000
     Max angular momentum in pseudopotentials (lmaxx) =  3
     Message from routine read_upf::
     Pseudo file /rds/homes/b/bxp912/pp/Cr.pbe-spn-kjpaw_psl.1.0.0.UPF has been successfully fixed on the fly.
To avoid this message in the future you can permanently fix 
 your pseudo files following instructions given in: 
https://gitlab.com/QEF/q-e/blob/master/upftools/how_to_fix_upf.md
               file Cr.pbe-spn-kjpaw_psl.1.0.0.UPF: wavefunction(s)  3S 3P 3D renormalized
     Message from routine read_upf::
     Pseudo file /rds/homes/b/bxp912/pp/Cr.pbe-spn-kjpaw_psl.1.0.0.UPF has been successfully fixed on the fly.
To avoid this message in the future you can permanently fix 
 your pseudo files following instructions given in: 
https://gitlab.com/QEF/q-e/blob/master/upftools/how_to_fix_upf.md
               file Cr.pbe-spn-kjpaw_psl.1.0.0.UPF: wavefunction(s)  3S 3P 3D renormalized

     Subspace diagonalization in iterative solution of the eigenvalue problem:
     a serial algorithm will be used

     Found symmetry operation: I + (  0.0000  0.0000  0.5000)
     This is a supercell, fractional translations are disabled
 
     Parallelization info
     --------------------
     sticks:   dense  smooth     PW     G-vecs:    dense   smooth      PW
     Min         200     131     37                 9584     5122     769
     Max         201     132     38                 9587     5124     774
     Sum        4009    2637    749               191711   102471   15419
 


     bravais-lattice index     =            0
     lattice parameter (alat)  =      10.7442  a.u.
     unit-cell volume          =    1272.4542 (a.u.)^3
     number of atoms/cell      =           16
     number of atomic types    =            2
     number of electrons       =       224.00
     number of Kohn-Sham states=          134
     kinetic-energy cutoff     =      71.0000  Ry
     charge density cutoff     =     430.0000  Ry
     convergence threshold     =      1.0E-06
     mixing beta               =       0.1000
     number of iterations used =           10  plain     mixing
     Exchange-correlation      = SLA PW PBX PBC ( 1  4  3  4 0 0)

     celldm(1)=  10.744199  celldm(2)=   0.000000  celldm(3)=   0.000000
     celldm(4)=   0.000000  celldm(5)=   0.000000  celldm(6)=   0.000000

     crystal axes: (cart. coord. in units of alat)
               a(1) = (   1.008571   0.000000   0.000000 )  
               a(2) = (   0.000000   1.008571   0.000000 )  
               a(3) = (   0.000000   0.000000   1.008571 )  

     reciprocal axes: (cart. coord. in units 2 pi/alat)
               b(1) = (  0.991501  0.000000  0.000000 )  
               b(2) = (  0.000000  0.991501  0.000000 )  
               b(3) = (  0.000000  0.000000  0.991501 )  


     PseudoPot. # 1 for Cr read from file:
     /rds/homes/b/bxp912/pp/Cr.pbe-spn-kjpaw_psl.1.0.0.UPF
     MD5 check sum: cb1c17117da000fe5e03c4f1a6841d9c
     Pseudo is Projector augmented-wave + core cor, Zval = 14.0
     Generated using "atomic" code by A. Dal Corso v.5.1
     Shape of augmentation charge: PSQ
     Using radial grid of 1183 points,  6 beta functions with: 
                l(1) =   0
                l(2) =   0
                l(3) =   1
                l(4) =   1
                l(5) =   2
                l(6) =   2
     Q(r) pseudized with 0 coefficients 


     PseudoPot. # 2 for Cr read from file:
     /rds/homes/b/bxp912/pp/Cr.pbe-spn-kjpaw_psl.1.0.0.UPF
     MD5 check sum: cb1c17117da000fe5e03c4f1a6841d9c
     Pseudo is Projector augmented-wave + core cor, Zval = 14.0
     Generated using "atomic" code by A. Dal Corso v.5.1
     Shape of augmentation charge: PSQ
     Using radial grid of 1183 points,  6 beta functions with: 
                l(1) =   0
                l(2) =   0
                l(3) =   1
                l(4) =   1
                l(5) =   2
                l(6) =   2
     Q(r) pseudized with 0 coefficients 


     atomic species   valence    mass     pseudopotential
        Cr1           14.00    55.84500     Cr( 1.00)
        Cr2           14.00    55.84500     Cr( 1.00)

     Starting magnetic structure 
     atomic species   magnetization
        Cr1          0.100
        Cr2          0.100

     48 Sym. Ops., with inversion, found



   Cartesian axes

     site n.     atom                  positions (alat units)
         1           Cr1 tau(   1) = (   0.0000000   0.0000000   0.0000000  )
         2           Cr2 tau(   2) = (   0.2521433   0.2521433   0.2521429  )
         3           Cr1 tau(   3) = (   0.0000000   0.0000000   0.5042847  )
         4           Cr2 tau(   4) = (   0.2521433   0.2521433   0.7564276  )
         5           Cr1 tau(   5) = (   0.0000000   0.5042856   0.0000000  )
         6           Cr2 tau(   6) = (   0.2521433   0.7564279   0.2521429  )
         7           Cr1 tau(   7) = (   0.0000000   0.5042856   0.5042847  )
         8           Cr2 tau(   8) = (   0.2521433   0.7564279   0.7564276  )
         9           Cr1 tau(   9) = (   0.5042856   0.0000000   0.0000000  )
        10           Cr2 tau(  10) = (   0.7564279   0.2521433   0.2521429  )
        11           Cr1 tau(  11) = (   0.5042856   0.0000000   0.5042847  )
        12           Cr2 tau(  12) = (   0.7564279   0.2521433   0.7564276  )
        13           Cr1 tau(  13) = (   0.5042856   0.5042856   0.0000000  )
        14           Cr2 tau(  14) = (   0.7564279   0.7564279   0.2521429  )
        15           Cr1 tau(  15) = (   0.5042856   0.5042856   0.5042847  )
        16           Cr2 tau(  16) = (   0.7564279   0.7564279   0.7564276  )

     number of k points=    35  Marzari-Vanderbilt smearing, width (Ry)=  0.0400
                       cart. coord. in units 2pi/alat
        k(    1) = (   0.0550834   0.0550834   0.0550834), wk =   0.0109739
        k(    2) = (   0.0550834   0.0550834   0.1652502), wk =   0.0329218
        k(    3) = (   0.0550834   0.0550834   0.2754171), wk =   0.0329218
        k(    4) = (   0.0550834   0.0550834   0.3855839), wk =   0.0329218
        k(    5) = (   0.0550834   0.0550834  -0.4957507), wk =   0.0164609
        k(    6) = (   0.0550834   0.1652502   0.1652502), wk =   0.0329218
        k(    7) = (   0.0550834   0.1652502   0.2754171), wk =   0.0658436
        k(    8) = (   0.0550834   0.1652502   0.3855839), wk =   0.0658436
        k(    9) = (   0.0550834   0.1652502  -0.4957507), wk =   0.0329218
        k(   10) = (   0.0550834   0.2754171   0.2754171), wk =   0.0329218
        k(   11) = (   0.0550834   0.2754171   0.3855839), wk =   0.0658436
        k(   12) = (   0.0550834   0.2754171  -0.4957507), wk =   0.0329218
        k(   13) = (   0.0550834   0.3855839   0.3855839), wk =   0.0329218
        k(   14) = (   0.0550834   0.3855839  -0.4957507), wk =   0.0329218
        k(   15) = (   0.0550834  -0.4957507  -0.4957507), wk =   0.0082305
        k(   16) = (   0.1652502   0.1652502   0.1652502), wk =   0.0109739
        k(   17) = (   0.1652502   0.1652502   0.2754171), wk =   0.0329218
        k(   18) = (   0.1652502   0.1652502   0.3855839), wk =   0.0329218
        k(   19) = (   0.1652502   0.1652502  -0.4957507), wk =   0.0164609
        k(   20) = (   0.1652502   0.2754171   0.2754171), wk =   0.0329218
        k(   21) = (   0.1652502   0.2754171   0.3855839), wk =   0.0658436
        k(   22) = (   0.1652502   0.2754171  -0.4957507), wk =   0.0329218
        k(   23) = (   0.1652502   0.3855839   0.3855839), wk =   0.0329218
        k(   24) = (   0.1652502   0.3855839  -0.4957507), wk =   0.0329218
        k(   25) = (   0.1652502  -0.4957507  -0.4957507), wk =   0.0082305
        k(   26) = (   0.2754171   0.2754171   0.2754171), wk =   0.0109739
        k(   27) = (   0.2754171   0.2754171   0.3855839), wk =   0.0329218
        k(   28) = (   0.2754171   0.2754171  -0.4957507), wk =   0.0164609
        k(   29) = (   0.2754171   0.3855839   0.3855839), wk =   0.0329218
        k(   30) = (   0.2754171   0.3855839  -0.4957507), wk =   0.0329218
        k(   31) = (   0.2754171  -0.4957507  -0.4957507), wk =   0.0082305
        k(   32) = (   0.3855839   0.3855839   0.3855839), wk =   0.0109739
        k(   33) = (   0.3855839   0.3855839  -0.4957507), wk =   0.0164609
        k(   34) = (   0.3855839  -0.4957507  -0.4957507), wk =   0.0082305
        k(   35) = (  -0.4957507  -0.4957507  -0.4957507), wk =   0.0013717

     Dense  grid:   191711 G-vectors     FFT dimensions: (  72,  72,  72)

     Smooth grid:   102471 G-vectors     FFT dimensions: (  60,  60,  60)

     Estimated max dynamical RAM per process >     146.47 MB

     Estimated total dynamical RAM >       2.86 GB
     Generating pointlists ...
     new r_m :   0.1801 (alat units)  1.9355 (a.u.) for type    1
     new r_m :   0.1801 (alat units)  1.9355 (a.u.) for type    2

     Check: negative/imaginary core charge=   -0.000009    0.000000

     Initial potential from superposition of free atoms

     starting charge  223.98764, renormalised to  224.00000
     Starting wfcs are  160 randomized atomic wfcs
     Checking if some PAW data can be deallocated... 

     total cpu time spent up to now is       13.6 secs

     Self-consistent Calculation

     iteration #  1     ecut=    71.00 Ry     beta= 0.10
     Davidson diagonalization with overlap
     ethr =  1.00E-02,  avg # of iterations =  3.2

     Threshold (ethr) on eigenvalues was too large:
     Diagonalizing with lowered threshold

     Davidson diagonalization with overlap
     ethr =  7.87E-04,  avg # of iterations =  3.5

     total cpu time spent up to now is       78.1 secs

     total energy              =   -3971.39244563 Ry
     Harris-Foulkes estimate   =   -3971.57458149 Ry
     estimated scf accuracy    <       1.94237371 Ry

     total magnetization       =     4.83 Bohr mag/cell
     absolute magnetization    =     5.07 Bohr mag/cell

     iteration #  2     ecut=    71.00 Ry     beta= 0.10
     Davidson diagonalization with overlap
     ethr =  8.67E-04,  avg # of iterations =  1.0

     total cpu time spent up to now is       98.8 secs

     total energy              =   -3971.08692299 Ry
     Harris-Foulkes estimate   =   -3971.41604697 Ry
     estimated scf accuracy    <       1.24824940 Ry

     total magnetization       =     4.71 Bohr mag/cell
     absolute magnetization    =     4.91 Bohr mag/cell

     iteration #  3     ecut=    71.00 Ry     beta= 0.10
     Davidson diagonalization with overlap
     ethr =  5.57E-04,  avg # of iterations =  3.1

     total cpu time spent up to now is      131.9 secs

     total energy              =   -3971.38029851 Ry
     Harris-Foulkes estimate   =   -3971.43454052 Ry
     estimated scf accuracy    <       0.30562542 Ry

     total magnetization       =     3.91 Bohr mag/cell
     absolute magnetization    =     4.06 Bohr mag/cell

     iteration #  4     ecut=    71.00 Ry     beta= 0.10
     Davidson diagonalization with overlap
     ethr =  1.36E-04,  avg # of iterations =  1.8

     total cpu time spent up to now is      154.8 secs

     total energy              =   -3971.39952890 Ry
     Harris-Foulkes estimate   =   -3971.39145633 Ry
     estimated scf accuracy    <       0.19765676 Ry

     total magnetization       =     3.79 Bohr mag/cell
     absolute magnetization    =     3.96 Bohr mag/cell

     iteration #  5     ecut=    71.00 Ry     beta= 0.10
     Davidson diagonalization with overlap
     ethr =  8.82E-05,  avg # of iterations =  2.8

     total cpu time spent up to now is      185.2 secs

     total energy              =   -3971.48866774 Ry
     Harris-Foulkes estimate   =   -3971.43814958 Ry
     estimated scf accuracy    <       0.17648997 Ry

     total magnetization       =     2.91 Bohr mag/cell
     absolute magnetization    =     3.14 Bohr mag/cell

     iteration #  6     ecut=    71.00 Ry     beta= 0.10
     Davidson diagonalization with overlap
     ethr =  7.88E-05,  avg # of iterations =  2.1

     total cpu time spent up to now is      211.7 secs

     total energy              =   -3971.53632662 Ry
     Harris-Foulkes estimate   =   -3971.53639585 Ry
     estimated scf accuracy    <       0.01002293 Ry

     total magnetization       =     0.27 Bohr mag/cell
     absolute magnetization    =     0.49 Bohr mag/cell

     iteration #  7     ecut=    71.00 Ry     beta= 0.10
     Davidson diagonalization with overlap
     c_bands:  1 eigenvalues not converged
     ethr =  4.47E-06,  avg # of iterations =  5.8

     total cpu time spent up to now is      252.2 secs

     total energy              =   -3971.53403230 Ry
     Harris-Foulkes estimate   =   -3971.53751402 Ry
     estimated scf accuracy    <       0.00853484 Ry

     total magnetization       =     0.18 Bohr mag/cell
     absolute magnetization    =     0.51 Bohr mag/cell

     iteration #  8     ecut=    71.00 Ry     beta= 0.10
     Davidson diagonalization with overlap
     ethr =  3.81E-06,  avg # of iterations =  3.5

     total cpu time spent up to now is      293.9 secs

     total energy              =   -3971.53865271 Ry
     Harris-Foulkes estimate   =   -3971.53792389 Ry
     estimated scf accuracy    <       0.00638010 Ry

     total magnetization       =     0.18 Bohr mag/cell
     absolute magnetization    =     0.42 Bohr mag/cell

     iteration #  9     ecut=    71.00 Ry     beta= 0.10
     Davidson diagonalization with overlap
     ethr =  2.85E-06,  avg # of iterations =  1.2

     total cpu time spent up to now is      315.2 secs

     total energy              =   -3971.53707872 Ry
     Harris-Foulkes estimate   =   -3971.53882635 Ry
     estimated scf accuracy    <       0.00521356 Ry

     total magnetization       =     0.13 Bohr mag/cell
     absolute magnetization    =     0.29 Bohr mag/cell

     iteration # 10     ecut=    71.00 Ry     beta= 0.10
     Davidson diagonalization with overlap
     ethr =  2.33E-06,  avg # of iterations =  2.7

     total cpu time spent up to now is      345.2 secs

     total energy              =   -3971.53777833 Ry
     Harris-Foulkes estimate   =   -3971.53788767 Ry
     estimated scf accuracy    <       0.00013946 Ry

     total magnetization       =     0.06 Bohr mag/cell
     absolute magnetization    =     0.15 Bohr mag/cell

     iteration # 11     ecut=    71.00 Ry     beta= 0.10
     Davidson diagonalization with overlap
     ethr =  6.23E-08,  avg # of iterations =  5.8

     total cpu time spent up to now is      396.8 secs

     total energy              =   -3971.53799529 Ry
     Harris-Foulkes estimate   =   -3971.53783248 Ry
     estimated scf accuracy    <       0.00028598 Ry

     total magnetization       =     0.10 Bohr mag/cell
     absolute magnetization    =     0.20 Bohr mag/cell

     iteration # 12     ecut=    71.00 Ry     beta= 0.10
     Davidson diagonalization with overlap
     ethr =  6.23E-08,  avg # of iterations =  5.3

     total cpu time spent up to now is      452.7 secs

     total energy              =   -3971.53794558 Ry
     Harris-Foulkes estimate   =   -3971.53817682 Ry
     estimated scf accuracy    <       0.00192198 Ry

     total magnetization       =     0.02 Bohr mag/cell
     absolute magnetization    =     0.08 Bohr mag/cell

     iteration # 13     ecut=    71.00 Ry     beta= 0.10
     Davidson diagonalization with overlap
     ethr =  6.23E-08,  avg # of iterations =  5.1

     total cpu time spent up to now is      508.0 secs

     total energy              =   -3971.53809174 Ry
     Harris-Foulkes estimate   =   -3971.53807893 Ry
     estimated scf accuracy    <       0.00002515 Ry

     total magnetization       =     0.02 Bohr mag/cell
     absolute magnetization    =     0.06 Bohr mag/cell

     iteration # 14     ecut=    71.00 Ry     beta= 0.10
     Davidson diagonalization with overlap
     ethr =  1.12E-08,  avg # of iterations =  3.2

     total cpu time spent up to now is      539.7 secs

     total energy              =   -3971.53810388 Ry
     Harris-Foulkes estimate   =   -3971.53809869 Ry
     estimated scf accuracy    <       0.00000722 Ry

     total magnetization       =    -0.00 Bohr mag/cell
     absolute magnetization    =     0.04 Bohr mag/cell

     iteration # 15     ecut=    71.00 Ry     beta= 0.10
     Davidson diagonalization with overlap
     ethr =  3.22E-09,  avg # of iterations =  2.0

     total cpu time spent up to now is      563.2 secs

     total energy              =   -3971.53810669 Ry
     Harris-Foulkes estimate   =   -3971.53810449 Ry
     estimated scf accuracy    <       0.00000668 Ry

     total magnetization       =     0.00 Bohr mag/cell
     absolute magnetization    =     0.03 Bohr mag/cell

     iteration # 16     ecut=    71.00 Ry     beta= 0.10
     Davidson diagonalization with overlap
     ethr =  2.98E-09,  avg # of iterations =  4.5

     total cpu time spent up to now is      604.0 secs

     total energy              =   -3971.53811065 Ry
     Harris-Foulkes estimate   =   -3971.53810996 Ry
     estimated scf accuracy    <       0.00001340 Ry

     total magnetization       =    -0.00 Bohr mag/cell
     absolute magnetization    =     0.03 Bohr mag/cell

     iteration # 17     ecut=    71.00 Ry     beta= 0.10
     Davidson diagonalization with overlap
     ethr =  2.98E-09,  avg # of iterations =  1.0

     total cpu time spent up to now is      624.5 secs

     total energy              =   -3971.53811218 Ry
     Harris-Foulkes estimate   =   -3971.53811099 Ry
     estimated scf accuracy    <       0.00000314 Ry

     total magnetization       =     0.00 Bohr mag/cell
     absolute magnetization    =     0.03 Bohr mag/cell

     iteration # 18     ecut=    71.00 Ry     beta= 0.10
     Davidson diagonalization with overlap
     ethr =  1.40E-09,  avg # of iterations =  3.8
 
     Magnetic moment per site:
     atom:    1    charge:   12.2347    magn:    0.0010    constr:    0.0000
     atom:    2    charge:   12.2351    magn:   -0.0017    constr:    0.0000
     atom:    3    charge:   12.2353    magn:    0.0018    constr:    0.0000
     atom:    4    charge:   12.2351    magn:   -0.0017    constr:    0.0000
     atom:    5    charge:   12.2353    magn:    0.0018    constr:    0.0000
     atom:    6    charge:   12.2351    magn:   -0.0017    constr:    0.0000
     atom:    7    charge:   12.2354    magn:    0.0019    constr:    0.0000
     atom:    8    charge:   12.2351    magn:   -0.0017    constr:    0.0000
     atom:    9    charge:   12.2353    magn:    0.0018    constr:    0.0000
     atom:   10    charge:   12.2351    magn:   -0.0017    constr:    0.0000
     atom:   11    charge:   12.2354    magn:    0.0019    constr:    0.0000
     atom:   12    charge:   12.2351    magn:   -0.0017    constr:    0.0000
     atom:   13    charge:   12.2354    magn:    0.0019    constr:    0.0000
     atom:   14    charge:   12.2351    magn:   -0.0017    constr:    0.0000
     atom:   15    charge:   12.2357    magn:    0.0024    constr:    0.0000
     atom:   16    charge:   12.2351    magn:   -0.0017    constr:    0.0000

     total cpu time spent up to now is      657.0 secs

     End of self-consistent calculation

 ------ SPIN UP ------------


          k = 0.0551 0.0551 0.0551 ( 12923 PWs)   bands (ev):

   -52.8164 -52.6556 -52.6556 -52.6555 -52.6278 -52.6277 -52.6277 -52.6272
   -52.6272 -52.6268 -52.6245 -52.6244 -52.6244 -52.6123 -52.6103 -52.4935
   -24.4777 -24.4776 -24.4776 -24.4733 -24.4733 -24.4732 -24.2121 -24.2121
   -24.2028 -24.1163 -24.1119 -24.1119 -24.1119 -24.0796 -24.0796 -24.0612
   -24.0611 -24.0611 -24.0045 -24.0045 -23.9673 -23.9310 -23.9309 -23.9309
   -23.9149 -23.9149 -23.9148 -23.8923 -23.8923 -23.8923 -23.8873 -23.8872
   -23.8872 -23.8786 -23.8785 -23.8785 -23.8636 -23.8636 -23.8635 -23.6259
   -23.6259 -23.6258 -23.6248 -23.6214 -23.6212 -23.6212 -23.6147 -23.6147
    11.3042  14.7451  14.7451  14.7451  14.7672  14.7672  14.7672  14.9067
    14.9067  14.9182  14.9182  14.9182  15.3588  15.3588  15.3588  16.6316
    16.7031  16.7031  16.7031  16.7184  16.7184  16.7184  16.7322  16.7322
    16.8937  16.8937  16.9491  17.0972  17.0973  17.0973  17.5412  17.5413
    17.5413  18.1965  18.1965  18.2502  18.5318  18.5318  18.5318  18.6466
    18.6466  18.6466  18.7438  18.7439  18.7439  18.8505  18.8505  18.8505
    19.7143  19.7143  19.7143  19.7555  19.7555  19.7555  19.9774  19.9774
    19.9774  19.9982  19.9982  19.9982  20.1947  20.1947  20.1947  20.2165
    20.2165  20.2468  20.2468  20.2468  20.5537  20.5537

          k = 0.0551 0.0551 0.1653 ( 12908 PWs)   bands (ev):

   -52.8107 -52.6843 -52.6543 -52.6542 -52.6308 -52.6307 -52.6270 -52.6267
   -52.6264 -52.6236 -52.6232 -52.6231 -52.6132 -52.6112 -52.6001 -52.4976
   -24.4656 -24.4655 -24.4643 -24.4604 -24.4528 -24.4527 -24.2181 -24.2027
   -24.1882 -24.1712 -24.1564 -24.1564 -24.1539 -24.1524 -24.1076 -24.1076
   -24.0549 -24.0135 -24.0014 -23.9829 -23.9659 -23.9309 -23.9305 -23.9305
   -23.9106 -23.9022 -23.8978 -23.8978 -23.8964 -23.8838 -23.8838 -23.8792
   -23.8792 -23.8747 -23.8746 -23.8275 -23.8251 -23.8250 -23.8134 -23.6481
   -23.6393 -23.6393 -23.6377 -23.6338 -23.6258 -23.6257 -23.6231 -23.6186
    11.4376  14.3572  14.7707  14.7707  14.8384  14.8384  14.8527  14.8736
    14.9619  14.9619  14.9752  14.9818  15.3924  15.3924  15.6278  16.5083
    16.6272  16.6485  16.6634  16.6835  16.6974  16.7588  16.7588  16.7728
    16.8047  16.8047  17.0565  17.0566  17.1055  17.1157  17.4423  17.4423
    17.9544  18.1657  18.1892  18.2913  18.2913  18.3199  18.3683  18.4903
    18.4903  18.5337  18.8408  18.8408  18.9723  18.9723  19.0056  19.1190
    19.2141  19.2141  19.4388  19.4754  19.4755  19.4896  19.6040  19.9763
    19.9764  20.1149  20.1149  20.1257  20.2074  20.2074  20.2183  20.2456
    20.2528  20.2535  20.2535  20.2822  20.5573  20.5833

          k = 0.0551 0.0551 0.2754 ( 12849 PWs)   bands (ev):

   -52.7995 -52.7124 -52.6517 -52.6516 -52.6348 -52.6347 -52.6258 -52.6258
   -52.6249 -52.6226 -52.6225 -52.6220 -52.6150 -52.6127 -52.5751 -52.5057
   -24.4378 -24.4376 -24.4375 -24.4349 -24.4166 -24.4165 -24.2335 -24.2252
   -24.2208 -24.2180 -24.2180 -24.1839 -24.1826 -24.1724 -24.1724 -24.1668
   -24.0330 -24.0307 -24.0152 -24.0041 -23.9352 -23.9273 -23.9273 -23.9204
   -23.9129 -23.9039 -23.9039 -23.8813 -23.8812 -23.8789 -23.8789 -23.8612
   -23.8493 -23.8240 -23.8239 -23.7793 -23.7773 -23.7772 -23.7664 -23.6867
   -23.6613 -23.6612 -23.6606 -23.6584 -23.6400 -23.6391 -23.6390 -23.6328
    11.6997  13.7412  14.8355  14.8355  14.9536  14.9536  15.0181  15.0181
    15.0596  15.0778  15.1110  15.1214  15.4153  15.4153  15.7145  16.2573
    16.3357  16.3945  16.5722  16.6331  16.6492  16.6608  16.8834  16.8834
    16.9593  16.9593  17.0656  17.0657  17.3780  17.3816  17.3816  17.3998
    17.9661  17.9661  18.1438  18.1451  18.1451  18.1780  18.1783  18.2520
    18.4227  18.6269  18.6270  18.6511  18.8368  18.8369  19.0616  19.1001
    19.1333  19.1333  19.1752  19.1752  19.1793  19.3181  19.4434  19.9481
    19.9899  19.9899  20.1081  20.1081  20.2631  20.2812  20.3228  20.3250
    20.3250  20.5332  20.5351  20.5575  20.5640  20.5914

          k = 0.0551 0.0551 0.3856 ( 12857 PWs)   bands (ev):

   -52.7834 -52.7389 -52.6481 -52.6480 -52.6393 -52.6392 -52.6247 -52.6247
   -52.6228 -52.6228 -52.6226 -52.6198 -52.6173 -52.6149 -52.5527 -52.5177
   -24.3992 -24.3975 -24.3957 -24.3957 -24.3675 -24.3675 -24.2947 -24.2912
   -24.2823 -24.2823 -24.2415 -24.2414 -24.2203 -24.2030 -24.1565 -24.1381
   -24.0797 -24.0613 -24.0033 -23.9850 -23.9454 -23.9356 -23.9226 -23.9226
   -23.9104 -23.9104 -23.8798 -23.8798 -23.8788 -23.8788 -23.8667 -23.7975
   -23.7905 -23.7744 -23.7743 -23.7382 -23.7354 -23.7318 -23.7317 -23.7239
   -23.6946 -23.6946 -23.6916 -23.6915 -23.6649 -23.6617 -23.6616 -23.6559
    12.0804  13.1286  14.9221  14.9221  15.0399  15.0399  15.0997  15.0997
    15.3041  15.3117  15.3486  15.3619  15.3706  15.3706  15.6520  15.8910
    16.0442  16.0574  16.5582  16.5794  16.6090  16.6189  17.0715  17.0715
    17.1754  17.1754  17.2216  17.2217  17.4458  17.4459  17.6676  17.6676
    17.7238  17.7450  17.8001  17.8001  18.0680  18.0681  18.1338  18.1700
    18.1791  18.1864  18.2514  18.2515  18.5612  18.5937  18.5966  18.9430
    19.0021  19.4039  19.4039  19.4389  19.4389  19.6774  19.6916  19.8138
    19.8248  19.8248  19.9441  19.9441  20.3241  20.3361  20.4216  20.4675
    20.4713  20.4738  20.5730  20.5931  20.5994  20.6084

          k = 0.0551 0.0551-0.4958 ( 12880 PWs)   bands (ev):

   -52.7631 -52.7627 -52.6441 -52.6440 -52.6437 -52.6435 -52.6238 -52.6238
   -52.6235 -52.6233 -52.6203 -52.6197 -52.6176 -52.6171 -52.5337 -52.5333
   -24.3505 -24.3501 -24.3501 -24.3497 -24.3431 -24.3430 -24.3430 -24.3430
   -24.3081 -24.3080 -24.3079 -24.3079 -24.2151 -24.2148 -24.1216 -24.1212
   -24.1029 -24.1026 -23.9742 -23.9738 -23.9610 -23.9606 -23.9171 -23.9171
   -23.9167 -23.9167 -23.8793 -23.8793 -23.8789 -23.8789 -23.7997 -23.7994
   -23.7416 -23.7412 -23.7386 -23.7383 -23.7296 -23.7296 -23.7295 -23.7294
   -23.6972 -23.6968 -23.6928 -23.6928 -23.6928 -23.6926 -23.6867 -23.6864
    12.5641  12.5646  15.0019  15.0019  15.0021  15.0021  15.2518  15.2518
    15.2520  15.2520  15.4962  15.4966  15.5732  15.5736  15.6932  15.6936
    15.6978  15.6982  16.5744  16.5747  16.5854  16.5857  17.3103  17.3103
    17.3104  17.3105  17.4123  17.4123  17.4125  17.4125  17.6276  17.6277
    17.6279  17.6280  17.7958  17.7958  17.7960  17.7961  18.1327  18.1328
    18.1425  18.1427  18.1466  18.1467  18.1718  18.1721  18.7353  18.7357
    19.3690  19.3693  19.6262  19.6263  19.6263  19.6263  19.7169  19.7169
    19.7170  19.7170  20.0703  20.0706  20.2150  20.2153  20.3947  20.3951
    20.4019  20.4024  20.5440  20.5444  20.5830  20.5851

          k = 0.0551 0.1653 0.1653 ( 12881 PWs)   bands (ev):

   -52.8051 -52.6821 -52.6820 -52.6529 -52.6389 -52.6298 -52.6297 -52.6262
   -52.6224 -52.6223 -52.6169 -52.6145 -52.6117 -52.6006 -52.6005 -52.5015
   -24.4618 -24.4526 -24.4525 -24.4410 -24.4409 -24.4239 -24.2287 -24.2061
   -24.1971 -24.1946 -24.1946 -24.1847 -24.1759 -24.1653 -24.1387 -24.0704
   -24.0493 -24.0492 -23.9970 -23.9817 -23.9815 -23.9399 -23.9248 -23.9248
   -23.9122 -23.9090 -23.9090 -23.9013 -23.8927 -23.8926 -23.8861 -23.8712
   -23.8681 -23.8416 -23.8293 -23.8291 -23.7962 -23.7775 -23.7774 -23.6795
   -23.6610 -23.6484 -23.6483 -23.6373 -23.6372 -23.6304 -23.6210 -23.6151
    11.5691  14.4190  14.4190  14.7392  14.8793  14.8793  14.9436  14.9436
    14.9469  15.0145  15.0429  15.0558  15.4384  15.6636  15.6636  16.3953
    16.5216  16.6608  16.6609  16.7189  16.7360  16.7360  16.7770  16.7770
    16.7834  16.8535  16.9208  16.9967  17.0924  17.1291  17.3326  17.7690
    17.7690  18.0945  18.1415  18.1416  18.1695  18.1922  18.3499  18.4358
    18.7362  18.7362  18.7815  18.8060  18.8060  18.9332  19.0469  19.0470
    19.0493  19.1703  19.1703  19.2216  19.2216  19.3233  19.7013  19.7014
    19.9826  20.1107  20.1418  20.1418  20.1797  20.2119  20.2119  20.2225
    20.2263  20.4172  20.5207  20.5264  20.5265  20.5641

          k = 0.0551 0.1653 0.2754 ( 12851 PWs)   bands (ev):

   -52.7943 -52.7094 -52.6778 -52.6503 -52.6475 -52.6337 -52.6279 -52.6253
   -52.6219 -52.6209 -52.6166 -52.6129 -52.6117 -52.6013 -52.5763 -52.5093
   -24.4426 -24.4272 -24.4263 -24.4182 -24.4072 -24.3805 -24.2517 -24.2504
   -24.2391 -24.2312 -24.2303 -24.2217 -24.1892 -24.1791 -24.1366 -24.1163
   -24.0525 -24.0308 -23.9900 -23.9839 -23.9755 -23.9737 -23.9427 -23.9300
   -23.9270 -23.9171 -23.9090 -23.8907 -23.8896 -23.8726 -23.8600 -23.8452
   -23.8321 -23.8199 -23.8001 -23.7821 -23.7590 -23.7337 -23.7333 -23.7251
   -23.6910 -23.6668 -23.6665 -23.6601 -23.6479 -23.6466 -23.6252 -23.6208
    11.8271  13.8225  14.5212  14.7318  14.9446  15.0577  15.0876  15.0881
    15.0930  15.1447  15.1711  15.1991  15.4839  15.6758  15.7597  16.2672
    16.2820  16.3655  16.6439  16.6961  16.7274  16.7293  16.7468  16.8508
    16.8766  16.9161  16.9682  17.1038  17.2394  17.2672  17.3318  17.6337
    17.8469  17.9623  17.9634  18.0277  18.0478  18.0939  18.1461  18.2835
    18.3762  18.5182  18.5836  18.6689  18.7450  18.8094  18.8168  18.9242
    19.0288  19.1439  19.1699  19.2275  19.2563  19.4339  19.4357  19.8289
    19.9752  20.0203  20.0517  20.1128  20.1503  20.1949  20.2431  20.2789
    20.4525  20.5117  20.5150  20.5427  20.5905  20.5956

          k = 0.0551 0.1653 0.3856 ( 12847 PWs)   bands (ev):

   -52.7785 -52.7352 -52.6718 -52.6562 -52.6468 -52.6381 -52.6254 -52.6241
   -52.6221 -52.6194 -52.6189 -52.6147 -52.6077 -52.6026 -52.5546 -52.5209
   -24.4091 -24.3905 -24.3873 -24.3854 -24.3617 -24.3248 -24.3101 -24.2983
   -24.2893 -24.2852 -24.2478 -24.2455 -24.2384 -24.1887 -24.1522 -24.1028
   -24.0767 -24.0234 -24.0205 -23.9752 -23.9663 -23.9584 -23.9414 -23.9398
   -23.9308 -23.9256 -23.9149 -23.8905 -23.8900 -23.8505 -23.8366 -23.8200
   -23.7883 -23.7816 -23.7726 -23.7592 -23.7393 -23.7279 -23.7227 -23.6943
   -23.6942 -23.6940 -23.6936 -23.6912 -23.6707 -23.6662 -23.6389 -23.6367
    12.2013  13.2269  14.6261  14.7270  15.0299  15.1286  15.2024  15.2665
    15.3520  15.3792  15.3944  15.4219  15.4601  15.5996  15.7051  15.9367
    16.0485  16.0776  16.5983  16.6496  16.6504  16.6764  16.9431  17.0157
    17.0339  17.0661  17.0941  17.2355  17.3440  17.4953  17.5729  17.6349
    17.7056  17.7431  17.7847  17.8228  17.9722  17.9808  18.0076  18.0166
    18.0646  18.1199  18.1451  18.2844  18.3728  18.3731  18.7582  19.1749
    19.1901  19.3684  19.3732  19.4469  19.4532  19.4753  19.6686  19.7528
    19.7606  19.8591  19.9477  19.9992  20.1484  20.2685  20.2997  20.3799
    20.4113  20.4377  20.4463  20.5232  20.5871  20.5895

          k = 0.0551 0.1653-0.4958 ( 12868 PWs)   bands (ev):

   -52.7588 -52.7583 -52.6647 -52.6643 -52.6428 -52.6424 -52.6232 -52.6228
   -52.6226 -52.6221 -52.6170 -52.6165 -52.6049 -52.6045 -52.5363 -52.5359
   -24.3639 -24.3638 -24.3449 -24.3445 -24.3440 -24.3436 -24.3392 -24.3391
   -24.3073 -24.3072 -24.2598 -24.2597 -24.2460 -24.2458 -24.1179 -24.1175
   -24.0641 -24.0639 -23.9908 -23.9905 -23.9550 -23.9546 -23.9544 -23.9540
   -23.9338 -23.9334 -23.8904 -23.8900 -23.8461 -23.8460 -23.8429 -23.8425
   -23.7713 -23.7713 -23.7371 -23.7367 -23.7300 -23.7297 -23.7225 -23.7224
   -23.7020 -23.7016 -23.6912 -23.6912 -23.6621 -23.6621 -23.6617 -23.6615
    12.6755  12.6760  14.6977  14.6980  15.1040  15.1042  15.3513  15.3515
    15.4469  15.4471  15.5501  15.5505  15.6377  15.6381  15.7236  15.7240
    15.7415  15.7419  16.6105  16.6108  16.6392  16.6395  17.1875  17.1877
    17.2042  17.2045  17.2474  17.2475  17.2986  17.2990  17.6710  17.6711
    17.7077  17.7078  17.7759  17.7761  17.8946  17.8948  17.9490  17.9491
    17.9606  17.9607  17.9902  17.9903  18.0946  18.0949  18.9595  18.9597
    19.4760  19.4763  19.5134  19.5135  19.6645  19.6645  19.7224  19.7225
    19.7476  19.7478  19.7686  19.7687  20.1332  20.1335  20.3528  20.3532
    20.3708  20.3712  20.5066  20.5070  20.5845  20.5849

          k = 0.0551 0.2754 0.2754 ( 12854 PWs)   bands (ev):

   -52.7839 -52.7036 -52.7035 -52.6605 -52.6478 -52.6317 -52.6316 -52.6243
   -52.6206 -52.6206 -52.6192 -52.6137 -52.6021 -52.5787 -52.5786 -52.5165
   -24.4321 -24.4045 -24.4044 -24.3894 -24.3893 -24.3307 -24.2742 -24.2735
   -24.2735 -24.2591 -24.2570 -24.2547 -24.2202 -24.1624 -24.1003 -24.0537
   -24.0518 -24.0518 -24.0221 -24.0220 -23.9826 -23.9565 -23.9500 -23.9411
   -23.9411 -23.9215 -23.9215 -23.9077 -23.9077 -23.9002 -23.8405 -23.8086
   -23.7880 -23.7879 -23.7848 -23.7786 -23.7690 -23.7344 -23.7273 -23.6949
   -23.6949 -23.6776 -23.6775 -23.6658 -23.6657 -23.6616 -23.6200 -23.6161
    12.0765  13.9704  13.9704  14.6274  15.1533  15.1534  15.1956  15.2519
    15.2553  15.2553  15.2814  15.3514  15.5774  15.7801  15.7801  16.1967
    16.2749  16.3949  16.3950  16.7072  16.7932  16.7946  16.7946  16.8431
    16.8431  16.8687  16.9373  17.0953  17.2106  17.3099  17.3136  17.7300
    17.7301  17.8510  17.8510  17.8544  17.8700  17.9079  17.9568  18.1018
    18.3108  18.3108  18.3751  18.3751  18.5216  18.6561  18.6562  18.7835
    19.2418  19.2418  19.3147  19.3609  19.4005  19.4005  19.6634  19.7758
    19.7759  19.9692  20.0823  20.0824  20.1241  20.1434  20.1435  20.1599
    20.2477  20.4574  20.4611  20.4640  20.5867  20.5958

          k = 0.0551 0.2754 0.3856 ( 12852 PWs)   bands (ev):

   -52.7690 -52.7280 -52.6953 -52.6732 -52.6444 -52.6360 -52.6289 -52.6231
   -52.6224 -52.6209 -52.6188 -52.6151 -52.5940 -52.5824 -52.5585 -52.5272
   -24.4075 -24.3730 -24.3715 -24.3644 -24.3511 -24.3249 -24.3034 -24.2929
   -24.2925 -24.2836 -24.2744 -24.2695 -24.2614 -24.1370 -24.1259 -24.0654
   -24.0599 -24.0350 -24.0088 -23.9821 -23.9723 -23.9718 -23.9707 -23.9697
   -23.9623 -23.9519 -23.9296 -23.9081 -23.9063 -23.8679 -23.8416 -23.8233
   -23.7969 -23.7696 -23.7663 -23.7500 -23.7480 -23.7392 -23.7107 -23.6951
   -23.6929 -23.6921 -23.6840 -23.6760 -23.6625 -23.6624 -23.6243 -23.6217
    12.4368  13.4129  14.1560  14.5024  15.2339  15.2814  15.3951  15.4210
    15.4333  15.4413  15.5229  15.5602  15.6095  15.7146  15.7396  16.0618
    16.0790  16.0861  16.6474  16.6757  16.7285  16.7305  16.7639  16.8794
    16.9223  16.9644  17.0345  17.0615  17.3775  17.4263  17.4721  17.4747
    17.5893  17.7057  17.7222  17.7795  17.8015  17.8116  17.9002  17.9355
    17.9464  18.0242  18.0367  18.0500  18.1652  18.2720  18.9834  19.0056
    19.3909  19.4214  19.5076  19.5237  19.5369  19.5488  19.5495  19.6295
    19.7530  19.8434  19.9313  19.9832  20.0171  20.1323  20.1708  20.2067
    20.2797  20.3136  20.3734  20.3813  20.4930  20.5912

          k = 0.0551 0.2754-0.4958 ( 12840 PWs)   bands (ev):

   -52.7503 -52.7499 -52.6852 -52.6848 -52.6405 -52.6401 -52.6259 -52.6255
   -52.6221 -52.6217 -52.6171 -52.6167 -52.5877 -52.5872 -52.5415 -52.5410
   -24.3708 -24.3707 -24.3349 -24.3347 -24.3345 -24.3343 -24.3326 -24.3325
   -24.3070 -24.3069 -24.2834 -24.2833 -24.2000 -24.1999 -24.1044 -24.1040
   -24.0161 -24.0160 -24.0055 -24.0053 -23.9920 -23.9916 -23.9599 -23.9596
   -23.9521 -23.9519 -23.9107 -23.9107 -23.9085 -23.9082 -23.8168 -23.8168
   -23.8089 -23.8084 -23.7264 -23.7260 -23.7197 -23.7194 -23.7135 -23.7134
   -23.7131 -23.7127 -23.6910 -23.6909 -23.6385 -23.6385 -23.6376 -23.6375
    12.8903  12.8908  14.3428  14.3432  15.2916  15.2918  15.5325  15.5327
    15.5834  15.5836  15.6022  15.6026  15.7716  15.7719  15.8076  15.8080
    15.8165  15.8169  16.6808  16.6811  16.7114  16.7116  16.9822  16.9825
    17.0078  17.0082  17.0175  17.0178  17.2429  17.2430  17.6755  17.6757
    17.6883  17.6884  17.6960  17.6960  17.7417  17.7419  17.7477  17.7477
    17.9059  17.9060  17.9093  17.9093  17.9963  17.9966  19.2465  19.2466
    19.3532  19.3533  19.4300  19.4300  19.6424  19.6426  19.7490  19.7491
    19.7733  19.7734  19.8164  19.8165  19.9338  19.9340  20.2728  20.2731
    20.2911  20.2915  20.4386  20.4390  20.4724  20.4725

          k = 0.0551 0.3856 0.3856 ( 12834 PWs)   bands (ev):

   -52.7552 -52.7177 -52.7176 -52.6896 -52.6411 -52.6330 -52.6329 -52.6258
   -52.6218 -52.6194 -52.6193 -52.6162 -52.5822 -52.5644 -52.5643 -52.5366
   -24.3919 -24.3501 -24.3501 -24.3376 -24.3375 -24.3270 -24.3270 -24.3116
   -24.3062 -24.3058 -24.2998 -24.2823 -24.2040 -24.1137 -24.0562 -24.0562
   -24.0485 -24.0483 -24.0309 -24.0138 -24.0005 -23.9829 -23.9829 -23.9794
   -23.9634 -23.9295 -23.9295 -23.9196 -23.9168 -23.9168 -23.9102 -23.8155
   -23.7990 -23.7609 -23.7607 -23.7393 -23.7283 -23.7209 -23.7038 -23.7002
   -23.6989 -23.6988 -23.6916 -23.6915 -23.6381 -23.6381 -23.6191 -23.6169
    12.7740  13.6653  13.6653  14.2413  15.4398  15.5068  15.5068  15.5396
    15.5549  15.6467  15.6468  15.7205  15.7205  15.7400  15.7887  16.0036
    16.0370  16.3495  16.3495  16.7204  16.7428  16.7718  16.8205  16.8205
    16.8313  16.8313  16.9052  17.0580  17.1507  17.3121  17.4241  17.4903
    17.4904  17.5998  17.6660  17.6768  17.6965  17.6965  17.7277  17.7277
    17.8624  17.8624  17.8724  17.9768  17.9942  18.5874  18.5875  19.2730
    19.3427  19.4341  19.5000  19.5000  19.6707  19.6708  19.6938  19.7028
    19.8443  19.8444  19.8876  19.9853  20.0031  20.0365  20.0365  20.0621
    20.0621  20.2763  20.2832  20.2834  20.3974  20.5062

          k = 0.0551 0.3856-0.4958 ( 12816 PWs)   bands (ev):

   -52.7381 -52.7377 -52.7048 -52.7044 -52.6374 -52.6369 -52.6297 -52.6293
   -52.6207 -52.6203 -52.6179 -52.6175 -52.5725 -52.5721 -52.5493 -52.5488
   -24.3643 -24.3643 -24.3267 -24.3264 -24.3263 -24.3261 -24.3236 -24.3233
   -24.3180 -24.3180 -24.3088 -24.3086 -24.1316 -24.1316 -24.0839 -24.0835
   -24.0266 -24.0262 -24.0116 -24.0115 -23.9863 -23.9862 -23.9830 -23.9830
   -23.9656 -23.9655 -23.9492 -23.9491 -23.9271 -23.9270 -23.8651 -23.8650
   -23.7782 -23.7778 -23.7298 -23.7294 -23.7134 -23.7131 -23.7109 -23.7107
   -23.7074 -23.7073 -23.6939 -23.6937 -23.6235 -23.6235 -23.6227 -23.6226
    13.1926  13.1931  13.9529  13.9533  15.5233  15.5235  15.6474  15.6478
    15.6571  15.6574  15.7471  15.7472  15.7941  15.7944  15.8931  15.8934
    16.0585  16.0589  16.6856  16.6860  16.7456  16.7458  16.7461  16.7463
    16.8023  16.8026  16.8654  16.8657  17.2962  17.2962  17.4558  17.4559
    17.5423  17.5424  17.5472  17.5473  17.5564  17.5564  17.6090  17.6091
    17.8794  17.8794  17.9142  17.9144  18.2110  18.2111  18.9479  18.9479
    19.4258  19.4259  19.5524  19.5525  19.7080  19.7082  19.8114  19.8116
    19.8747  19.8748  19.8820  19.8821  19.8822  19.8823  20.1581  20.1584
    20.1696  20.1699  20.1809  20.1809  20.3611  20.3615

          k = 0.0551-0.4958-0.4958 ( 12808 PWs)   bands (ev):

   -52.7228 -52.7226 -52.7224 -52.7221 -52.6338 -52.6335 -52.6334 -52.6330
   -52.6193 -52.6191 -52.6189 -52.6186 -52.5598 -52.5595 -52.5594 -52.5590
   -24.3460 -24.3460 -24.3459 -24.3459 -24.3236 -24.3235 -24.3234 -24.3232
   -24.3144 -24.3143 -24.3142 -24.3140 -24.0581 -24.0581 -24.0580 -24.0580
   -24.0576 -24.0575 -24.0573 -24.0569 -24.0051 -24.0051 -24.0051 -24.0051
   -23.9414 -23.9414 -23.9414 -23.9414 -23.9150 -23.9150 -23.9149 -23.9149
   -23.7518 -23.7516 -23.7515 -23.7511 -23.7065 -23.7064 -23.7063 -23.7062
   -23.7017 -23.7016 -23.7015 -23.7014 -23.6180 -23.6180 -23.6179 -23.6179
    13.5576  13.5577  13.5580  13.5582  15.6728  15.6729  15.6731  15.6733
    15.7184  15.7184  15.7186  15.7187  15.8936  15.8936  15.8938  15.8938
    16.3603  16.3605  16.3607  16.3609  16.7299  16.7300  16.7301  16.7302
    16.7811  16.7812  16.7813  16.7814  17.4028  17.4028  17.4029  17.4029
    17.4284  17.4286  17.4286  17.4287  17.5182  17.5182  17.5182  17.5183
    17.8735  17.8736  17.8736  17.8738  18.5613  18.5613  18.5614  18.5614
    19.5234  19.5235  19.5236  19.5237  19.8598  19.8599  19.8600  19.8600
    19.9147  19.9148  19.9148  19.9149  20.0192  20.0194  20.0195  20.0197
    20.0246  20.0248  20.0249  20.0251  20.3342  20.3343

          k = 0.1653 0.1653 0.1653 ( 12875 PWs)   bands (ev):

   -52.7997 -52.6800 -52.6800 -52.6798 -52.6377 -52.6377 -52.6376 -52.6171
   -52.6164 -52.6164 -52.6162 -52.6110 -52.6009 -52.6009 -52.6007 -52.5053
   -24.4487 -24.4485 -24.4485 -24.4143 -24.4143 -24.4142 -24.2365 -24.2195
   -24.2195 -24.2195 -24.2187 -24.2187 -24.1437 -24.1437 -24.1363 -24.0824
   -24.0824 -24.0824 -23.9933 -23.9932 -23.9932 -23.9264 -23.9264 -23.9264
   -23.9246 -23.9246 -23.8883 -23.8883 -23.8882 -23.8785 -23.8784 -23.8784
   -23.8339 -23.8338 -23.8338 -23.8298 -23.7533 -23.7533 -23.7532 -23.7110
   -23.6665 -23.6665 -23.6664 -23.6333 -23.6332 -23.6332 -23.6240 -23.6240
    11.6989  14.4870  14.4870  14.4870  14.8515  14.8515  14.8515  15.0493
    15.0494  15.0494  15.1195  15.1195  15.7158  15.7158  15.7158  16.3002
    16.6353  16.6353  16.6382  16.6382  16.6382  16.7608  16.7608  16.7608
    16.8820  16.8820  16.8820  16.9810  17.0405  17.0405  17.6062  17.6063
    17.6063  18.0535  18.0535  18.0535  18.0777  18.0777  18.5258  18.5259
    18.5259  18.5652  18.6700  18.6700  18.6700  18.9366  18.9367  18.9367
    19.0349  19.0349  19.0349  19.2595  19.2595  19.2595  19.9279  19.9281
    19.9281  20.0264  20.0264  20.0264  20.1529  20.1529  20.2152  20.2152
    20.2152  20.5248  20.5249  20.5249  20.5653  20.5680

          k = 0.1653 0.1653 0.2754 ( 12866 PWs)   bands (ev):

   -52.7891 -52.7065 -52.6758 -52.6757 -52.6461 -52.6460 -52.6353 -52.6204
   -52.6153 -52.6114 -52.6114 -52.6108 -52.6016 -52.6015 -52.5774 -52.5128
   -24.4302 -24.4301 -24.4227 -24.3956 -24.3740 -24.3739 -24.2690 -24.2612
   -24.2611 -24.2428 -24.2372 -24.2137 -24.1994 -24.1361 -24.1361 -24.1075
   -24.1025 -24.0446 -24.0188 -23.9955 -23.9955 -23.9527 -23.9444 -23.9444
   -23.9357 -23.9350 -23.8913 -23.8663 -23.8662 -23.8562 -23.8436 -23.8436
   -23.8381 -23.8381 -23.7904 -23.7845 -23.7585 -23.7215 -23.7214 -23.7146
   -23.6912 -23.6911 -23.6780 -23.6573 -23.6413 -23.6363 -23.6363 -23.6248
    11.9533  13.9078  14.6011  14.6011  14.8466  14.8466  15.0680  15.1940
    15.1940  15.2441  15.2456  15.2616  15.7561  15.7561  15.8254  16.2103
    16.2860  16.4772  16.5977  16.6682  16.6683  16.7206  16.8164  16.8490
    16.8490  16.8737  17.0429  17.0429  17.0869  17.2775  17.4548  17.4549
    17.7876  17.8484  17.8484  17.9496  17.9854  18.0468  18.2123  18.2123
    18.2354  18.2355  18.4588  18.5851  18.5851  18.6118  18.7374  18.7444
    19.0710  19.1980  19.1980  19.3626  19.3626  19.5440  19.6648  19.8883
    19.8883  20.0101  20.1058  20.1454  20.1455  20.1805  20.2325  20.2413
    20.2414  20.2414  20.5051  20.5107  20.5323  20.5637

          k = 0.1653 0.1653 0.3856 ( 12863 PWs)   bands (ev):

   -52.7738 -52.7316 -52.6699 -52.6698 -52.6546 -52.6545 -52.6321 -52.6243
   -52.6140 -52.6115 -52.6076 -52.6075 -52.6028 -52.6027 -52.5565 -52.5239
   -24.3987 -24.3987 -24.3849 -24.3696 -24.3223 -24.3223 -24.3096 -24.3096
   -24.3035 -24.2786 -24.2547 -24.2505 -24.1987 -24.1986 -24.1713 -24.0924
   -24.0683 -24.0651 -23.9891 -23.9891 -23.9877 -23.9806 -23.9618 -23.9618
   -23.9505 -23.9343 -23.9078 -23.8565 -23.8564 -23.8428 -23.8428 -23.8165
   -23.7992 -23.7992 -23.7937 -23.7534 -23.7392 -23.7218 -23.7218 -23.6962
   -23.6928 -23.6908 -23.6907 -23.6812 -23.6668 -23.6472 -23.6472 -23.6351
    12.3218  13.3273  14.7211  14.7211  14.8413  14.8413  15.3674  15.3674
    15.3720  15.4310  15.4462  15.5086  15.6977  15.6977  15.7829  15.9592
    16.0572  16.1254  16.5984  16.6721  16.7349  16.7459  16.8489  16.8490
    16.9933  16.9933  17.2234  17.2234  17.3409  17.3409  17.3792  17.5572
    17.6973  17.6974  17.7734  17.7734  17.8914  17.8921  17.9167  17.9298
    17.9299  18.0056  18.1216  18.1217  18.1661  18.1774  18.9365  19.0291
    19.2998  19.4046  19.4760  19.4760  19.4932  19.4932  19.7435  19.7435
    19.7729  19.8073  19.8862  19.9934  19.9935  20.2073  20.2953  20.3420
    20.4191  20.4404  20.5281  20.5282  20.5414  20.5584

          k = 0.1653 0.1653-0.4958 ( 12848 PWs)   bands (ev):

   -52.7545 -52.7541 -52.6629 -52.6629 -52.6625 -52.6623 -52.6286 -52.6281
   -52.6129 -52.6124 -52.6049 -52.6049 -52.6046 -52.6044 -52.5388 -52.5383
   -24.3573 -24.3572 -24.3572 -24.3572 -24.3383 -24.3380 -24.3364 -24.3359
   -24.2626 -24.2625 -24.2624 -24.2624 -24.2569 -24.2567 -24.1353 -24.1349
   -24.0275 -24.0272 -24.0242 -24.0241 -23.9774 -23.9774 -23.9771 -23.9771
   -23.9237 -23.9234 -23.8819 -23.8818 -23.8488 -23.8488 -23.8484 -23.8484
   -23.7582 -23.7581 -23.7580 -23.7580 -23.7390 -23.7386 -23.7216 -23.7213
   -23.7000 -23.6996 -23.6655 -23.6655 -23.6654 -23.6654 -23.6543 -23.6541
    12.7875  12.7880  14.8057  14.8057  14.8060  14.8060  15.5483  15.5483
    15.5485  15.5485  15.6366  15.6370  15.6709  15.6713  15.7371  15.7375
    15.8023  15.8026  16.6270  16.6273  16.7024  16.7026  17.1491  17.1491
    17.1494  17.1495  17.1753  17.1753  17.1754  17.1755  17.6742  17.6742
    17.6743  17.6743  17.7471  17.7472  17.7919  17.7920  17.7920  17.7921
    17.8651  17.8653  17.8828  17.8829  17.9559  17.9562  19.1597  19.1598
    19.3791  19.3792  19.5609  19.5612  19.6037  19.6037  19.6037  19.6037
    19.7686  19.7687  19.7687  19.7688  20.2669  20.2672  20.3160  20.3164
    20.3649  20.3653  20.4737  20.4740  20.5504  20.5508

          k = 0.1653 0.2754 0.2754 ( 12838 PWs)   bands (ev):

   -52.7790 -52.7008 -52.7008 -52.6718 -52.6587 -52.6434 -52.6433 -52.6250
   -52.6108 -52.6107 -52.6096 -52.6022 -52.6020 -52.5797 -52.5796 -52.5197
   -24.4193 -24.4057 -24.4056 -24.3615 -24.3615 -24.3276 -24.2869 -24.2810
   -24.2787 -24.2787 -24.2487 -24.2275 -24.1951 -24.1720 -24.1242 -24.0745
   -24.0744 -24.0633 -24.0465 -24.0464 -24.0124 -23.9754 -23.9754 -23.9715
   -23.9130 -23.8885 -23.8885 -23.8772 -23.8772 -23.8455 -23.8444 -23.8301
   -23.8092 -23.8069 -23.7896 -23.7894 -23.7612 -23.7215 -23.7038 -23.6936
   -23.6936 -23.6885 -23.6885 -23.6585 -23.6584 -23.6520 -23.6320 -23.6254
    12.2002  14.0633  14.0634  14.7394  14.7466  15.0682  15.0682  15.3522
    15.3624  15.3846  15.3846  15.4056  15.8628  15.8771  15.8772  16.1740
    16.3666  16.3666  16.4148  16.6152  16.6622  16.8000  16.8000  16.9093
    16.9179  16.9419  16.9419  16.9570  17.2245  17.2502  17.2841  17.5980
    17.5981  17.7334  17.7786  17.7786  17.8234  17.8793  17.9768  18.0259
    18.0718  18.0719  18.2319  18.2319  18.2982  18.4093  18.4094  18.9475
    19.3148  19.3148  19.3587  19.5000  19.5764  19.5764  19.7536  19.7705
    19.9907  19.9908  19.9936  19.9937  20.0167  20.1277  20.1713  20.1713
    20.1996  20.4672  20.4679  20.4700  20.4754  20.5462

          k = 0.1653 0.2754 0.3856 ( 12860 PWs)   bands (ev):

   -52.7645 -52.7245 -52.6927 -52.6711 -52.6661 -52.6514 -52.6395 -52.6300
   -52.6101 -52.6092 -52.6073 -52.6031 -52.5943 -52.5832 -52.5602 -52.5300
   -24.3956 -24.3784 -24.3701 -24.3448 -24.3209 -24.3180 -24.3106 -24.3058
   -24.2845 -24.2747 -24.2708 -24.2667 -24.2182 -24.1706 -24.1395 -24.0975
   -24.0938 -24.0368 -24.0217 -24.0178 -24.0149 -24.0072 -23.9971 -23.9958
   -23.9337 -23.9089 -23.8905 -23.8706 -23.8666 -23.8521 -23.8417 -23.8257
   -23.7982 -23.7809 -23.7718 -23.7571 -23.7456 -23.7354 -23.7144 -23.7012
   -23.6909 -23.6868 -23.6756 -23.6643 -23.6637 -23.6616 -23.6350 -23.6293
    12.5564  13.5174  14.2594  14.6218  14.8926  15.0603  15.3793  15.5192
    15.5229  15.5562  15.6054  15.6387  15.8214  15.8436  15.8674  16.0852
    16.0967  16.1328  16.6060  16.6577  16.7052  16.7410  16.8075  16.8350
    16.9227  17.0277  17.0465  17.1460  17.1657  17.3392  17.3962  17.4148
    17.5189  17.6005  17.6632  17.6904  17.7147  17.7751  17.7876  17.8019
    17.8416  17.8506  17.8741  17.9144  17.9766  18.0751  18.6517  19.1845
    19.3569  19.4950  19.5711  19.5823  19.5850  19.6302  19.6469  19.7171
    19.8633  19.8732  19.8912  20.0233  20.0245  20.1242  20.2303  20.2814
    20.3302  20.3784  20.3944  20.4829  20.5427  20.5433

          k = 0.1653 0.2754-0.4958 ( 12854 PWs)   bands (ev):

   -52.7463 -52.7458 -52.6828 -52.6824 -52.6594 -52.6590 -52.6351 -52.6347
   -52.6097 -52.6093 -52.6050 -52.6046 -52.5882 -52.5878 -52.5437 -52.5433
   -24.3615 -24.3614 -24.3450 -24.3449 -24.3257 -24.3256 -24.3254 -24.3252
   -24.2799 -24.2798 -24.2688 -24.2687 -24.2067 -24.2067 -24.1360 -24.1356
   -24.0576 -24.0574 -24.0196 -24.0192 -24.0113 -24.0110 -23.9783 -23.9782
   -23.9379 -23.9378 -23.9022 -23.9019 -23.8589 -23.8587 -23.8105 -23.8101
   -23.7974 -23.7974 -23.7406 -23.7405 -23.7325 -23.7321 -23.7152 -23.7149
   -23.7074 -23.7069 -23.6732 -23.6731 -23.6460 -23.6460 -23.6415 -23.6414
    13.0037  13.0042  14.4564  14.4567  15.0079  15.0082  15.6882  15.6884
    15.6982  15.6986  15.7353  15.7355  15.7507  15.7511  15.8337  15.8341
    15.9047  15.9050  16.6868  16.6872  16.7693  16.7695  16.9398  16.9402
    16.9602  16.9606  17.0584  17.0586  17.1955  17.1956  17.4678  17.4679
    17.6116  17.6117  17.6319  17.6320  17.6437  17.6439  17.7036  17.7036
    17.7562  17.7563  17.7633  17.7634  17.8482  17.8485  18.9737  18.9738
    19.4412  19.4413  19.5858  19.5859  19.7027  19.7030  19.7522  19.7523
    19.8197  19.8199  19.8295  19.8296  20.2028  20.2030  20.2584  20.2587
    20.3092  20.3096  20.4135  20.4139  20.5201  20.5204

          k = 0.1653 0.3856 0.3856 ( 12839 PWs)   bands (ev):

   -52.7511 -52.7145 -52.7144 -52.6870 -52.6608 -52.6471 -52.6470 -52.6359
   -52.6080 -52.6071 -52.6070 -52.6038 -52.5829 -52.5658 -52.5658 -52.5390
   -24.3796 -24.3502 -24.3501 -24.3197 -24.3197 -24.3168 -24.3133 -24.3133
   -24.3072 -24.2889 -24.2887 -24.2459 -24.2097 -24.1510 -24.0980 -24.0810
   -24.0809 -24.0733 -24.0733 -24.0387 -24.0357 -24.0357 -24.0299 -23.9767
   -23.9348 -23.8973 -23.8859 -23.8859 -23.8785 -23.8785 -23.8611 -23.7987
   -23.7966 -23.7582 -23.7581 -23.7521 -23.7463 -23.7212 -23.7106 -23.7106
   -23.6956 -23.6880 -23.6879 -23.6845 -23.6443 -23.6443 -23.6302 -23.6268
    12.8920  13.7756  13.7756  14.3615  15.0981  15.3620  15.3620  15.6300
    15.6588  15.8010  15.8010  15.8265  15.8265  15.8284  15.9979  16.0097
    16.1227  16.3492  16.3492  16.6248  16.7255  16.7874  16.8402  16.8403
    16.8723  16.8723  17.0274  17.0506  17.0753  17.1171  17.3702  17.4435
    17.4436  17.4664  17.5415  17.5415  17.6039  17.6039  17.6300  17.6561
    17.6784  17.7164  17.7164  17.8137  17.8364  18.2872  18.2873  18.9488
    19.4604  19.6102  19.7113  19.7113  19.7433  19.7537  19.7537  19.7849
    19.9321  20.0189  20.0275  20.0275  20.0588  20.0589  20.0993  20.0993
    20.2586  20.2987  20.3041  20.3060  20.3980  20.4961

          k = 0.1653 0.3856-0.4958 ( 12846 PWs)   bands (ev):

   -52.7344 -52.7339 -52.7019 -52.7015 -52.6545 -52.6541 -52.6420 -52.6415
   -52.6075 -52.6070 -52.6053 -52.6049 -52.5736 -52.5732 -52.5512 -52.5508
   -24.3533 -24.3532 -24.3308 -24.3306 -24.3180 -24.3177 -24.3097 -24.3094
   -24.3082 -24.3081 -24.2790 -24.2789 -24.1425 -24.1424 -24.1200 -24.1196
   -24.0732 -24.0731 -24.0588 -24.0585 -24.0451 -24.0450 -24.0038 -24.0037
   -23.9313 -23.9312 -23.8887 -23.8886 -23.8696 -23.8694 -23.8399 -23.8398
   -23.7762 -23.7758 -23.7257 -23.7255 -23.7238 -23.7233 -23.7187 -23.7184
   -23.7128 -23.7126 -23.6853 -23.6852 -23.6334 -23.6334 -23.6316 -23.6316
    13.3077  13.3082  14.0693  14.0697  15.2719  15.2722  15.7032  15.7036
    15.7454  15.7457  15.7625  15.7628  15.9609  15.9611  16.0287  16.0289
    16.0848  16.0851  16.6855  16.6859  16.7467  16.7471  16.7655  16.7655
    16.7695  16.7696  16.9357  16.9359  17.2558  17.2559  17.2577  17.2578
    17.4061  17.4063  17.4681  17.4682  17.5174  17.5175  17.5467  17.5468
    17.7188  17.7189  17.7674  17.7676  17.9583  17.9583  18.5827  18.5827
    19.6509  19.6510  19.7466  19.7467  19.8596  19.8598  19.9053  19.9055
    19.9169  19.9170  19.9268  19.9271  20.0112  20.0114  20.1769  20.1772
    20.2000  20.2004  20.3452  20.3456  20.3805  20.3806

          k = 0.1653-0.4958-0.4958 ( 12808 PWs)   bands (ev):

   -52.7195 -52.7192 -52.7191 -52.7187 -52.6487 -52.6484 -52.6483 -52.6479
   -52.6062 -52.6059 -52.6058 -52.6054 -52.5613 -52.5611 -52.5610 -52.5606
   -24.3344 -24.3344 -24.3344 -24.3344 -24.3199 -24.3198 -24.3197 -24.3194
   -24.2932 -24.2931 -24.2930 -24.2929 -24.0932 -24.0930 -24.0929 -24.0926
   -24.0734 -24.0734 -24.0733 -24.0733 -24.0683 -24.0683 -24.0683 -24.0683
   -23.8849 -23.8848 -23.8848 -23.8848 -23.8793 -23.8793 -23.8793 -23.8793
   -23.7470 -23.7468 -23.7466 -23.7463 -23.7161 -23.7160 -23.7159 -23.7158
   -23.7014 -23.7013 -23.7013 -23.7011 -23.6284 -23.6284 -23.6283 -23.6283
    13.6741  13.6742  13.6746  13.6747  15.5334  15.5335  15.5337  15.5338
    15.7750  15.7751  15.7753  15.7754  16.0932  16.0933  16.0934  16.0935
    16.3800  16.3802  16.3804  16.3806  16.6829  16.6830  16.6831  16.6832
    16.8427  16.8428  16.8429  16.8430  17.2493  17.2495  17.2495  17.2496
    17.3655  17.3655  17.3656  17.3656  17.4607  17.4608  17.4608  17.4608
    17.7198  17.7199  17.7200  17.7201  18.2367  18.2367  18.2368  18.2368
    19.8039  19.8040  19.8040  19.8041  19.9315  19.9317  19.9318  19.9319
    20.0633  20.0635  20.0635  20.0637  20.0637  20.0639  20.0640  20.0641
    20.0868  20.0868  20.0869  20.0869  20.3257  20.3260

          k = 0.2754 0.2754 0.2754 ( 12857 PWs)   bands (ev):

   -52.7695 -52.6954 -52.6954 -52.6953 -52.6553 -52.6553 -52.6552 -52.6315
   -52.6066 -52.6022 -52.6022 -52.6021 -52.5817 -52.5817 -52.5816 -52.5260
   -24.3943 -24.3942 -24.3942 -24.3222 -24.3222 -24.3221 -24.2954 -24.2922
   -24.2922 -24.2922 -24.2285 -24.2285 -24.1920 -24.1920 -24.1144 -24.1144
   -24.1144 -24.0666 -24.0664 -24.0664 -24.0210 -24.0087 -24.0087 -24.0087
   -23.8588 -23.8508 -23.8508 -23.8508 -23.8476 -23.8476 -23.8476 -23.8469
   -23.8469 -23.7938 -23.7937 -23.7937 -23.7403 -23.7147 -23.7147 -23.7146
   -23.6785 -23.6785 -23.6784 -23.6553 -23.6552 -23.6552 -23.6436 -23.6436
    12.4418  14.2344  14.2344  14.2345  14.9778  14.9778  14.9778  15.5122
    15.5122  15.5410  15.5410  15.5410  16.0199  16.0199  16.0199  16.1868
    16.3522  16.3523  16.3523  16.5498  16.6560  16.6560  16.8590  16.8590
    16.8590  17.0746  17.0746  17.0791  17.0792  17.0792  17.4351  17.4352
    17.4352  17.6361  17.6361  17.6362  17.7309  17.7310  17.7310  17.8254
    17.8254  17.9535  17.9535  17.9535  18.1071  18.1072  18.1072  19.1826
    19.3414  19.4754  19.4755  19.4755  19.7235  19.7235  19.7235  19.9049
    19.9049  19.9049  20.1059  20.1059  20.1612  20.1612  20.1613  20.2941
    20.2942  20.2942  20.4740  20.4741  20.4742  20.4785

          k = 0.2754 0.2754 0.3856 ( 12848 PWs)   bands (ev):

   -52.7557 -52.7178 -52.6877 -52.6876 -52.6671 -52.6670 -52.6505 -52.6382
   -52.6045 -52.6024 -52.5950 -52.5950 -52.5849 -52.5848 -52.5636 -52.5355
   -24.3725 -24.3724 -24.3575 -24.3155 -24.3153 -24.3152 -24.3020 -24.2910
   -24.2738 -24.2737 -24.2571 -24.2549 -24.1989 -24.1649 -24.1649 -24.1496
   -24.1166 -24.0712 -24.0712 -24.0542 -24.0504 -24.0380 -24.0380 -23.9772
   -23.9186 -23.8900 -23.8574 -23.8571 -23.8292 -23.8291 -23.8079 -23.8079
   -23.8011 -23.8010 -23.7866 -23.7462 -23.7409 -23.7408 -23.7245 -23.7116
   -23.6895 -23.6702 -23.6684 -23.6683 -23.6589 -23.6559 -23.6559 -23.6412
    12.7890  13.7160  14.4526  14.4526  14.8524  14.8524  15.3057  15.6674
    15.7048  15.7149  15.7149  15.7902  16.0211  16.0211  16.0231  16.0974
    16.1444  16.1772  16.5245  16.5245  16.6827  16.7962  16.8840  16.8955
    16.9259  16.9670  16.9670  17.1575  17.1575  17.2512  17.2747  17.2747
    17.4399  17.4399  17.5172  17.5173  17.5578  17.5764  17.5938  17.5968
    17.6802  17.6802  17.6975  17.7513  17.8176  17.8177  18.2739  18.9234
    19.4489  19.6361  19.6822  19.6822  19.7871  19.7871  19.8408  19.8408
    19.9724  20.0169  20.0297  20.0650  20.0651  20.0804  20.2241  20.2263
    20.3942  20.3949  20.4783  20.4784  20.4803  20.4837

          k = 0.2754 0.2754-0.4958 ( 12848 PWs)   bands (ev):

   -52.7384 -52.7380 -52.6783 -52.6782 -52.6779 -52.6777 -52.6449 -52.6444
   -52.6034 -52.6029 -52.5895 -52.5895 -52.5891 -52.5889 -52.5483 -52.5479
   -24.3443 -24.3442 -24.3441 -24.3441 -24.3109 -24.3104 -24.3086 -24.3083
   -24.2788 -24.2787 -24.2200 -24.2199 -24.2198 -24.2198 -24.1614 -24.1610
   -24.1026 -24.1024 -24.0603 -24.0603 -24.0600 -24.0600 -23.9839 -23.9839
   -23.9336 -23.9334 -23.8604 -23.8601 -23.8129 -23.8129 -23.8126 -23.8126
   -23.7721 -23.7720 -23.7719 -23.7719 -23.7339 -23.7335 -23.7146 -23.7144
   -23.7050 -23.7046 -23.6605 -23.6605 -23.6605 -23.6604 -23.6464 -23.6464
    13.2225  13.2229  14.6726  14.6726  14.6730  14.6730  15.7060  15.7064
    15.8651  15.8655  15.8867  15.8867  15.8869  15.8869  15.8960  15.8963
    16.0388  16.0391  16.7331  16.7334  16.8294  16.8296  16.8575  16.8575
    16.8579  16.8580  17.1127  17.1127  17.1129  17.1129  17.2151  17.2152
    17.4313  17.4315  17.5211  17.5212  17.5212  17.5214  17.5659  17.5660
    17.5660  17.5661  17.6159  17.6160  17.6615  17.6618  18.5543  18.5544
    19.7349  19.7350  19.8085  19.8086  19.8086  19.8086  19.8099  19.8101
    19.8910  19.8910  19.8912  19.8913  20.2501  20.2504  20.3056  20.3060
    20.3607  20.3610  20.3673  20.3677  20.4839  20.4843

          k = 0.2754 0.3856 0.3856 ( 12853 PWs)   bands (ev):

   -52.7429 -52.7082 -52.7081 -52.6822 -52.6804 -52.6614 -52.6613 -52.6464
   -52.6008 -52.5962 -52.5961 -52.5875 -52.5844 -52.5687 -52.5686 -52.5439
   -24.3557 -24.3393 -24.3392 -24.3138 -24.3078 -24.3078 -24.2947 -24.2789
   -24.2788 -24.2675 -24.2606 -24.2209 -24.1994 -24.1947 -24.1625 -24.1206
   -24.1205 -24.1045 -24.1044 -24.0958 -24.0851 -24.0851 -24.0753 -23.9772
   -23.9326 -23.8472 -23.8472 -23.8345 -23.8321 -23.8321 -23.8061 -23.7973
   -23.7760 -23.7717 -23.7651 -23.7548 -23.7547 -23.7274 -23.7273 -23.7189
   -23.6864 -23.6863 -23.6844 -23.6743 -23.6554 -23.6554 -23.6524 -23.6462
    13.1207  13.9862  13.9862  14.5937  14.7053  15.1765  15.1765  15.7984
    15.8569  15.9057  15.9360  15.9681  15.9681  16.0302  16.0302  16.2301
    16.2626  16.3420  16.3420  16.4671  16.7589  16.8456  16.8475  16.8919
    16.8919  16.9478  16.9478  17.0337  17.0557  17.1432  17.1729  17.3511
    17.3511  17.3514  17.3557  17.3557  17.3629  17.3630  17.3914  17.5029
    17.5029  17.5354  17.5626  17.5777  17.6459  17.9197  17.9198  18.5103
    19.7481  19.8074  19.8075  19.8311  19.8619  19.9459  20.0175  20.0186
    20.0186  20.0504  20.0504  20.0693  20.1409  20.1409  20.2092  20.3342
    20.3593  20.3594  20.3649  20.3972  20.4635  20.4746

          k = 0.2754 0.3856-0.4958 ( 12862 PWs)   bands (ev):

   -52.7271 -52.7266 -52.6963 -52.6959 -52.6717 -52.6713 -52.6545 -52.6541
   -52.5982 -52.5978 -52.5914 -52.5910 -52.5758 -52.5754 -52.5552 -52.5548
   -24.3320 -24.3319 -24.3223 -24.3221 -24.2991 -24.2987 -24.2902 -24.2901
   -24.2863 -24.2861 -24.2389 -24.2387 -24.1634 -24.1631 -24.1630 -24.1629
   -24.1307 -24.1305 -24.1047 -24.1044 -24.1011 -24.1009 -24.0406 -24.0405
   -23.8890 -23.8889 -23.8329 -23.8327 -23.8157 -23.8155 -23.8075 -23.8074
   -23.7723 -23.7720 -23.7489 -23.7488 -23.7248 -23.7244 -23.7197 -23.7196
   -23.7154 -23.7150 -23.6811 -23.6810 -23.6526 -23.6526 -23.6486 -23.6485
    13.5296  13.5301  14.2929  14.2933  14.9665  14.9668  15.5606  15.5610
    15.9298  15.9301  15.9648  15.9650  16.1348  16.1351  16.1481  16.1482
    16.2064  16.2066  16.6801  16.6805  16.7068  16.7072  16.8013  16.8013
    16.8179  16.8182  17.0144  17.0147  17.0574  17.0575  17.1884  17.1886
    17.2509  17.2511  17.2752  17.2754  17.3914  17.3914  17.4468  17.4468
    17.4761  17.4762  17.5598  17.5600  17.6184  17.6184  18.1597  18.1597
    19.9329  19.9332  19.9358  19.9358  19.9712  19.9714  19.9952  19.9955
    20.0210  20.0210  20.0679  20.0680  20.2362  20.2365  20.2366  20.2370
    20.3050  20.3052  20.3145  20.3149  20.3985  20.3989

          k = 0.2754-0.4958-0.4958 ( 12832 PWs)   bands (ev):

   -52.7129 -52.7127 -52.7126 -52.7122 -52.6638 -52.6635 -52.6634 -52.6630
   -52.5944 -52.5942 -52.5940 -52.5937 -52.5645 -52.5643 -52.5641 -52.5638
   -24.3117 -24.3117 -24.3117 -24.3117 -24.3032 -24.3031 -24.3030 -24.3028
   -24.2620 -24.2619 -24.2618 -24.2617 -24.1413 -24.1411 -24.1410 -24.1407
   -24.1292 -24.1292 -24.1292 -24.1292 -24.1018 -24.1017 -24.1017 -24.1017
   -23.8467 -23.8467 -23.8466 -23.8465 -23.8203 -23.8202 -23.8202 -23.8202
   -23.7390 -23.7389 -23.7387 -23.7384 -23.7312 -23.7311 -23.7310 -23.7309
   -23.7048 -23.7046 -23.7046 -23.7044 -23.6492 -23.6492 -23.6492 -23.6492
    13.8985  13.8986  13.8989  13.8991  15.2895  15.2896  15.2898  15.2899
    15.9699  15.9700  15.9702  15.9703  16.3297  16.3297  16.3299  16.3299
    16.4171  16.4173  16.4175  16.4177  16.6343  16.6344  16.6346  16.6347
    16.9184  16.9185  16.9185  16.9186  17.0886  17.0888  17.0888  17.0889
    17.2682  17.2682  17.2683  17.2683  17.2968  17.2968  17.2969  17.2969
    17.4947  17.4948  17.4948  17.4949  17.8312  17.8312  17.8313  17.8313
    20.0074  20.0076  20.0077  20.0079  20.1193  20.1195  20.1197  20.1199
    20.1208  20.1209  20.1209  20.1210  20.1713  20.1715  20.1715  20.1716
    20.3074  20.3076  20.3078  20.3080  20.4159  20.4160

          k = 0.3856 0.3856 0.3856 ( 12851 PWs)   bands (ev):

   -52.7312 -52.6993 -52.6993 -52.6991 -52.6753 -52.6753 -52.6751 -52.6568
   -52.5949 -52.5869 -52.5869 -52.5867 -52.5732 -52.5732 -52.5730 -52.5512
   -24.3207 -24.3206 -24.3206 -24.2983 -24.2983 -24.2982 -24.2767 -24.2370
   -24.2370 -24.2369 -24.2363 -24.2363 -24.2226 -24.2226 -24.1491 -24.1490
   -24.1490 -24.1453 -24.1453 -24.1453 -24.1264 -24.1264 -24.1264 -24.0298
   -23.8889 -23.8099 -23.8099 -23.8099 -23.7938 -23.7938 -23.7938 -23.7773
   -23.7773 -23.7556 -23.7555 -23.7555 -23.7494 -23.7494 -23.7494 -23.7224
   -23.6851 -23.6849 -23.6849 -23.6746 -23.6746 -23.6691 -23.6691 -23.6691
    13.4451  14.2745  14.2745  14.2745  14.9200  14.9200  14.9200  15.6878
    16.0159  16.0159  16.1268  16.1268  16.1268  16.3062  16.3062  16.3062
    16.3231  16.3231  16.3231  16.4316  16.8173  16.8173  16.9069  16.9069
    16.9770  16.9770  16.9770  17.0047  17.0048  17.0048  17.0900  17.0900
    17.0900  17.2389  17.2389  17.2390  17.2566  17.2566  17.2566  17.3082
    17.3082  17.3083  17.4722  17.4722  17.5719  17.5720  17.5720  18.0958
    19.9366  19.9367  19.9367  20.0772  20.1140  20.1140  20.1141  20.1359
    20.1359  20.1504  20.1504  20.1504  20.1814  20.1814  20.1814  20.3604
    20.3604  20.3920  20.3921  20.3921  20.4118  20.4118

          k = 0.3856 0.3856-0.4958 ( 12834 PWs)   bands (ev):

   -52.7166 -52.7162 -52.6883 -52.6883 -52.6879 -52.6877 -52.6668 -52.6664
   -52.5905 -52.5901 -52.5794 -52.5794 -52.5790 -52.5788 -52.5612 -52.5608
   -24.3029 -24.3028 -24.3028 -24.3027 -24.2760 -24.2756 -24.2718 -24.2717
   -24.2564 -24.2562 -24.1965 -24.1961 -24.1911 -24.1910 -24.1908 -24.1908
   -24.1768 -24.1767 -24.1516 -24.1516 -24.1514 -24.1514 -24.0874 -24.0873
   -23.8479 -23.8478 -23.7871 -23.7869 -23.7772 -23.7771 -23.7770 -23.7769
   -23.7675 -23.7675 -23.7673 -23.7672 -23.7326 -23.7324 -23.7271 -23.7267
   -23.7116 -23.7112 -23.6801 -23.6800 -23.6800 -23.6800 -23.6693 -23.6693
    13.8408  13.8412  14.6029  14.6030  14.6034  14.6034  15.3067  15.3071
    16.1522  16.1526  16.2250  16.2253  16.2462  16.2462  16.2464  16.2464
    16.4086  16.4089  16.6550  16.6550  16.6554  16.6554  16.8442  16.8443
    16.8933  16.8936  16.9618  16.9621  16.9799  16.9800  17.1012  17.1013
    17.1015  17.1015  17.2281  17.2281  17.2283  17.2284  17.2850  17.2850
    17.2851  17.2851  17.3518  17.3520  17.3675  17.3678  17.7571  17.7571
    20.0424  20.0426  20.0690  20.0690  20.0693  20.0693  20.1894  20.1894
    20.1894  20.1895  20.2513  20.2517  20.2734  20.2737  20.3287  20.3290
    20.3800  20.3803  20.3827  20.3828  20.3831  20.3831

          k = 0.3856-0.4958-0.4958 ( 12840 PWs)   bands (ev):

   -52.7036 -52.7033 -52.7032 -52.7028 -52.6784 -52.6781 -52.6780 -52.6776
   -52.5843 -52.5841 -52.5839 -52.5836 -52.5694 -52.5691 -52.5690 -52.5686
   -24.2787 -24.2787 -24.2786 -24.2786 -24.2748 -24.2746 -24.2745 -24.2743
   -24.2234 -24.2233 -24.2232 -24.2231 -24.1907 -24.1905 -24.1904 -24.1901
   -24.1857 -24.1857 -24.1857 -24.1857 -24.1391 -24.1391 -24.1390 -24.1390
   -23.8103 -23.8102 -23.8102 -23.8101 -23.7665 -23.7665 -23.7665 -23.7665
   -23.7518 -23.7517 -23.7517 -23.7516 -23.7292 -23.7291 -23.7290 -23.7287
   -23.7110 -23.7109 -23.7108 -23.7106 -23.6798 -23.6798 -23.6798 -23.6798
    14.2121  14.2123  14.2126  14.2127  14.9617  14.9619  14.9622  14.9623
    16.2362  16.2364  16.2365  16.2367  16.4670  16.4672  16.4674  16.4675
    16.5724  16.5725  16.5727  16.5728  16.5809  16.5810  16.5812  16.5813
    17.0079  17.0079  17.0080  17.0080  17.0243  17.0244  17.0244  17.0244
    17.0353  17.0355  17.0355  17.0356  17.2066  17.2067  17.2067  17.2068
    17.2733  17.2734  17.2735  17.2736  17.4291  17.4292  17.4292  17.4292
    20.1108  20.1109  20.1110  20.1112  20.1793  20.1796  20.1797  20.1799
    20.2770  20.2773  20.2774  20.2777  20.3488  20.3489  20.3490  20.3490
    20.3636  20.3638  20.3639  20.3642  20.3926  20.3927

          k =-0.4958-0.4958-0.4958 ( 12856 PWs)   bands (ev):

   -52.6920 -52.6917 -52.6917 -52.6916 -52.6915 -52.6914 -52.6914 -52.6908
   -52.5761 -52.5759 -52.5759 -52.5757 -52.5756 -52.5755 -52.5755 -52.5749
   -24.2366 -24.2366 -24.2366 -24.2365 -24.2365 -24.2365 -24.2365 -24.2363
   -24.2363 -24.2363 -24.2362 -24.2361 -24.2361 -24.2359 -24.2359 -24.2359
   -24.1811 -24.1810 -24.1810 -24.1809 -24.1809 -24.1808 -24.1808 -24.1807
   -23.7786 -23.7785 -23.7785 -23.7784 -23.7784 -23.7783 -23.7783 -23.7782
   -23.7194 -23.7194 -23.7193 -23.7193 -23.7192 -23.7192 -23.7192 -23.7191
   -23.7190 -23.7190 -23.7189 -23.7189 -23.7189 -23.7187 -23.7187 -23.7187
    14.5829  14.5830  14.5830  14.5831  14.5833  14.5834  14.5834  14.5835
    16.5236  16.5236  16.5237  16.5237  16.5237  16.5237  16.5238  16.5239
    16.5239  16.5239  16.5240  16.5240  16.5241  16.5241  16.5243  16.5243
    17.0814  17.0815  17.0815  17.0815  17.0815  17.0817  17.0817  17.0817
    17.1065  17.1066  17.1066  17.1066  17.1067  17.1067  17.1067  17.1067
    17.1068  17.1068  17.1069  17.1069  17.1069  17.1071  17.1071  17.1071
    20.2336  20.2337  20.2338  20.2338  20.2339  20.2339  20.2340  20.2340
    20.2340  20.2341  20.2341  20.2341  20.2342  20.2342  20.2345  20.2345
    20.5928  20.5928  20.5928  20.5929  20.5931  20.5932

 ------ SPIN DOWN ----------


          k = 0.0551 0.0551 0.0551 ( 12923 PWs)   bands (ev):

   -52.8162 -52.6554 -52.6554 -52.6554 -52.6275 -52.6275 -52.6274 -52.6270
   -52.6270 -52.6269 -52.6244 -52.6244 -52.6243 -52.6120 -52.6103 -52.4934
   -24.4776 -24.4776 -24.4776 -24.4732 -24.4732 -24.4732 -24.2120 -24.2120
   -24.2028 -24.1163 -24.1119 -24.1119 -24.1119 -24.0796 -24.0796 -24.0611
   -24.0611 -24.0611 -24.0045 -24.0045 -23.9673 -23.9309 -23.9309 -23.9309
   -23.9148 -23.9148 -23.9148 -23.8922 -23.8922 -23.8922 -23.8873 -23.8873
   -23.8873 -23.8786 -23.8785 -23.8785 -23.8636 -23.8636 -23.8635 -23.6259
   -23.6259 -23.6258 -23.6248 -23.6213 -23.6212 -23.6212 -23.6146 -23.6146
    11.3040  14.7451  14.7451  14.7451  14.7672  14.7672  14.7672  14.9060
    14.9060  14.9179  14.9179  14.9179  15.3584  15.3584  15.3584  16.6319
    16.7035  16.7035  16.7035  16.7189  16.7189  16.7189  16.7325  16.7325
    16.8939  16.8939  16.9493  17.0965  17.0966  17.0966  17.5405  17.5405
    17.5405  18.1971  18.1971  18.2508  18.5322  18.5323  18.5323  18.6470
    18.6470  18.6470  18.7443  18.7443  18.7443  18.8509  18.8509  18.8509
    19.7148  19.7148  19.7148  19.7551  19.7551  19.7551  19.9771  19.9771
    19.9771  19.9987  19.9987  19.9987  20.1943  20.1943  20.1943  20.2157
    20.2157  20.2465  20.2465  20.2465  20.5529  20.5530

          k = 0.0551 0.0551 0.1653 ( 12908 PWs)   bands (ev):

   -52.8105 -52.6841 -52.6541 -52.6540 -52.6306 -52.6306 -52.6265 -52.6265
   -52.6264 -52.6235 -52.6230 -52.6230 -52.6129 -52.6111 -52.6000 -52.4975
   -24.4655 -24.4655 -24.4643 -24.4604 -24.4527 -24.4527 -24.2181 -24.2027
   -24.1882 -24.1712 -24.1564 -24.1564 -24.1539 -24.1524 -24.1076 -24.1076
   -24.0549 -24.0134 -24.0014 -23.9828 -23.9659 -23.9309 -23.9305 -23.9305
   -23.9105 -23.9022 -23.8977 -23.8977 -23.8964 -23.8838 -23.8838 -23.8791
   -23.8791 -23.8747 -23.8746 -23.8275 -23.8250 -23.8250 -23.8134 -23.6481
   -23.6393 -23.6393 -23.6376 -23.6338 -23.6257 -23.6257 -23.6231 -23.6186
    11.4375  14.3569  14.7706  14.7706  14.8384  14.8384  14.8527  14.8736
    14.9616  14.9616  14.9745  14.9811  15.3921  15.3921  15.6273  16.5086
    16.6276  16.6487  16.6627  16.6839  16.6978  16.7593  16.7593  16.7730
    16.8052  16.8052  17.0559  17.0559  17.1057  17.1159  17.4417  17.4417
    17.9538  18.1662  18.1897  18.2918  18.2918  18.3204  18.3687  18.4908
    18.4908  18.5339  18.8411  18.8411  18.9726  18.9726  19.0060  19.1194
    19.2136  19.2136  19.4393  19.4750  19.4751  19.4894  19.6040  19.9768
    19.9768  20.1145  20.1145  20.1249  20.2070  20.2070  20.2179  20.2452
    20.2520  20.2540  20.2540  20.2827  20.5565  20.5826

          k = 0.0551 0.0551 0.2754 ( 12849 PWs)   bands (ev):

   -52.7994 -52.7122 -52.6515 -52.6514 -52.6346 -52.6346 -52.6257 -52.6256
   -52.6247 -52.6225 -52.6224 -52.6219 -52.6147 -52.6127 -52.5750 -52.5055
   -24.4377 -24.4375 -24.4375 -24.4348 -24.4165 -24.4165 -24.2335 -24.2252
   -24.2207 -24.2180 -24.2179 -24.1838 -24.1826 -24.1724 -24.1724 -24.1667
   -24.0330 -24.0307 -24.0152 -24.0041 -23.9352 -23.9273 -23.9273 -23.9203
   -23.9129 -23.9039 -23.9039 -23.8812 -23.8812 -23.8789 -23.8789 -23.8612
   -23.8492 -23.8240 -23.8239 -23.7793 -23.7772 -23.7772 -23.7664 -23.6867
   -23.6612 -23.6612 -23.6606 -23.6584 -23.6400 -23.6391 -23.6390 -23.6328
    11.6995  13.7410  14.8354  14.8354  14.9535  14.9535  15.0179  15.0179
    15.0596  15.0777  15.1103  15.1207  15.4150  15.4150  15.7139  16.2566
    16.3359  16.3947  16.5725  16.6334  16.6496  16.6612  16.8839  16.8839
    16.9598  16.9598  17.0651  17.0651  17.3782  17.3811  17.3812  17.4000
    17.9666  17.9666  18.1443  18.1455  18.1456  18.1782  18.1787  18.2525
    18.4232  18.6264  18.6265  18.6507  18.8364  18.8365  19.0616  19.1001
    19.1334  19.1334  19.1753  19.1753  19.1798  19.3185  19.4438  19.9472
    19.9896  19.9896  20.1078  20.1078  20.2627  20.2807  20.3219  20.3255
    20.3255  20.5326  20.5344  20.5580  20.5632  20.6018

          k = 0.0551 0.0551 0.3856 ( 12857 PWs)   bands (ev):

   -52.7832 -52.7387 -52.6479 -52.6479 -52.6391 -52.6391 -52.6245 -52.6245
   -52.6227 -52.6226 -52.6224 -52.6198 -52.6170 -52.6149 -52.5526 -52.5175
   -24.3992 -24.3975 -24.3957 -24.3957 -24.3675 -24.3675 -24.2947 -24.2912
   -24.2823 -24.2823 -24.2414 -24.2414 -24.2203 -24.2029 -24.1565 -24.1380
   -24.0796 -24.0613 -24.0033 -23.9850 -23.9453 -23.9356 -23.9226 -23.9226
   -23.9104 -23.9104 -23.8798 -23.8798 -23.8788 -23.8788 -23.8667 -23.7975
   -23.7905 -23.7743 -23.7743 -23.7382 -23.7354 -23.7318 -23.7317 -23.7238
   -23.6946 -23.6945 -23.6916 -23.6915 -23.6648 -23.6616 -23.6616 -23.6559
    12.0803  13.1284  14.9220  14.9220  15.0397  15.0397  15.0995  15.0995
    15.3034  15.3110  15.3486  15.3620  15.3704  15.3704  15.6514  15.8902
    16.0444  16.0576  16.5586  16.5797  16.6095  16.6193  17.0719  17.0720
    17.1758  17.1759  17.2211  17.2211  17.4455  17.4456  17.6679  17.6679
    17.7239  17.7452  17.8005  17.8005  18.0675  18.0676  18.1343  18.1705
    18.1796  18.1868  18.2510  18.2510  18.5617  18.5938  18.5967  18.9435
    19.0014  19.4039  19.4039  19.4388  19.4388  19.6779  19.6908  19.8143
    19.8246  19.8246  19.9439  19.9439  20.3237  20.3357  20.4208  20.4670
    20.4707  20.4743  20.5722  20.5923  20.5987  20.6076

          k = 0.0551 0.0551-0.4958 ( 12880 PWs)   bands (ev):

   -52.7629 -52.7626 -52.6438 -52.6438 -52.6435 -52.6434 -52.6236 -52.6236
   -52.6233 -52.6233 -52.6200 -52.6195 -52.6174 -52.6172 -52.5335 -52.5331
   -24.3504 -24.3501 -24.3500 -24.3497 -24.3431 -24.3430 -24.3430 -24.3430
   -24.3080 -24.3080 -24.3079 -24.3079 -24.2150 -24.2148 -24.1215 -24.1212
   -24.1028 -24.1026 -23.9741 -23.9738 -23.9609 -23.9606 -23.9170 -23.9170
   -23.9167 -23.9167 -23.8792 -23.8792 -23.8789 -23.8789 -23.7996 -23.7994
   -23.7416 -23.7412 -23.7386 -23.7383 -23.7296 -23.7295 -23.7295 -23.7295
   -23.6972 -23.6968 -23.6928 -23.6927 -23.6927 -23.6927 -23.6866 -23.6864
    12.5639  12.5644  15.0018  15.0018  15.0020  15.0020  15.2516  15.2516
    15.2518  15.2518  15.4956  15.4959  15.5725  15.5729  15.6932  15.6937
    15.6979  15.6982  16.5748  16.5751  16.5858  16.5861  17.3107  17.3108
    17.3109  17.3109  17.4126  17.4126  17.4128  17.4128  17.6273  17.6274
    17.6276  17.6276  17.7954  17.7954  17.7956  17.7957  18.1328  18.1329
    18.1430  18.1432  18.1467  18.1468  18.1723  18.1726  18.7359  18.7361
    19.3682  19.3685  19.6261  19.6261  19.6262  19.6262  19.7168  19.7168
    19.7168  19.7169  20.0708  20.0710  20.2155  20.2157  20.3943  20.3946
    20.4015  20.4018  20.5432  20.5436  20.5822  20.5826

          k = 0.0551 0.1653 0.1653 ( 12881 PWs)   bands (ev):

   -52.8050 -52.6819 -52.6819 -52.6527 -52.6387 -52.6296 -52.6296 -52.6260
   -52.6222 -52.6222 -52.6167 -52.6142 -52.6117 -52.6004 -52.6003 -52.5014
   -24.4617 -24.4525 -24.4525 -24.4409 -24.4409 -24.4238 -24.2287 -24.2061
   -24.1971 -24.1946 -24.1945 -24.1847 -24.1758 -24.1653 -24.1386 -24.0704
   -24.0492 -24.0492 -23.9969 -23.9816 -23.9815 -23.9399 -23.9248 -23.9247
   -23.9121 -23.9090 -23.9089 -23.9013 -23.8926 -23.8926 -23.8860 -23.8712
   -23.8681 -23.8416 -23.8292 -23.8291 -23.7961 -23.7774 -23.7774 -23.6795
   -23.6610 -23.6484 -23.6483 -23.6372 -23.6372 -23.6303 -23.6209 -23.6151
    11.5689  14.4187  14.4188  14.7392  14.8793  14.8793  14.9436  14.9436
    14.9468  15.0142  15.0422  15.0551  15.4381  15.6632  15.6632  16.3957
    16.5219  16.6601  16.6602  16.7192  16.7364  16.7365  16.7774  16.7774
    16.7839  16.8537  16.9212  16.9961  17.0926  17.1293  17.3322  17.7686
    17.7686  18.0950  18.1420  18.1420  18.1700  18.1926  18.3503  18.4363
    18.7366  18.7367  18.7810  18.8060  18.8061  18.9333  19.0466  19.0466
    19.0495  19.1707  19.1707  19.2214  19.2214  19.3230  19.7018  19.7018
    19.9822  20.1099  20.1414  20.1414  20.1802  20.2115  20.2116  20.2222
    20.2255  20.4176  20.5200  20.5270  20.5270  20.5644

          k = 0.0551 0.1653 0.2754 ( 12851 PWs)   bands (ev):

   -52.7941 -52.7092 -52.6777 -52.6502 -52.6473 -52.6335 -52.6277 -52.6251
   -52.6217 -52.6208 -52.6164 -52.6128 -52.6116 -52.6011 -52.5761 -52.5091
   -24.4425 -24.4272 -24.4263 -24.4181 -24.4072 -24.3805 -24.2516 -24.2504
   -24.2391 -24.2311 -24.2303 -24.2216 -24.1891 -24.1791 -24.1365 -24.1163
   -24.0525 -24.0308 -23.9899 -23.9839 -23.9755 -23.9737 -23.9427 -23.9299
   -23.9269 -23.9171 -23.9090 -23.8906 -23.8896 -23.8726 -23.8600 -23.8452
   -23.8321 -23.8199 -23.8001 -23.7821 -23.7590 -23.7337 -23.7333 -23.7251
   -23.6909 -23.6667 -23.6664 -23.6600 -23.6479 -23.6465 -23.6252 -23.6208
    11.8269  13.8223  14.5210  14.7317  14.9445  15.0576  15.0874  15.0881
    15.0929  15.1447  15.1704  15.1984  15.4836  15.6754  15.7592  16.2675
    16.2812  16.3658  16.6442  16.6965  16.7267  16.7298  16.7470  16.8513
    16.8771  16.9166  16.9677  17.1042  17.2391  17.2674  17.3320  17.6334
    17.8473  17.9627  17.9635  18.0282  18.0482  18.0943  18.1466  18.2829
    18.3766  18.5178  18.5841  18.6686  18.7448  18.8091  18.8167  18.9239
    19.0293  19.1438  19.1700  19.2277  19.2565  19.4343  19.4362  19.8286
    19.9744  20.0200  20.0522  20.1125  20.1500  20.1945  20.2428  20.2781
    20.4528  20.5112  20.5144  20.5431  20.5898  20.5948

          k = 0.0551 0.1653 0.3856 ( 12847 PWs)   bands (ev):

   -52.7783 -52.7350 -52.6717 -52.6560 -52.6466 -52.6379 -52.6251 -52.6240
   -52.6220 -52.6192 -52.6188 -52.6146 -52.6075 -52.6024 -52.5545 -52.5207
   -24.4091 -24.3905 -24.3873 -24.3854 -24.3617 -24.3248 -24.3101 -24.2983
   -24.2892 -24.2852 -24.2478 -24.2455 -24.2383 -24.1886 -24.1522 -24.1028
   -24.0766 -24.0234 -24.0205 -23.9751 -23.9662 -23.9584 -23.9414 -23.9398
   -23.9308 -23.9256 -23.9148 -23.8905 -23.8900 -23.8504 -23.8366 -23.8200
   -23.7883 -23.7816 -23.7725 -23.7592 -23.7393 -23.7279 -23.7227 -23.6943
   -23.6941 -23.6940 -23.6936 -23.6912 -23.6707 -23.6662 -23.6389 -23.6366
    12.2011  13.2267  14.6259  14.7269  15.0298  15.1285  15.2023  15.2663
    15.3513  15.3792  15.3937  15.4219  15.4599  15.5993  15.7045  15.9360
    16.0487  16.0777  16.5987  16.6500  16.6506  16.6768  16.9425  17.0161
    17.0344  17.0657  17.0945  17.2353  17.3444  17.4957  17.5730  17.6350
    17.7054  17.7433  17.7841  17.8231  17.9726  17.9813  18.0081  18.0162
    18.0649  18.1203  18.1448  18.2841  18.3728  18.3731  18.7587  19.1746
    19.1904  19.3688  19.3733  19.4470  19.4531  19.4752  19.6684  19.7521
    19.7611  19.8589  19.9475  19.9990  20.1488  20.2681  20.2992  20.3790
    20.4117  20.4371  20.4457  20.5237  20.5859  20.5887

          k = 0.0551 0.1653-0.4958 ( 12868 PWs)   bands (ev):

   -52.7586 -52.7582 -52.6645 -52.6641 -52.6426 -52.6422 -52.6230 -52.6227
   -52.6224 -52.6220 -52.6168 -52.6166 -52.6047 -52.6044 -52.5361 -52.5357
   -24.3639 -24.3638 -24.3449 -24.3445 -24.3440 -24.3436 -24.3392 -24.3391
   -24.3072 -24.3072 -24.2597 -24.2597 -24.2459 -24.2458 -24.1178 -24.1175
   -24.0640 -24.0639 -23.9908 -23.9905 -23.9550 -23.9546 -23.9543 -23.9541
   -23.9337 -23.9334 -23.8903 -23.8901 -23.8461 -23.8460 -23.8429 -23.8425
   -23.7713 -23.7713 -23.7371 -23.7368 -23.7300 -23.7297 -23.7224 -23.7224
   -23.7019 -23.7016 -23.6912 -23.6912 -23.6621 -23.6621 -23.6616 -23.6615
    12.6753  12.6758  14.6976  14.6979  15.1039  15.1041  15.3512  15.3514
    15.4467  15.4469  15.5495  15.5498  15.6370  15.6374  15.7237  15.7241
    15.7416  15.7419  16.6109  16.6112  16.6395  16.6398  17.1878  17.1880
    17.2042  17.2045  17.2479  17.2480  17.2981  17.2984  17.6714  17.6715
    17.7076  17.7077  17.7757  17.7759  17.8943  17.8945  17.9491  17.9492
    17.9611  17.9612  17.9903  17.9904  18.0950  18.0952  18.9600  18.9602
    19.4753  19.4755  19.5134  19.5134  19.6644  19.6644  19.7223  19.7223
    19.7481  19.7482  19.7684  19.7685  20.1337  20.1339  20.3524  20.3527
    20.3703  20.3706  20.5058  20.5062  20.5838  20.5842

          k = 0.0551 0.2754 0.2754 ( 12854 PWs)   bands (ev):

   -52.7838 -52.7034 -52.7034 -52.6603 -52.6477 -52.6315 -52.6315 -52.6241
   -52.6205 -52.6204 -52.6190 -52.6136 -52.6020 -52.5785 -52.5785 -52.5163
   -24.4321 -24.4044 -24.4044 -24.3894 -24.3893 -24.3306 -24.2742 -24.2735
   -24.2735 -24.2591 -24.2569 -24.2547 -24.2202 -24.1624 -24.1002 -24.0537
   -24.0518 -24.0518 -24.0220 -24.0220 -23.9826 -23.9565 -23.9499 -23.9411
   -23.9411 -23.9215 -23.9215 -23.9077 -23.9077 -23.9002 -23.8405 -23.8086
   -23.7880 -23.7879 -23.7848 -23.7786 -23.7690 -23.7343 -23.7273 -23.6949
   -23.6949 -23.6775 -23.6775 -23.6658 -23.6657 -23.6616 -23.6200 -23.6161
    12.0763  13.9702  13.9702  14.6273  15.1533  15.1533  15.1954  15.2518
    15.2553  15.2553  15.2807  15.3507  15.5772  15.7796  15.7796  16.1970
    16.2752  16.3943  16.3943  16.7074  16.7933  16.7950  16.7950  16.8435
    16.8436  16.8682  16.9378  17.0951  17.2108  17.3100  17.3141  17.7305
    17.7305  17.8511  17.8511  17.8548  17.8694  17.9084  17.9571  18.1022
    18.3105  18.3105  18.3750  18.3750  18.5215  18.6566  18.6566  18.7840
    19.2415  19.2415  19.3146  19.3610  19.4008  19.4008  19.6632  19.7764
    19.7764  19.9685  20.0820  20.0821  20.1238  20.1431  20.1431  20.1604
    20.2469  20.4568  20.4605  20.4633  20.5859  20.5950

          k = 0.0551 0.2754 0.3856 ( 12852 PWs)   bands (ev):

[...]
    19.9168  19.9169  19.9264  19.9267  20.0116  20.0117  20.1767  20.1769
    20.1996  20.1998  20.3445  20.3448  20.3803  20.3805

          k = 0.1653-0.4958-0.4958 ( 12808 PWs)   bands (ev):

   -52.7191 -52.7191 -52.7188 -52.7188 -52.6484 -52.6483 -52.6480 -52.6480
   -52.6058 -52.6058 -52.6055 -52.6055 -52.5610 -52.5610 -52.5607 -52.5606
   -24.3344 -24.3344 -24.3344 -24.3344 -24.3198 -24.3198 -24.3196 -24.3195
   -24.2931 -24.2931 -24.2930 -24.2929 -24.0931 -24.0930 -24.0928 -24.0927
   -24.0733 -24.0733 -24.0733 -24.0733 -24.0683 -24.0683 -24.0683 -24.0683
   -23.8848 -23.8848 -23.8848 -23.8848 -23.8793 -23.8793 -23.8792 -23.8792
   -23.7468 -23.7468 -23.7465 -23.7465 -23.7160 -23.7160 -23.7159 -23.7158
   -23.7014 -23.7013 -23.7012 -23.7012 -23.6284 -23.6284 -23.6283 -23.6283
    13.6740  13.6741  13.6744  13.6745  15.5334  15.5334  15.5337  15.5338
    15.7745  15.7745  15.7748  15.7748  16.0934  16.0934  16.0935  16.0936
    16.3795  16.3795  16.3798  16.3799  16.6827  16.6828  16.6829  16.6830
    16.8429  16.8429  16.8430  16.8430  17.2497  17.2498  17.2498  17.2499
    17.3660  17.3660  17.3661  17.3661  17.4607  17.4608  17.4608  17.4608
    17.7201  17.7201  17.7202  17.7202  18.2371  18.2371  18.2371  18.2371
    19.8042  19.8042  19.8043  19.8043  19.9311  19.9311  19.9313  19.9313
    20.0629  20.0630  20.0632  20.0632  20.0637  20.0637  20.0638  20.0639
    20.0873  20.0873  20.0873  20.0873  20.3252  20.3253

          k = 0.2754 0.2754 0.2754 ( 12857 PWs)   bands (ev):

   -52.7693 -52.6952 -52.6952 -52.6952 -52.6551 -52.6551 -52.6551 -52.6313
   -52.6065 -52.6020 -52.6020 -52.6020 -52.5815 -52.5815 -52.5815 -52.5259
   -24.3942 -24.3942 -24.3942 -24.3221 -24.3221 -24.3221 -24.2954 -24.2922
   -24.2922 -24.2922 -24.2285 -24.2285 -24.1920 -24.1920 -24.1144 -24.1144
   -24.1144 -24.0665 -24.0664 -24.0664 -24.0209 -24.0087 -24.0087 -24.0087
   -23.8588 -23.8508 -23.8507 -23.8507 -23.8476 -23.8476 -23.8475 -23.8469
   -23.8469 -23.7937 -23.7937 -23.7937 -23.7402 -23.7147 -23.7147 -23.7146
   -23.6785 -23.6785 -23.6784 -23.6552 -23.6552 -23.6552 -23.6435 -23.6435
    12.4416  14.2343  14.2343  14.2343  14.9777  14.9777  14.9777  15.5115
    15.5115  15.5409  15.5409  15.5409  16.0195  16.0195  16.0195  16.1872
    16.3517  16.3517  16.3517  16.5498  16.6563  16.6563  16.8595  16.8595
    16.8595  17.0745  17.0745  17.0795  17.0795  17.0795  17.4352  17.4352
    17.4352  17.6366  17.6366  17.6366  17.7305  17.7305  17.7305  17.8258
    17.8258  17.9535  17.9535  17.9535  18.1075  18.1075  18.1075  19.1831
    19.3419  19.4750  19.4751  19.4751  19.7238  19.7238  19.7238  19.9047
    19.9047  19.9048  20.1051  20.1051  20.1608  20.1608  20.1609  20.2945
    20.2945  20.2945  20.4733  20.4734  20.4740  20.4778

          k = 0.2754 0.2754 0.3856 ( 12848 PWs)   bands (ev):

   -52.7555 -52.7176 -52.6875 -52.6875 -52.6669 -52.6669 -52.6503 -52.6380
   -52.6043 -52.6023 -52.5949 -52.5948 -52.5847 -52.5846 -52.5634 -52.5354
   -24.3724 -24.3724 -24.3575 -24.3154 -24.3152 -24.3152 -24.3020 -24.2910
   -24.2738 -24.2737 -24.2571 -24.2548 -24.1988 -24.1649 -24.1649 -24.1495
   -24.1166 -24.0712 -24.0712 -24.0542 -24.0504 -24.0380 -24.0380 -23.9772
   -23.9186 -23.8899 -23.8573 -23.8571 -23.8291 -23.8291 -23.8079 -23.8078
   -23.8010 -23.8010 -23.7866 -23.7462 -23.7409 -23.7408 -23.7245 -23.7115
   -23.6895 -23.6702 -23.6683 -23.6683 -23.6589 -23.6559 -23.6559 -23.6412
    12.7888  13.7159  14.4525  14.4525  14.8524  14.8524  15.3057  15.6667
    15.7041  15.7147  15.7147  15.7902  16.0208  16.0208  16.0225  16.0968
    16.1445  16.1776  16.5240  16.5240  16.6830  16.7967  16.8840  16.8956
    16.9262  16.9675  16.9675  17.1575  17.1575  17.2511  17.2749  17.2749
    17.4396  17.4397  17.5176  17.5176  17.5580  17.5764  17.5943  17.5964
    17.6803  17.6803  17.6980  17.7517  17.8179  17.8180  18.2743  18.9238
    19.4494  19.6355  19.6818  19.6818  19.7873  19.7873  19.8407  19.8408
    19.9717  20.0173  20.0302  20.0646  20.0646  20.0802  20.2236  20.2255
    20.3938  20.3944  20.4776  20.4777  20.4797  20.4830

          k = 0.2754 0.2754-0.4958 ( 12848 PWs)   bands (ev):

   -52.7382 -52.7378 -52.6780 -52.6780 -52.6777 -52.6777 -52.6446 -52.6443
   -52.6031 -52.6028 -52.5892 -52.5892 -52.5889 -52.5889 -52.5481 -52.5478
   -24.3442 -24.3442 -24.3441 -24.3441 -24.3108 -24.3104 -24.3086 -24.3083
   -24.2787 -24.2786 -24.2199 -24.2199 -24.2198 -24.2198 -24.1614 -24.1610
   -24.1025 -24.1024 -24.0602 -24.0602 -24.0600 -24.0600 -23.9839 -23.9839
   -23.9335 -23.9334 -23.8603 -23.8601 -23.8129 -23.8128 -23.8126 -23.8126
   -23.7720 -23.7720 -23.7719 -23.7719 -23.7339 -23.7336 -23.7146 -23.7144
   -23.7049 -23.7046 -23.6605 -23.6605 -23.6605 -23.6604 -23.6464 -23.6463
    13.2223  13.2228  14.6725  14.6725  14.6729  14.6729  15.7060  15.7064
    15.8644  15.8648  15.8864  15.8864  15.8866  15.8866  15.8954  15.8957
    16.0390  16.0393  16.7335  16.7337  16.8295  16.8297  16.8571  16.8571
    16.8575  16.8575  17.1131  17.1131  17.1132  17.1132  17.2152  17.2153
    17.4311  17.4313  17.5213  17.5213  17.5214  17.5214  17.5662  17.5662
    17.5662  17.5662  17.6163  17.6164  17.6619  17.6621  18.5548  18.5548
    19.7354  19.7354  19.8086  19.8086  19.8086  19.8087  19.8092  19.8095
    19.8906  19.8906  19.8908  19.8908  20.2499  20.2501  20.3050  20.3054
    20.3611  20.3613  20.3665  20.3669  20.4832  20.4836

          k = 0.2754 0.3856 0.3856 ( 12853 PWs)   bands (ev):

   -52.7428 -52.7080 -52.7080 -52.6820 -52.6803 -52.6612 -52.6612 -52.6463
   -52.6006 -52.5960 -52.5960 -52.5873 -52.5842 -52.5685 -52.5685 -52.5437
   -24.3556 -24.3393 -24.3392 -24.3138 -24.3078 -24.3078 -24.2946 -24.2789
   -24.2788 -24.2675 -24.2606 -24.2209 -24.1994 -24.1947 -24.1625 -24.1205
   -24.1205 -24.1044 -24.1044 -24.0958 -24.0851 -24.0851 -24.0753 -23.9771
   -23.9326 -23.8472 -23.8471 -23.8345 -23.8321 -23.8321 -23.8061 -23.7973
   -23.7760 -23.7717 -23.7651 -23.7548 -23.7547 -23.7274 -23.7273 -23.7189
   -23.6864 -23.6863 -23.6844 -23.6743 -23.6554 -23.6554 -23.6524 -23.6462
    13.1206  13.9860  13.9861  14.5936  14.7051  15.1765  15.1765  15.7977
    15.8566  15.9050  15.9360  15.9680  15.9680  16.0297  16.0297  16.2299
    16.2629  16.3414  16.3415  16.4666  16.7591  16.8454  16.8478  16.8922
    16.8923  16.9479  16.9479  17.0332  17.0562  17.1434  17.1727  17.3509
    17.3509  17.3518  17.3558  17.3558  17.3633  17.3633  17.3917  17.5032
    17.5032  17.5355  17.5631  17.5779  17.6463  17.9201  17.9201  18.5107
    19.7485  19.8069  19.8069  19.8306  19.8619  19.9460  20.0168  20.0189
    20.0189  20.0503  20.0503  20.0688  20.1404  20.1404  20.2084  20.3336
    20.3595  20.3595  20.3647  20.3964  20.4628  20.4739

          k = 0.2754 0.3856-0.4958 ( 12862 PWs)   bands (ev):

   -52.7269 -52.7265 -52.6961 -52.6957 -52.6715 -52.6712 -52.6543 -52.6540
   -52.5980 -52.5977 -52.5912 -52.5909 -52.5756 -52.5753 -52.5550 -52.5547
   -24.3320 -24.3319 -24.3223 -24.3221 -24.2990 -24.2987 -24.2901 -24.2901
   -24.2863 -24.2861 -24.2389 -24.2387 -24.1633 -24.1630 -24.1630 -24.1629
   -24.1306 -24.1305 -24.1047 -24.1044 -24.1011 -24.1009 -24.0406 -24.0405
   -23.8890 -23.8888 -23.8329 -23.8327 -23.8157 -23.8155 -23.8075 -23.8074
   -23.7723 -23.7720 -23.7489 -23.7488 -23.7247 -23.7245 -23.7197 -23.7196
   -23.7153 -23.7150 -23.6810 -23.6809 -23.6526 -23.6526 -23.6485 -23.6485
    13.5295  13.5299  14.2928  14.2932  14.9664  14.9667  15.5606  15.5610
    15.9292  15.9295  15.9644  15.9646  16.1342  16.1345  16.1479  16.1481
    16.2065  16.2068  16.6795  16.6799  16.7065  16.7069  16.8012  16.8012
    16.8183  16.8185  17.0147  17.0149  17.0576  17.0577  17.1889  17.1890
    17.2506  17.2508  17.2755  17.2757  17.3914  17.3915  17.4472  17.4473
    17.4763  17.4764  17.5601  17.5603  17.6187  17.6187  18.1601  18.1601
    19.9323  19.9325  19.9360  19.9360  19.9707  19.9709  19.9947  19.9950
    20.0210  20.0211  20.0684  20.0684  20.2359  20.2363  20.2363  20.2364
    20.3054  20.3055  20.3138  20.3141  20.3978  20.3981

          k = 0.2754-0.4958-0.4958 ( 12832 PWs)   bands (ev):

   -52.7126 -52.7126 -52.7123 -52.7122 -52.6635 -52.6634 -52.6631 -52.6631
   -52.5941 -52.5941 -52.5938 -52.5937 -52.5642 -52.5642 -52.5639 -52.5638
   -24.3117 -24.3117 -24.3117 -24.3117 -24.3031 -24.3031 -24.3029 -24.3029
   -24.2619 -24.2619 -24.2618 -24.2617 -24.1412 -24.1411 -24.1409 -24.1409
   -24.1292 -24.1292 -24.1291 -24.1291 -24.1017 -24.1017 -24.1017 -24.1017
   -23.8467 -23.8467 -23.8466 -23.8466 -23.8202 -23.8202 -23.8202 -23.8202
   -23.7389 -23.7389 -23.7386 -23.7386 -23.7311 -23.7311 -23.7309 -23.7309
   -23.7047 -23.7047 -23.7045 -23.7045 -23.6492 -23.6492 -23.6492 -23.6492
    13.8984  13.8985  13.8988  13.8989  15.2894  15.2895  15.2898  15.2899
    15.9694  15.9694  15.9697  15.9697  16.3298  16.3298  16.3300  16.3300
    16.4166  16.4167  16.4170  16.4170  16.6340  16.6341  16.6343  16.6343
    16.9186  16.9186  16.9187  16.9187  17.0891  17.0891  17.0892  17.0892
    17.2681  17.2682  17.2682  17.2683  17.2973  17.2973  17.2973  17.2973
    17.4950  17.4950  17.4951  17.4951  17.8316  17.8316  17.8316  17.8316
    20.0069  20.0069  20.0071  20.0072  20.1189  20.1189  20.1192  20.1192
    20.1211  20.1211  20.1212  20.1212  20.1714  20.1714  20.1715  20.1716
    20.3068  20.3068  20.3071  20.3071  20.4164  20.4165

          k = 0.3856 0.3856 0.3856 ( 12851 PWs)   bands (ev):

   -52.7310 -52.6991 -52.6991 -52.6990 -52.6751 -52.6751 -52.6750 -52.6567
   -52.5947 -52.5867 -52.5867 -52.5866 -52.5730 -52.5730 -52.5729 -52.5511
   -24.3206 -24.3206 -24.3206 -24.2982 -24.2982 -24.2982 -24.2767 -24.2369
   -24.2369 -24.2369 -24.2363 -24.2363 -24.2226 -24.2226 -24.1490 -24.1490
   -24.1490 -24.1453 -24.1453 -24.1452 -24.1264 -24.1264 -24.1264 -24.0297
   -23.8889 -23.8099 -23.8099 -23.8099 -23.7938 -23.7938 -23.7938 -23.7772
   -23.7772 -23.7556 -23.7555 -23.7555 -23.7494 -23.7494 -23.7494 -23.7224
   -23.6850 -23.6849 -23.6849 -23.6746 -23.6746 -23.6691 -23.6691 -23.6691
    13.4450  14.2744  14.2744  14.2744  14.9199  14.9199  14.9199  15.6877
    16.0153  16.0153  16.1265  16.1265  16.1266  16.3056  16.3057  16.3057
    16.3226  16.3226  16.3227  16.4320  16.8176  16.8176  16.9066  16.9066
    16.9774  16.9774  16.9774  17.0043  17.0043  17.0043  17.0902  17.0903
    17.0903  17.2391  17.2391  17.2391  17.2568  17.2568  17.2568  17.3086
    17.3086  17.3086  17.4725  17.4725  17.5723  17.5723  17.5723  18.0962
    19.9360  19.9361  19.9361  20.0777  20.1141  20.1141  20.1141  20.1352
    20.1352  20.1498  20.1498  20.1499  20.1817  20.1817  20.1817  20.3597
    20.3597  20.3913  20.3914  20.3914  20.4111  20.4111

          k = 0.3856 0.3856-0.4958 ( 12834 PWs)   bands (ev):

   -52.7164 -52.7160 -52.6881 -52.6880 -52.6877 -52.6877 -52.6666 -52.6663
   -52.5903 -52.5899 -52.5791 -52.5791 -52.5788 -52.5788 -52.5610 -52.5607
   -24.3028 -24.3028 -24.3027 -24.3027 -24.2759 -24.2756 -24.2718 -24.2717
   -24.2564 -24.2562 -24.1964 -24.1961 -24.1910 -24.1909 -24.1908 -24.1908
   -24.1768 -24.1767 -24.1515 -24.1515 -24.1514 -24.1514 -24.0873 -24.0873
   -23.8479 -23.8478 -23.7870 -23.7869 -23.7771 -23.7771 -23.7770 -23.7770
   -23.7674 -23.7674 -23.7673 -23.7673 -23.7326 -23.7324 -23.7270 -23.7267
   -23.7116 -23.7112 -23.6801 -23.6800 -23.6800 -23.6800 -23.6693 -23.6693
    13.8407  13.8411  14.6028  14.6029  14.6032  14.6033  15.3066  15.3070
    16.1516  16.1520  16.2245  16.2248  16.2458  16.2458  16.2460  16.2460
    16.4086  16.4089  16.6546  16.6546  16.6549  16.6549  16.8442  16.8443
    16.8937  16.8939  16.9614  16.9617  16.9801  16.9803  17.1016  17.1017
    17.1018  17.1018  17.2284  17.2284  17.2286  17.2286  17.2853  17.2853
    17.2853  17.2853  17.3523  17.3524  17.3678  17.3681  17.7575  17.7575
    20.0417  20.0420  20.0684  20.0685  20.0687  20.0687  20.1896  20.1896
    20.1896  20.1896  20.2507  20.2510  20.2727  20.2730  20.3287  20.3289
    20.3793  20.3796  20.3820  20.3821  20.3823  20.3824

          k = 0.3856-0.4958-0.4958 ( 12840 PWs)   bands (ev):

   -52.7033 -52.7032 -52.7029 -52.7029 -52.6781 -52.6780 -52.6777 -52.6777
   -52.5840 -52.5840 -52.5837 -52.5836 -52.5691 -52.5690 -52.5687 -52.5687
   -24.2786 -24.2786 -24.2786 -24.2786 -24.2746 -24.2746 -24.2744 -24.2744
   -24.2233 -24.2233 -24.2232 -24.2231 -24.1905 -24.1905 -24.1903 -24.1903
   -24.1857 -24.1857 -24.1857 -24.1857 -24.1391 -24.1391 -24.1390 -24.1390
   -23.8102 -23.8102 -23.8101 -23.8101 -23.7665 -23.7665 -23.7664 -23.7664
   -23.7518 -23.7518 -23.7516 -23.7516 -23.7291 -23.7291 -23.7288 -23.7288
   -23.7109 -23.7109 -23.7107 -23.7107 -23.6798 -23.6798 -23.6797 -23.6797
    14.2120  14.2121  14.2125  14.2125  14.9617  14.9617  14.9621  14.9622
    16.2358  16.2358  16.2361  16.2361  16.4665  16.4666  16.4669  16.4669
    16.5723  16.5724  16.5726  16.5726  16.5805  16.5806  16.5808  16.5809
    17.0081  17.0082  17.0083  17.0083  17.0244  17.0244  17.0244  17.0244
    17.0358  17.0358  17.0359  17.0359  17.2071  17.2071  17.2071  17.2071
    17.2737  17.2737  17.2738  17.2738  17.4296  17.4296  17.4296  17.4296
    20.1102  20.1102  20.1105  20.1105  20.1789  20.1789  20.1791  20.1792
    20.2765  20.2765  20.2768  20.2768  20.3490  20.3490  20.3491  20.3492
    20.3630  20.3631  20.3633  20.3634  20.3929  20.3929

          k =-0.4958-0.4958-0.4958 ( 12856 PWs)   bands (ev):

   -52.6916 -52.6915 -52.6915 -52.6915 -52.6912 -52.6912 -52.6912 -52.6911
   -52.5757 -52.5757 -52.5756 -52.5756 -52.5754 -52.5753 -52.5753 -52.5753
   -24.2365 -24.2365 -24.2364 -24.2364 -24.2364 -24.2363 -24.2363 -24.2363
   -24.2362 -24.2362 -24.2362 -24.2362 -24.2361 -24.2361 -24.2361 -24.2361
   -24.1810 -24.1810 -24.1809 -24.1809 -24.1808 -24.1808 -24.1808 -24.1808
   -23.7785 -23.7785 -23.7784 -23.7784 -23.7783 -23.7783 -23.7783 -23.7783
   -23.7192 -23.7192 -23.7192 -23.7192 -23.7191 -23.7191 -23.7191 -23.7190
   -23.7190 -23.7190 -23.7189 -23.7189 -23.7189 -23.7189 -23.7189 -23.7188
    14.5828  14.5829  14.5829  14.5829  14.5832  14.5833  14.5833  14.5834
    16.5232  16.5232  16.5232  16.5232  16.5232  16.5232  16.5233  16.5233
    16.5235  16.5235  16.5235  16.5235  16.5236  16.5236  16.5236  16.5236
    17.0819  17.0819  17.0819  17.0820  17.0820  17.0820  17.0820  17.0820
    17.1070  17.1070  17.1070  17.1070  17.1070  17.1070  17.1070  17.1070
    17.1072  17.1072  17.1072  17.1072  17.1072  17.1072  17.1072  17.1072
    20.2332  20.2332  20.2332  20.2332  20.2332  20.2333  20.2333  20.2333
    20.2335  20.2335  20.2335  20.2335  20.2335  20.2335  20.2336  20.2336
    20.5931  20.5931  20.5931  20.5931  20.5932  20.5932

     the Fermi energy is    19.0341 ev

!    total energy              =   -3971.53811837 Ry
     Harris-Foulkes estimate   =   -3971.53811253 Ry
     estimated scf accuracy    <       0.00000063 Ry

     total all-electron energy =    -33628.060998 Ry

     The total energy is the sum of the following terms:

     one-electron contribution =    -908.36295138 Ry
     hartree contribution      =     587.32467229 Ry
     xc contribution           =    -356.19567769 Ry
     ewald contribution        =   -2106.37282675 Ry
     one-center paw contrib.   =   -1187.95796844 Ry
     smearing contrib. (-TS)   =       0.02663359 Ry

     total magnetization       =     0.00 Bohr mag/cell
     absolute magnetization    =     0.03 Bohr mag/cell

     convergence has been achieved in  18 iterations

     Forces acting on atoms (cartesian axes, Ry/au):

     atom    1 type  1   force =     0.00000000    0.00000000   -0.00000000
     atom    2 type  2   force =     0.00010413    0.00010413    0.00010413
     atom    3 type  1   force =     0.00000000    0.00000000    0.00000000
     atom    4 type  2   force =     0.00010413    0.00010413   -0.00010413
     atom    5 type  1   force =     0.00000000    0.00000000    0.00000000
     atom    6 type  2   force =     0.00010413   -0.00010413    0.00010413
     atom    7 type  1   force =     0.00000000    0.00000000    0.00000000
     atom    8 type  2   force =     0.00010413   -0.00010413   -0.00010413
     atom    9 type  1   force =     0.00000000    0.00000000    0.00000000
     atom   10 type  2   force =    -0.00010413    0.00010413    0.00010413
     atom   11 type  1   force =     0.00000000   -0.00000000    0.00000000
     atom   12 type  2   force =    -0.00010413    0.00010413   -0.00010413
     atom   13 type  1   force =     0.00000000    0.00000000    0.00000000
     atom   14 type  2   force =    -0.00010413   -0.00010413    0.00010413
     atom   15 type  1   force =     0.00000000    0.00000000    0.00000000
     atom   16 type  2   force =    -0.00010413   -0.00010413   -0.00010413

     Total force =     0.000510     Total SCF correction =     0.003285
     SCF correction compared to forces is large: reduce conv_thr to get better values


     Computing stress (Cartesian axis) and pressure

          total   stress  (Ry/bohr**3)                   (kbar)     P=  -62.92
  -0.00042771   0.00000000   0.00000000        -62.92      0.00      0.00
   0.00000000  -0.00042771   0.00000000          0.00    -62.92      0.00
   0.00000000   0.00000000  -0.00042771          0.00      0.00    -62.92


     Writing output data file dGqrLOifMBVJazds.save/
 
     init_run     :     11.20s CPU     11.79s WALL (       1 calls)
     electrons    :    629.28s CPU    643.46s WALL (       1 calls)
     forces       :      3.26s CPU      3.43s WALL (       1 calls)
     stress       :     13.46s CPU     13.52s WALL (       1 calls)

     Called by init_run:
     wfcinit      :     10.49s CPU     11.02s WALL (       1 calls)
     potinit      :      0.35s CPU      0.37s WALL (       1 calls)
     hinit0       :      0.13s CPU      0.14s WALL (       1 calls)

     Called by electrons:
     c_bands      :    569.64s CPU    580.90s WALL (      19 calls)
     sum_band     :     52.42s CPU     54.79s WALL (      19 calls)
     v_of_rho     :      0.55s CPU      0.59s WALL (      19 calls)
     newd         :      1.33s CPU      1.57s WALL (      19 calls)
     PAW_pot      :      5.42s CPU      5.65s WALL (      19 calls)
     mix_rho      :      0.16s CPU      0.18s WALL (      19 calls)

     Called by c_bands:
     init_us_2    :      3.73s CPU      3.77s WALL (    2870 calls)
     cegterg      :    548.62s CPU    559.67s WALL (    1330 calls)

     Called by sum_band:
     sum_band:bec :      0.58s CPU      0.59s WALL (    1330 calls)
     addusdens    :      2.40s CPU      2.75s WALL (      19 calls)

     Called by *egterg:
     h_psi        :    231.29s CPU    239.33s WALL (    5701 calls)
     s_psi        :     23.13s CPU     23.20s WALL (    5701 calls)
     g_psi        :      1.30s CPU      1.31s WALL (    4301 calls)
     cdiaghg      :    225.23s CPU    225.54s WALL (    5561 calls)

     Called by h_psi:
     h_psi:pot    :    229.88s CPU    237.90s WALL (    5701 calls)
     h_psi:calbec :     24.68s CPU     26.53s WALL (    5701 calls)
     vloc_psi     :    182.30s CPU    188.37s WALL (    5701 calls)
     add_vuspsi   :     22.85s CPU     22.96s WALL (    5701 calls)

     General routines
     calbec       :     36.04s CPU     38.82s WALL (    7381 calls)
     fft          :      0.44s CPU      0.48s WALL (     517 calls)
     ffts         :      0.04s CPU      0.04s WALL (      76 calls)
     fftw         :    204.01s CPU    210.73s WALL ( 1079046 calls)
     interpolate  :      0.06s CPU      0.06s WALL (      38 calls)
 
     Parallel routines
     fft_scatt_xy :     16.95s CPU     17.50s WALL ( 1079639 calls)
     fft_scatt_yz :     99.62s CPU    103.19s WALL ( 1079639 calls)
 
     PWSCF        : 11m 1.84s CPU    11m26.47s WALL

 
   This run was terminated on:   6:42: 2  15Jun2020            

=------------------------------------------------------------------------------=
   JOB DONE.
=------------------------------------------------------------------------------=
