--------------------------------------------------------------------------
WARNING: There was an error initializing an OpenFabrics device.

  Local host:   bear-pg0211u06a
  Local device: mlx5_0
--------------------------------------------------------------------------

     Program PWSCF v.6.3 starts on 15Jun2020 at 18:52:52 

     This program is part of the open-source Quantum ESPRESSO suite
     for quantum simulation of materials; please cite
         "P. Giannozzi et al., J. Phys.:Condens. Matter 21 395502 (2009);
         "P. Giannozzi et al., J. Phys.:Condens. Matter 29 465901 (2017);
          URL http://www.quantum-espresso.org", 
     in publications or presentations arising from this work. More details at
     http://www.quantum-espresso.org/quote

     Parallel version (MPI & OpenMP), running on      20 processor cores
     Number of MPI processes:                20
     Threads/MPI process:                     1

     MPI processes distributed on     1 nodes
     R & G space division:  proc/nbgrp/npool/nimage =      20
     Reading input from wd/relax/relax.in

     Current dimensions of program PWSCF are:
     Max number of different atomic species (ntypx) = 10
     Max number of k-points (npk) =  40000
     Max angular momentum in pseudopotentials (lmaxx) =  3
     Message from routine read_upf::
     Pseudo file /rds/homes/b/bxp912/pp/Cr.pbe-spn-kjpaw_psl.1.0.0.UPF has been successfully fixed on the fly.
To avoid this message in the future you can permanently fix 
 your pseudo files following instructions given in: 
https://gitlab.com/QEF/q-e/blob/master/upftools/how_to_fix_upf.md
               file Cr.pbe-spn-kjpaw_psl.1.0.0.UPF: wavefunction(s)  3S 3P 3D renormalized
     Message from routine read_upf::
     Pseudo file /rds/homes/b/bxp912/pp/Cr.pbe-spn-kjpaw_psl.1.0.0.UPF has been successfully fixed on the fly.
To avoid this message in the future you can permanently fix 
 your pseudo files following instructions given in: 
https://gitlab.com/QEF/q-e/blob/master/upftools/how_to_fix_upf.md
               file Cr.pbe-spn-kjpaw_psl.1.0.0.UPF: wavefunction(s)  3S 3P 3D renormalized

     Subspace diagonalization in iterative solution of the eigenvalue problem:
     a serial algorithm will be used

     Found symmetry operation: I + (  0.0000  0.0000 -0.5000)
     This is a supercell, fractional translations are disabled
 
     Parallelization info
     --------------------
     sticks:   dense  smooth     PW     G-vecs:    dense   smooth      PW
     Min         191     126     35                 8926     4786     711
     Max         193     127     36                 8929     4789     714
     Sum        3833    2537    717               178541    95769   14243
 


     bravais-lattice index     =            0
     lattice parameter (alat)  =      10.5840  a.u.
     unit-cell volume          =    1185.6309 (a.u.)^3
     number of atoms/cell      =           16
     number of atomic types    =            2
     number of electrons       =       224.00
     number of Kohn-Sham states=          134
     kinetic-energy cutoff     =      71.0000  Ry
     charge density cutoff     =     430.0000  Ry
     convergence threshold     =      1.0E-06
     mixing beta               =       0.1000
     number of iterations used =           10  plain     mixing
     Exchange-correlation      = SLA PW PBX PBC ( 1  4  3  4 0 0)
     nstep                     =           40


     celldm(1)=  10.584000  celldm(2)=   0.000000  celldm(3)=   0.000000
     celldm(4)=   0.000000  celldm(5)=   0.000000  celldm(6)=   0.000000

     crystal axes: (cart. coord. in units of alat)
               a(1) = (   1.000000   0.000000   0.000000 )  
               a(2) = (   0.000000   1.000000   0.000000 )  
               a(3) = (   0.000000   0.000000   1.000000 )  

     reciprocal axes: (cart. coord. in units 2 pi/alat)
               b(1) = (  1.000000  0.000000  0.000000 )  
               b(2) = (  0.000000  1.000000  0.000000 )  
               b(3) = (  0.000000  0.000000  1.000000 )  


     PseudoPot. # 1 for Cr read from file:
     /rds/homes/b/bxp912/pp/Cr.pbe-spn-kjpaw_psl.1.0.0.UPF
     MD5 check sum: cb1c17117da000fe5e03c4f1a6841d9c
     Pseudo is Projector augmented-wave + core cor, Zval = 14.0
     Generated using "atomic" code by A. Dal Corso v.5.1
     Shape of augmentation charge: PSQ
     Using radial grid of 1183 points,  6 beta functions with: 
                l(1) =   0
                l(2) =   0
                l(3) =   1
                l(4) =   1
                l(5) =   2
                l(6) =   2
     Q(r) pseudized with 0 coefficients 


     PseudoPot. # 2 for Cr read from file:
     /rds/homes/b/bxp912/pp/Cr.pbe-spn-kjpaw_psl.1.0.0.UPF
     MD5 check sum: cb1c17117da000fe5e03c4f1a6841d9c
     Pseudo is Projector augmented-wave + core cor, Zval = 14.0
     Generated using "atomic" code by A. Dal Corso v.5.1
     Shape of augmentation charge: PSQ
     Using radial grid of 1183 points,  6 beta functions with: 
                l(1) =   0
                l(2) =   0
                l(3) =   1
                l(4) =   1
                l(5) =   2
                l(6) =   2
     Q(r) pseudized with 0 coefficients 


     atomic species   valence    mass     pseudopotential
        Cr1           14.00    55.84500     Cr( 1.00)
        Cr2           14.00    55.84500     Cr( 1.00)

     Starting magnetic structure 
     atomic species   magnetization
        Cr1          0.300
        Cr2         -0.300

     48 Sym. Ops., with inversion, found



   Cartesian axes

     site n.     atom                  positions (alat units)
         1           Cr1 tau(   1) = (   0.0000000   0.0000000   0.0000000  )
         2           Cr2 tau(   2) = (   0.2500000   0.2500000   0.2500000  )
         3           Cr1 tau(   3) = (   0.0000000   0.0000000   0.5000000  )
         4           Cr2 tau(   4) = (   0.2500000   0.2500000   0.7500000  )
         5           Cr1 tau(   5) = (   0.0000000   0.5000000   0.0000000  )
         6           Cr2 tau(   6) = (   0.2500000   0.7500000   0.2500000  )
         7           Cr1 tau(   7) = (   0.0000000   0.5000000   0.5000000  )
         8           Cr2 tau(   8) = (   0.2500000   0.7500000   0.7500000  )
         9           Cr1 tau(   9) = (   0.5000000   0.0000000   0.0000000  )
        10           Cr2 tau(  10) = (   0.7500000   0.2500000   0.2500000  )
        11           Cr1 tau(  11) = (   0.5000000   0.0000000   0.5000000  )
        12           Cr2 tau(  12) = (   0.7500000   0.2500000   0.7500000  )
        13           Cr1 tau(  13) = (   0.5000000   0.5000000   0.0000000  )
        14           Cr2 tau(  14) = (   0.7500000   0.7500000   0.2500000  )
        15           Cr1 tau(  15) = (   0.5000000   0.5000000   0.5000000  )
        16           Cr2 tau(  16) = (   0.7500000   0.7500000   0.7500000  )

     number of k points=    35  Marzari-Vanderbilt smearing, width (Ry)=  0.0400
                       cart. coord. in units 2pi/alat
        k(    1) = (   0.0555556   0.0555556   0.0555556), wk =   0.0109739
        k(    2) = (   0.0555556   0.0555556   0.1666667), wk =   0.0329218
        k(    3) = (   0.0555556   0.0555556   0.2777778), wk =   0.0329218
        k(    4) = (   0.0555556   0.0555556   0.3888889), wk =   0.0329218
        k(    5) = (   0.0555556   0.0555556  -0.5000000), wk =   0.0164609
        k(    6) = (   0.0555556   0.1666667   0.1666667), wk =   0.0329218
        k(    7) = (   0.0555556   0.1666667   0.2777778), wk =   0.0658436
        k(    8) = (   0.0555556   0.1666667   0.3888889), wk =   0.0658436
        k(    9) = (   0.0555556   0.1666667  -0.5000000), wk =   0.0329218
        k(   10) = (   0.0555556   0.2777778   0.2777778), wk =   0.0329218
        k(   11) = (   0.0555556   0.2777778   0.3888889), wk =   0.0658436
        k(   12) = (   0.0555556   0.2777778  -0.5000000), wk =   0.0329218
        k(   13) = (   0.0555556   0.3888889   0.3888889), wk =   0.0329218
        k(   14) = (   0.0555556   0.3888889  -0.5000000), wk =   0.0329218
        k(   15) = (   0.0555556  -0.5000000  -0.5000000), wk =   0.0082305
        k(   16) = (   0.1666667   0.1666667   0.1666667), wk =   0.0109739
        k(   17) = (   0.1666667   0.1666667   0.2777778), wk =   0.0329218
        k(   18) = (   0.1666667   0.1666667   0.3888889), wk =   0.0329218
        k(   19) = (   0.1666667   0.1666667  -0.5000000), wk =   0.0164609
        k(   20) = (   0.1666667   0.2777778   0.2777778), wk =   0.0329218
        k(   21) = (   0.1666667   0.2777778   0.3888889), wk =   0.0658436
        k(   22) = (   0.1666667   0.2777778  -0.5000000), wk =   0.0329218
        k(   23) = (   0.1666667   0.3888889   0.3888889), wk =   0.0329218
        k(   24) = (   0.1666667   0.3888889  -0.5000000), wk =   0.0329218
        k(   25) = (   0.1666667  -0.5000000  -0.5000000), wk =   0.0082305
        k(   26) = (   0.2777778   0.2777778   0.2777778), wk =   0.0109739
        k(   27) = (   0.2777778   0.2777778   0.3888889), wk =   0.0329218
        k(   28) = (   0.2777778   0.2777778  -0.5000000), wk =   0.0164609
        k(   29) = (   0.2777778   0.3888889   0.3888889), wk =   0.0329218
        k(   30) = (   0.2777778   0.3888889  -0.5000000), wk =   0.0329218
        k(   31) = (   0.2777778  -0.5000000  -0.5000000), wk =   0.0082305
        k(   32) = (   0.3888889   0.3888889   0.3888889), wk =   0.0109739
        k(   33) = (   0.3888889   0.3888889  -0.5000000), wk =   0.0164609
        k(   34) = (   0.3888889  -0.5000000  -0.5000000), wk =   0.0082305
        k(   35) = (  -0.5000000  -0.5000000  -0.5000000), wk =   0.0013717

     Dense  grid:   178541 G-vectors     FFT dimensions: (  72,  72,  72)

     Smooth grid:    95769 G-vectors     FFT dimensions: (  60,  60,  60)

     Estimated max dynamical RAM per process >     142.49 MB

     Estimated total dynamical RAM >       2.78 GB
     Generating pointlists ...
     new r_m :   0.1786 (alat units)  1.8905 (a.u.) for type    1
     new r_m :   0.1786 (alat units)  1.8905 (a.u.) for type    2

     Check: negative/imaginary core charge=   -0.000009    0.000000

     Initial potential from superposition of free atoms

     starting charge  223.98764, renormalised to  224.00000
     Starting wfcs are  160 randomized atomic wfcs
     Checking if some PAW data can be deallocated... 

     total cpu time spent up to now is        9.8 secs

     Self-consistent Calculation

     iteration #  1     ecut=    71.00 Ry     beta= 0.10
     Davidson diagonalization with overlap
     ethr =  1.00E-02,  avg # of iterations =  3.1

     Threshold (ethr) on eigenvalues was too large:
     Diagonalizing with lowered threshold

     Davidson diagonalization with overlap
     ethr =  8.38E-04,  avg # of iterations =  3.4

     total cpu time spent up to now is       57.0 secs

     total energy              =   -3970.45605282 Ry
     Harris-Foulkes estimate   =   -3970.35986061 Ry
     estimated scf accuracy    <       1.94421108 Ry

     total magnetization       =     0.00 Bohr mag/cell
     absolute magnetization    =    37.32 Bohr mag/cell

     iteration #  2     ecut=    71.00 Ry     beta= 0.10
     Davidson diagonalization with overlap
     ethr =  8.68E-04,  avg # of iterations =  1.0

     total cpu time spent up to now is       72.9 secs

     total energy              =   -3970.91336783 Ry
     Harris-Foulkes estimate   =   -3970.46744305 Ry
     estimated scf accuracy    <       1.47624261 Ry

     total magnetization       =     0.00 Bohr mag/cell
     absolute magnetization    =    37.28 Bohr mag/cell

     iteration #  3     ecut=    71.00 Ry     beta= 0.10
     Davidson diagonalization with overlap
     ethr =  6.59E-04,  avg # of iterations =  3.0

     total cpu time spent up to now is       98.5 secs

     total energy              =   -3971.19773301 Ry
     Harris-Foulkes estimate   =   -3971.14533494 Ry
     estimated scf accuracy    <       0.35477050 Ry

     total magnetization       =    -0.00 Bohr mag/cell
     absolute magnetization    =    35.45 Bohr mag/cell

     iteration #  4     ecut=    71.00 Ry     beta= 0.10
     Davidson diagonalization with overlap
     ethr =  1.58E-04,  avg # of iterations =  1.9

     total cpu time spent up to now is      116.5 secs

     total energy              =   -3971.20115826 Ry
     Harris-Foulkes estimate   =   -3971.20975986 Ry
     estimated scf accuracy    <       0.53065220 Ry

     total magnetization       =    -0.00 Bohr mag/cell
     absolute magnetization    =    35.88 Bohr mag/cell

     iteration #  5     ecut=    71.00 Ry     beta= 0.10
     Davidson diagonalization with overlap
     ethr =  1.58E-04,  avg # of iterations =  5.4

     total cpu time spent up to now is      150.6 secs

     total energy              =   -3971.35495277 Ry
     Harris-Foulkes estimate   =   -3971.34951635 Ry
     estimated scf accuracy    <       0.05308038 Ry

     total magnetization       =     0.00 Bohr mag/cell
     absolute magnetization    =    28.36 Bohr mag/cell

     iteration #  6     ecut=    71.00 Ry     beta= 0.10
     Davidson diagonalization with overlap
     ethr =  2.37E-05,  avg # of iterations =  3.3

     total cpu time spent up to now is      172.5 secs

     total energy              =   -3971.34236367 Ry
     Harris-Foulkes estimate   =   -3971.35621925 Ry
     estimated scf accuracy    <       0.04869651 Ry

     total magnetization       =     0.00 Bohr mag/cell
     absolute magnetization    =    28.15 Bohr mag/cell

     iteration #  7     ecut=    71.00 Ry     beta= 0.10
     Davidson diagonalization with overlap
     ethr =  2.17E-05,  avg # of iterations =  1.0

     total cpu time spent up to now is      188.3 secs

     total energy              =   -3971.37637278 Ry
     Harris-Foulkes estimate   =   -3971.34339917 Ry
     estimated scf accuracy    <       0.06487736 Ry

     total magnetization       =     0.00 Bohr mag/cell
     absolute magnetization    =    28.69 Bohr mag/cell

     iteration #  8     ecut=    71.00 Ry     beta= 0.10
     Davidson diagonalization with overlap
     ethr =  2.17E-05,  avg # of iterations =  5.8

     total cpu time spent up to now is      228.3 secs

     total energy              =   -3971.44556625 Ry
     Harris-Foulkes estimate   =   -3971.43612500 Ry
     estimated scf accuracy    <       0.02517481 Ry

     total magnetization       =    -0.00 Bohr mag/cell
     absolute magnetization    =    22.68 Bohr mag/cell

     iteration #  9     ecut=    71.00 Ry     beta= 0.10
     Davidson diagonalization with overlap
     ethr =  1.12E-05,  avg # of iterations =  2.1

     total cpu time spent up to now is      247.0 secs

     total energy              =   -3971.45481122 Ry
     Harris-Foulkes estimate   =   -3971.44719701 Ry
     estimated scf accuracy    <       0.01389523 Ry

     total magnetization       =    -0.00 Bohr mag/cell
     absolute magnetization    =    21.89 Bohr mag/cell

     iteration # 10     ecut=    71.00 Ry     beta= 0.10
     Davidson diagonalization with overlap
     ethr =  6.20E-06,  avg # of iterations =  4.9

     total cpu time spent up to now is      277.2 secs

     total energy              =   -3971.46704269 Ry
     Harris-Foulkes estimate   =   -3971.45847145 Ry
     estimated scf accuracy    <       0.01413537 Ry

     total magnetization       =    -0.00 Bohr mag/cell
     absolute magnetization    =    20.42 Bohr mag/cell

     iteration # 11     ecut=    71.00 Ry     beta= 0.10
     Davidson diagonalization with overlap
     ethr =  6.20E-06,  avg # of iterations =  5.2

     total cpu time spent up to now is      312.2 secs

     total energy              =   -3971.48101838 Ry
     Harris-Foulkes estimate   =   -3971.47765048 Ry
     estimated scf accuracy    <       0.00681462 Ry

     total magnetization       =    -0.00 Bohr mag/cell
     absolute magnetization    =    17.75 Bohr mag/cell

     iteration # 12     ecut=    71.00 Ry     beta= 0.10
     Davidson diagonalization with overlap
     ethr =  3.04E-06,  avg # of iterations =  3.6

     total cpu time spent up to now is      335.2 secs

     total energy              =   -3971.48421604 Ry
     Harris-Foulkes estimate   =   -3971.48177154 Ry
     estimated scf accuracy    <       0.00502760 Ry

     total magnetization       =    -0.00 Bohr mag/cell
     absolute magnetization    =    17.09 Bohr mag/cell

     iteration # 13     ecut=    71.00 Ry     beta= 0.10
     Davidson diagonalization with overlap
     ethr =  2.24E-06,  avg # of iterations =  3.8

     total cpu time spent up to now is      359.2 secs

     total energy              =   -3971.48579907 Ry
     Harris-Foulkes estimate   =   -3971.48472097 Ry
     estimated scf accuracy    <       0.00560033 Ry

     total magnetization       =    -0.00 Bohr mag/cell
     absolute magnetization    =    16.59 Bohr mag/cell

     iteration # 14     ecut=    71.00 Ry     beta= 0.10
     Davidson diagonalization with overlap
     ethr =  2.24E-06,  avg # of iterations =  4.1

     total cpu time spent up to now is      384.1 secs

     total energy              =   -3971.48830932 Ry
     Harris-Foulkes estimate   =   -3971.48617162 Ry
     estimated scf accuracy    <       0.00403556 Ry

     total magnetization       =    -0.00 Bohr mag/cell
     absolute magnetization    =    16.26 Bohr mag/cell

     iteration # 15     ecut=    71.00 Ry     beta= 0.10
     Davidson diagonalization with overlap
     ethr =  1.80E-06,  avg # of iterations =  5.4

     total cpu time spent up to now is      422.8 secs

     total energy              =   -3971.49548074 Ry
     Harris-Foulkes estimate   =   -3971.49370872 Ry
     estimated scf accuracy    <       0.00207874 Ry

     total magnetization       =     0.00 Bohr mag/cell
     absolute magnetization    =    14.33 Bohr mag/cell

     iteration # 16     ecut=    71.00 Ry     beta= 0.10
     Davidson diagonalization with overlap
     ethr =  9.28E-07,  avg # of iterations =  4.2

     total cpu time spent up to now is      452.2 secs

     total energy              =   -3971.49452643 Ry
     Harris-Foulkes estimate   =   -3971.49668807 Ry
     estimated scf accuracy    <       0.00158782 Ry

     total magnetization       =     0.00 Bohr mag/cell
     absolute magnetization    =    13.39 Bohr mag/cell

     iteration # 17     ecut=    71.00 Ry     beta= 0.10
     Davidson diagonalization with overlap
     ethr =  7.09E-07,  avg # of iterations =  3.9

     total cpu time spent up to now is      477.9 secs

     total energy              =   -3971.48899652 Ry
     Harris-Foulkes estimate   =   -3971.49496365 Ry
     estimated scf accuracy    <       0.00195425 Ry

     total magnetization       =     0.00 Bohr mag/cell
     absolute magnetization    =    13.95 Bohr mag/cell

     iteration # 18     ecut=    71.00 Ry     beta= 0.10
     Davidson diagonalization with overlap
     ethr =  7.09E-07,  avg # of iterations =  5.8

     total cpu time spent up to now is      522.9 secs

     total energy              =   -3971.49595430 Ry
     Harris-Foulkes estimate   =   -3971.50303767 Ry
     estimated scf accuracy    <       0.00086233 Ry

     total magnetization       =     0.00 Bohr mag/cell
     absolute magnetization    =    10.65 Bohr mag/cell

     iteration # 19     ecut=    71.00 Ry     beta= 0.10
     Davidson diagonalization with overlap
     ethr =  3.85E-07,  avg # of iterations =  5.7

     total cpu time spent up to now is      568.2 secs

     total energy              =   -3971.49592593 Ry
     Harris-Foulkes estimate   =   -3971.50689919 Ry
     estimated scf accuracy    <       0.00034650 Ry

     total magnetization       =     0.00 Bohr mag/cell
     absolute magnetization    =     7.68 Bohr mag/cell

     iteration # 20     ecut=    71.00 Ry     beta= 0.10
     Davidson diagonalization with overlap
     ethr =  1.55E-07,  avg # of iterations =  5.6

     total cpu time spent up to now is      618.9 secs

     total energy              =   -3971.47037537 Ry
     Harris-Foulkes estimate   =   -3971.50376961 Ry
     estimated scf accuracy    <       0.00074484 Ry

     total magnetization       =     0.00 Bohr mag/cell
     absolute magnetization    =    10.18 Bohr mag/cell

     iteration # 21     ecut=    71.00 Ry     beta= 0.10
     Davidson diagonalization with overlap
     ethr =  1.55E-07,  avg # of iterations =  6.0

     total cpu time spent up to now is      669.3 secs

     total energy              =   -3971.49914379 Ry
     Harris-Foulkes estimate   =   -3971.50910452 Ry
     estimated scf accuracy    <       0.00018365 Ry

     total magnetization       =     0.00 Bohr mag/cell
     absolute magnetization    =     4.57 Bohr mag/cell

     iteration # 22     ecut=    71.00 Ry     beta= 0.10
     Davidson diagonalization with overlap
     ethr =  8.20E-08,  avg # of iterations =  6.2

     total cpu time spent up to now is      724.8 secs

     total energy              =   -3971.50996130 Ry
     Harris-Foulkes estimate   =   -3971.51000132 Ry
     estimated scf accuracy    <       0.00002676 Ry

     total magnetization       =    -0.00 Bohr mag/cell
     absolute magnetization    =     1.58 Bohr mag/cell

     iteration # 23     ecut=    71.00 Ry     beta= 0.10
     Davidson diagonalization with overlap
     ethr =  1.19E-08,  avg # of iterations =  4.8

     total cpu time spent up to now is      759.1 secs

     total energy              =   -3971.50985673 Ry
     Harris-Foulkes estimate   =   -3971.50999026 Ry
     estimated scf accuracy    <       0.00001180 Ry

     total magnetization       =    -0.00 Bohr mag/cell
     absolute magnetization    =     1.73 Bohr mag/cell

     iteration # 24     ecut=    71.00 Ry     beta= 0.10
     Davidson diagonalization with overlap
     ethr =  5.27E-09,  avg # of iterations =  5.7

     total cpu time spent up to now is      809.4 secs

     total energy              =   -3971.50937303 Ry
     Harris-Foulkes estimate   =   -3971.51005059 Ry
     estimated scf accuracy    <       0.00000615 Ry

     total magnetization       =    -0.00 Bohr mag/cell
     absolute magnetization    =     1.34 Bohr mag/cell

     iteration # 25     ecut=    71.00 Ry     beta= 0.10
     Davidson diagonalization with overlap
     ethr =  2.74E-09,  avg # of iterations =  6.1

     total cpu time spent up to now is      864.4 secs

     total energy              =   -3971.50995353 Ry
     Harris-Foulkes estimate   =   -3971.51011720 Ry
     estimated scf accuracy    <       0.00000920 Ry

     total magnetization       =    -0.00 Bohr mag/cell
     absolute magnetization    =     0.55 Bohr mag/cell

     iteration # 26     ecut=    71.00 Ry     beta= 0.10
     Davidson diagonalization with overlap
     ethr =  2.74E-09,  avg # of iterations =  6.0

     total cpu time spent up to now is      918.1 secs

     total energy              =   -3971.51011547 Ry
     Harris-Foulkes estimate   =   -3971.51012919 Ry
     estimated scf accuracy    <       0.00000173 Ry

     total magnetization       =    -0.00 Bohr mag/cell
     absolute magnetization    =     0.17 Bohr mag/cell

     iteration # 27     ecut=    71.00 Ry     beta= 0.10
     Davidson diagonalization with overlap
     ethr =  7.70E-10,  avg # of iterations =  5.4

     total cpu time spent up to now is      957.7 secs

     total energy              =   -3971.50947260 Ry
     Harris-Foulkes estimate   =   -3971.51013219 Ry
     estimated scf accuracy    <       0.00000116 Ry

     total magnetization       =    -0.00 Bohr mag/cell
     absolute magnetization    =     0.05 Bohr mag/cell

     iteration # 28     ecut=    71.00 Ry     beta= 0.10
     Davidson diagonalization with overlap
     ethr =  5.17E-10,  avg # of iterations =  6.9

     total cpu time spent up to now is     1009.8 secs

     total energy              =   -3971.50951161 Ry
     Harris-Foulkes estimate   =   -3971.51011599 Ry
     estimated scf accuracy    <       0.00000284 Ry

     total magnetization       =    -0.00 Bohr mag/cell
     absolute magnetization    =     0.68 Bohr mag/cell

     iteration # 29     ecut=    71.00 Ry     beta= 0.10
     Davidson diagonalization with overlap
     ethr =  5.17E-10,  avg # of iterations =  7.1
 
     Magnetic moment per site:
     atom:    1    charge:   12.1847    magn:    0.0035    constr:    0.0000
     atom:    2    charge:   12.1847    magn:   -0.0026    constr:    0.0000
     atom:    3    charge:   12.1846    magn:    0.0024    constr:    0.0000
     atom:    4    charge:   12.1847    magn:   -0.0026    constr:    0.0000
     atom:    5    charge:   12.1846    magn:    0.0024    constr:    0.0000
     atom:    6    charge:   12.1847    magn:   -0.0026    constr:    0.0000
     atom:    7    charge:   12.1846    magn:    0.0022    constr:    0.0000
     atom:    8    charge:   12.1847    magn:   -0.0026    constr:    0.0000
     atom:    9    charge:   12.1846    magn:    0.0024    constr:    0.0000
     atom:   10    charge:   12.1847    magn:   -0.0026    constr:    0.0000
     atom:   11    charge:   12.1846    magn:    0.0022    constr:    0.0000
     atom:   12    charge:   12.1847    magn:   -0.0026    constr:    0.0000
     atom:   13    charge:   12.1846    magn:    0.0022    constr:    0.0000
     atom:   14    charge:   12.1847    magn:   -0.0026    constr:    0.0000
     atom:   15    charge:   12.1847    magn:    0.0029    constr:    0.0000
     atom:   16    charge:   12.1847    magn:   -0.0026    constr:    0.0000

     total cpu time spent up to now is     1061.4 secs

     End of self-consistent calculation

 ------ SPIN UP ------------


          k = 0.0556 0.0556 0.0556 ( 11954 PWs)   bands (ev):

   -51.2128 -51.0014 -51.0011 -51.0011 -50.9641 -50.9638 -50.9638 -50.9638
   -50.9633 -50.9633 -50.9590 -50.9589 -50.9589 -50.9426 -50.9393 -50.7889
   -22.9619 -22.9619 -22.9619 -22.9567 -22.9566 -22.9566 -22.6215 -22.6215
   -22.6096 -22.5126 -22.5070 -22.5070 -22.5070 -22.4665 -22.4665 -22.4441
   -22.4441 -22.4439 -22.3729 -22.3729 -22.3270 -22.2743 -22.2743 -22.2742
   -22.2547 -22.2547 -22.2547 -22.2254 -22.2254 -22.2254 -22.2188 -22.2188
   -22.2187 -22.2095 -22.2095 -22.2094 -22.1913 -22.1911 -22.1911 -21.8993
   -21.8992 -21.8992 -21.8965 -21.8934 -21.8934 -21.8934 -21.8843 -21.8843
    12.6906  16.0217  16.0217  16.0217  16.0419  16.0419  16.0420  16.0925
    16.0925  16.4276  16.4276  16.4276  16.8429  16.8429  16.8429  18.0625
    18.0858  18.0858  18.0859  18.1028  18.1029  18.1029  18.1767  18.1767
    18.3652  18.3652  18.4343  18.4771  18.4771  18.4772  18.9662  18.9662
    18.9663  19.7356  19.7356  19.7951  20.1071  20.1073  20.1073  20.2315
    20.2315  20.2316  20.3412  20.3412  20.3412  20.4584  20.4584  20.4585
    21.4032  21.4032  21.4034  21.5168  21.5168  21.5169  21.7164  21.7165
    21.7165  21.7786  21.7786  21.7786  21.9401  21.9401  21.9402  21.9464
    21.9464  22.0092  22.0092  22.0093  22.3327  22.3328

          k = 0.0556 0.0556 0.1667 ( 11961 PWs)   bands (ev):

   -51.2053 -51.0389 -50.9994 -50.9993 -50.9677 -50.9675 -50.9632 -50.9631
   -50.9622 -50.9577 -50.9574 -50.9573 -50.9439 -50.9405 -50.9284 -50.7942
   -22.9466 -22.9465 -22.9453 -22.9405 -22.9310 -22.9310 -22.6293 -22.6098
   -22.5919 -22.5811 -22.5615 -22.5615 -22.5592 -22.5571 -22.5012 -22.5012
   -22.4359 -22.3842 -22.3697 -22.3386 -22.3180 -22.2814 -22.2739 -22.2738
   -22.2559 -22.2382 -22.2322 -22.2321 -22.2307 -22.2148 -22.2147 -22.2103
   -22.2102 -22.2059 -22.2059 -22.1464 -22.1446 -22.1444 -22.1294 -21.9254
   -21.9158 -21.9158 -21.9139 -21.9091 -21.8989 -21.8989 -21.8942 -21.8888
    12.8329  15.8733  16.0591  16.0591  16.1210  16.1210  16.1390  16.1581
    16.1666  16.1796  16.4647  16.4647  16.8709  16.8709  17.0713  17.9225
    18.0018  18.0500  18.0660  18.0815  18.0897  18.1472  18.1472  18.1982
    18.1982  18.2266  18.4412  18.4413  18.6137  18.6194  18.8683  18.8684
    19.4283  19.7012  19.7273  19.8405  19.8406  19.8717  19.9263  20.0600
    20.0601  20.0997  20.4417  20.4418  20.5899  20.5899  20.6299  20.7554
    20.9183  20.9184  21.0998  21.2263  21.2264  21.2370  21.3782  21.6947
    21.6948  21.8437  21.8502  21.8503  21.9560  21.9561  21.9659  21.9875
    21.9972  22.0006  22.0006  22.0303  22.3367  22.3665

          k = 0.0556 0.0556 0.2778 ( 11976 PWs)   bands (ev):

   -51.1906 -51.0759 -50.9959 -50.9957 -50.9731 -50.9729 -50.9619 -50.9617
   -50.9599 -50.9569 -50.9568 -50.9555 -50.9462 -50.9427 -50.8956 -50.8047
   -22.9126 -22.9119 -22.9118 -22.9088 -22.8864 -22.8864 -22.6587 -22.6480
   -22.6379 -22.6379 -22.6336 -22.5933 -22.5866 -22.5816 -22.5815 -22.5655
   -22.4045 -22.4003 -22.3790 -22.3716 -22.2875 -22.2699 -22.2698 -22.2622
   -22.2530 -22.2400 -22.2400 -22.2120 -22.2119 -22.2101 -22.2101 -22.1944
   -22.1790 -22.1439 -22.1438 -22.0869 -22.0859 -22.0858 -22.0713 -21.9738
   -21.9430 -21.9430 -21.9430 -21.9402 -21.9157 -21.9156 -21.9150 -21.9062
    13.1115  15.2477  16.1464  16.1465  16.2535  16.2535  16.3135  16.3427
    16.3646  16.3808  16.4999  16.4999  16.8707  16.8707  17.1091  17.5585
    17.7403  17.8162  17.9784  18.0318  18.0449  18.0571  18.2844  18.2845
    18.3687  18.3687  18.4746  18.4747  18.8232  18.8233  18.9201  18.9404
    19.4811  19.4812  19.6765  19.6784  19.6784  19.7017  19.7147  19.7972
    19.9845  20.2040  20.2735  20.2736  20.5234  20.5236  20.7623  20.7623
    20.7755  20.8105  20.8105  20.8146  20.8259  20.9746  21.1134  21.6431
    21.7099  21.7100  21.8437  21.8438  22.0147  22.0351  22.0666  22.0817
    22.0817  22.3111  22.3138  22.3353  22.3444  22.3761

          k = 0.0556 0.0556 0.3889 ( 11969 PWs)   bands (ev):

   -51.1693 -51.1108 -50.9911 -50.9909 -50.9791 -50.9789 -50.9603 -50.9601
   -50.9574 -50.9573 -50.9567 -50.9525 -50.9494 -50.9457 -50.8662 -50.8204
   -22.8647 -22.8626 -22.8599 -22.8598 -22.8250 -22.8250 -22.7346 -22.7302
   -22.7181 -22.7181 -22.6676 -22.6676 -22.6345 -22.6170 -22.5527 -22.5304
   -22.4580 -22.4358 -22.3693 -22.3464 -22.2944 -22.2821 -22.2639 -22.2639
   -22.2483 -22.2482 -22.2104 -22.2103 -22.2098 -22.2097 -22.2014 -22.1145
   -22.1057 -22.0825 -22.0825 -22.0389 -22.0326 -22.0299 -22.0298 -22.0186
   -21.9856 -21.9854 -21.9805 -21.9804 -21.9456 -21.9434 -21.9433 -21.9345
    13.5149  14.6147  16.2672  16.2672  16.4268  16.4268  16.4807  16.4807
    16.5309  16.5589  16.6796  16.6906  16.7823  16.7823  16.9961  17.1596
    17.4311  17.4506  17.9530  17.9800  17.9930  18.0044  18.4918  18.4919
    18.6072  18.6072  18.6798  18.6799  18.9199  18.9200  19.1591  19.1591
    19.2986  19.2986  19.3064  19.3266  19.6550  19.6551  19.6653  19.7053
    19.7159  19.7215  19.8714  19.8715  20.1364  20.2644  20.2724  20.5551
    20.5841  21.0607  21.0608  21.0993  21.0994  21.3543  21.3708  21.5217
    21.5257  21.5258  21.6602  21.6603  22.0815  22.0950  22.1789  22.2387
    22.2432  22.2484  22.3546  22.3773  22.3850  22.3955

          k = 0.0556 0.0556-0.5000 ( 11990 PWs)   bands (ev):

   -51.1424 -51.1423 -50.9853 -50.9853 -50.9852 -50.9851 -50.9587 -50.9586
   -50.9585 -50.9584 -50.9531 -50.9530 -50.9491 -50.9491 -50.8411 -50.8410
   -22.8038 -22.8037 -22.8033 -22.8032 -22.7939 -22.7939 -22.7939 -22.7939
   -22.7507 -22.7507 -22.7507 -22.7507 -22.6302 -22.6301 -22.5095 -22.5094
   -22.4868 -22.4868 -22.3317 -22.3316 -22.3148 -22.3148 -22.2566 -22.2565
   -22.2565 -22.2564 -22.2098 -22.2097 -22.2097 -22.2096 -22.1163 -22.1162
   -22.0442 -22.0441 -22.0403 -22.0402 -22.0274 -22.0274 -22.0274 -22.0274
   -21.9851 -21.9851 -21.9818 -21.9818 -21.9817 -21.9817 -21.9724 -21.9723
    14.0248  14.0249  16.3924  16.3924  16.3924  16.3924  16.6168  16.6168
    16.6168  16.6168  16.7928  16.7929  16.8146  16.8147  17.0547  17.0548
    17.0564  17.0564  17.9622  17.9622  17.9756  17.9757  18.7558  18.7558
    18.7559  18.7559  18.8759  18.8759  18.8760  18.8760  19.1496  19.1496
    19.1497  19.1498  19.3482  19.3482  19.3483  19.3483  19.6751  19.6752
    19.7070  19.7071  19.7604  19.7604  19.7720  19.7720  20.3274  20.3275
    20.9927  20.9928  21.3056  21.3056  21.3056  21.3057  21.4074  21.4074
    21.4075  21.4075  21.8038  21.8038  21.9639  21.9640  22.1590  22.1591
    22.1671  22.1672  22.3189  22.3190  22.3661  22.3662

          k = 0.0556 0.1667 0.1667 ( 11981 PWs)   bands (ev):

   -51.1980 -51.0360 -51.0358 -50.9975 -50.9783 -50.9664 -50.9661 -50.9624
   -50.9564 -50.9562 -50.9493 -50.9455 -50.9414 -50.9289 -50.9287 -50.7993
   -22.9418 -22.9306 -22.9306 -22.9166 -22.9166 -22.8956 -22.6428 -22.6243
   -22.6085 -22.6084 -22.6032 -22.5963 -22.5866 -22.5636 -22.5394 -22.4553
   -22.4286 -22.4284 -22.3633 -22.3371 -22.3370 -22.2859 -22.2681 -22.2679
   -22.2502 -22.2470 -22.2470 -22.2442 -22.2265 -22.2265 -22.2194 -22.2026
   -22.1994 -22.1648 -22.1486 -22.1484 -22.1086 -22.0856 -22.0855 -21.9644
   -21.9430 -21.9273 -21.9273 -21.9135 -21.9134 -21.9031 -21.8930 -21.8845
    12.9727  15.9302  15.9302  16.0439  16.1773  16.1773  16.2327  16.2356
    16.2356  16.2429  16.2624  16.5139  16.9157  17.1040  17.1040  17.7939
    17.9353  18.0072  18.0072  18.1237  18.1238  18.1577  18.1694  18.1695
    18.1740  18.3158  18.3264  18.3796  18.6102  18.6371  18.7528  19.2367
    19.2368  19.6219  19.6748  19.6750  19.7052  19.7361  19.9074  19.9998
    20.3310  20.3312  20.3946  20.3947  20.4364  20.5379  20.6716  20.7428
    20.7428  20.8097  20.8099  20.9558  20.9559  21.0885  21.3918  21.3919
    21.7012  21.8270  21.8796  21.8796  21.9206  21.9574  21.9589  21.9590
    21.9747  22.1828  22.2944  22.3024  22.3025  22.3450

          k = 0.0556 0.1667 0.2778 ( 11967 PWs)   bands (ev):

   -51.1836 -51.0719 -51.0303 -50.9941 -50.9897 -50.9715 -50.9637 -50.9611
   -50.9558 -50.9543 -50.9483 -50.9431 -50.9426 -50.9297 -50.8970 -50.8094
   -22.9175 -22.8992 -22.8977 -22.8883 -22.8748 -22.8416 -22.6794 -22.6792
   -22.6566 -22.6543 -22.6542 -22.6411 -22.6021 -22.5810 -22.5284 -22.5119
   -22.4321 -22.3979 -22.3541 -22.3471 -22.3295 -22.3285 -22.2897 -22.2743
   -22.2688 -22.2571 -22.2482 -22.2243 -22.2240 -22.2040 -22.1857 -22.1739
   -22.1521 -22.1416 -22.1138 -22.0904 -22.0630 -22.0320 -22.0311 -22.0216
   -21.9799 -21.9502 -21.9492 -21.9421 -21.9267 -21.9231 -21.8982 -21.8913
    13.2464  15.3273  16.0173  16.0641  16.2647  16.3667  16.3838  16.3904
    16.4043  16.4270  16.4546  16.5715  16.9451  17.0939  17.1527  17.5944
    17.6558  17.7725  18.0668  18.0833  18.1060  18.1208  18.1898  18.2503
    18.2764  18.3230  18.3644  18.5285  18.6639  18.8052  18.8655  19.1049
    19.3500  19.4652  19.4863  19.5475  19.5700  19.6277  19.6789  19.8862
    19.9330  20.1594  20.1627  20.3445  20.4202  20.5121  20.5157  20.5199
    20.6540  20.7680  20.7978  20.8656  20.9013  21.0996  21.1019  21.5293
    21.6744  21.7431  21.7804  21.8472  21.8914  21.9377  21.9918  22.0169
    22.2233  22.2870  22.2909  22.3236  22.3748  22.3811

          k = 0.0556 0.1667 0.3889 ( 11978 PWs)   bands (ev):

   -51.1629 -51.1059 -51.0222 -51.0013 -50.9893 -50.9775 -50.9602 -50.9594
   -50.9564 -50.9520 -50.9516 -50.9456 -50.9375 -50.9313 -50.8687 -50.8245
   -22.8756 -22.8535 -22.8494 -22.8476 -22.8178 -22.7720 -22.7520 -22.7392
   -22.7276 -22.7217 -22.6754 -22.6657 -22.6604 -22.6020 -22.5478 -22.4871
   -22.4546 -22.3948 -22.3863 -22.3346 -22.3178 -22.3109 -22.2868 -22.2862
   -22.2764 -22.2680 -22.2609 -22.2249 -22.2239 -22.1742 -22.1575 -22.1393
   -22.1026 -22.0928 -22.0823 -22.0635 -22.0375 -22.0255 -22.0183 -21.9843
   -21.9842 -21.9831 -21.9826 -21.9796 -21.9527 -21.9488 -21.9150 -21.9109
    13.6420  14.7145  16.0908  16.0988  16.3836  16.5383  16.5761  16.5831
    16.5867  16.6496  16.7202  16.7559  16.8807  16.9785  17.0450  17.2223
    17.4284  17.4725  17.9999  18.0376  18.0649  18.0687  18.3762  18.4322
    18.4497  18.4994  18.5202  18.6784  18.7941  18.9592  19.1443  19.2036
    19.2166  19.2563  19.3331  19.3350  19.4853  19.4953  19.5263  19.5857
    19.6016  19.6495  19.7582  19.9230  20.0166  20.0287  20.3549  20.7848
    20.8270  21.0273  21.0287  21.1065  21.1114  21.1364  21.3511  21.4246
    21.4630  21.5629  21.6621  21.7215  21.8887  22.0185  22.0533  22.1316
    22.1787  22.2050  22.2146  22.3039  22.3705  22.3740

          k = 0.0556 0.1667-0.5000 ( 11984 PWs)   bands (ev):

   -51.1367 -51.1366 -51.0124 -51.0123 -50.9836 -50.9835 -50.9578 -50.9577
   -50.9562 -50.9561 -50.9486 -50.9485 -50.9338 -50.9337 -50.8444 -50.8443
   -22.8192 -22.8192 -22.7969 -22.7968 -22.7955 -22.7954 -22.7890 -22.7889
   -22.7496 -22.7496 -22.6908 -22.6908 -22.6678 -22.6677 -22.5052 -22.5051
   -22.4395 -22.4395 -22.3527 -22.3526 -22.3070 -22.3069 -22.3034 -22.3033
   -22.2783 -22.2783 -22.2245 -22.2244 -22.1741 -22.1741 -22.1648 -22.1648
   -22.0791 -22.0791 -22.0384 -22.0383 -22.0290 -22.0289 -22.0182 -22.0182
   -21.9912 -21.9911 -21.9797 -21.9797 -21.9435 -21.9435 -21.9419 -21.9419
    14.1403  14.1404  16.1172  16.1172  16.5026  16.5026  16.7251  16.7251
    16.7906  16.7906  16.8312  16.8313  16.9094  16.9095  17.0930  17.0930
    17.1016  17.1016  18.0024  18.0025  18.0373  18.0374  18.6241  18.6241
    18.6524  18.6524  18.6852  18.6852  18.7862  18.7862  19.1575  19.1575
    19.2363  19.2363  19.3273  19.3273  19.4621  19.4621  19.4729  19.4730
    19.5609  19.5609  19.5969  19.5969  19.6210  19.6210  20.5762  20.5762
    21.1153  21.1154  21.1802  21.1802  21.3467  21.3467  21.4107  21.4108
    21.4470  21.4470  21.4635  21.4635  21.8741  21.8741  22.1115  22.1116
    22.1315  22.1316  22.2765  22.2766  22.3689  22.3690

          k = 0.0556 0.2778 0.2778 ( 11991 PWs)   bands (ev):

   -51.1700 -51.0643 -51.0641 -51.0069 -50.9907 -50.9689 -50.9687 -50.9597
   -50.9541 -50.9539 -50.9518 -50.9443 -50.9302 -50.9001 -50.9000 -50.8188
   -22.9039 -22.8706 -22.8706 -22.8525 -22.8525 -22.7796 -22.7088 -22.7051
   -22.7050 -22.6863 -22.6846 -22.6819 -22.6408 -22.5604 -22.4841 -22.4335
   -22.4316 -22.4313 -22.3871 -22.3870 -22.3447 -22.3079 -22.2973 -22.2884
   -22.2884 -22.2648 -22.2646 -22.2469 -22.2469 -22.2379 -22.1618 -22.1276
   -22.0977 -22.0975 -22.0973 -22.0886 -22.0752 -22.0323 -22.0248 -21.9839
   -21.9838 -21.9628 -21.9628 -21.9487 -21.9487 -21.9417 -21.8917 -21.8854
    13.5098  15.4680  15.4681  15.9921  16.4906  16.4906  16.5078  16.5537
    16.5812  16.5812  16.5985  16.6753  17.0385  17.1509  17.1510  17.5763
    17.6724  17.7478  17.7479  18.1366  18.1919  18.1920  18.2397  18.2466
    18.2466  18.2569  18.3428  18.5083  18.7482  18.7602  18.8434  19.2158
    19.2159  19.3544  19.3545  19.3768  19.4145  19.4257  19.4841  19.6297
    19.9384  19.9385  20.0265  20.0266  20.2076  20.2418  20.2420  20.3835
    20.8678  20.8679  20.9545  21.0104  21.0630  21.0631  21.3450  21.4766
    21.4769  21.6691  21.8110  21.8110  21.8598  21.8791  21.8791  21.9010
    21.9814  22.2260  22.2288  22.2301  22.3709  22.3817

          k = 0.0556 0.2778 0.3889 ( 11985 PWs)   bands (ev):

   -51.1503 -51.0963 -51.0532 -51.0238 -50.9860 -50.9745 -50.9650 -50.9579
   -50.9560 -50.9547 -50.9515 -50.9463 -50.9197 -50.9047 -50.8737 -50.8327
   -22.8726 -22.8317 -22.8295 -22.8213 -22.8045 -22.7693 -22.7451 -22.7320
   -22.7306 -22.7162 -22.7031 -22.7021 -22.6921 -22.5290 -22.5238 -22.4406
   -22.4348 -22.4095 -22.3704 -22.3444 -22.3292 -22.3286 -22.3244 -22.3240
   -22.3152 -22.3021 -22.2753 -22.2476 -22.2457 -22.1989 -22.1678 -22.1408
   -22.1085 -22.0771 -22.0744 -22.0537 -22.0482 -22.0381 -22.0029 -21.9847
   -21.9816 -21.9813 -21.9692 -21.9607 -21.9438 -21.9435 -21.8970 -21.8925
    13.8885  14.9010  15.6356  15.9080  16.6034  16.6790  16.7323  16.7370
    16.7468  16.8010  16.8356  16.8703  17.0432  17.0586  17.0590  17.4169
    17.4386  17.4745  18.0530  18.0906  18.1274  18.1562  18.1663  18.2863
    18.3334  18.3822  18.4536  18.4795  18.9299  18.9303  18.9324  19.0256
    19.0668  19.2086  19.2253  19.2989  19.3076  19.3209  19.4480  19.4780
    19.5432  19.5728  19.6420  19.6427  19.7908  19.8177  20.6031  20.6284
    21.0496  21.0618  21.1810  21.1912  21.2006  21.2118  21.2178  21.3181
    21.4522  21.5288  21.6417  21.6989  21.7382  21.8714  21.9083  21.9478
    22.0362  22.0563  22.1324  22.1409  22.2631  22.3742

          k = 0.0556 0.2778-0.5000 ( 11998 PWs)   bands (ev):

   -51.1254 -51.1254 -51.0395 -51.0394 -50.9805 -50.9804 -50.9606 -50.9605
   -50.9562 -50.9561 -50.9489 -50.9488 -50.9113 -50.9112 -50.8511 -50.8511
   -22.8267 -22.8267 -22.7842 -22.7842 -22.7839 -22.7838 -22.7808 -22.7808
   -22.7491 -22.7490 -22.7146 -22.7146 -22.6164 -22.6164 -22.4885 -22.4884
   -22.3812 -22.3812 -22.3714 -22.3713 -22.3492 -22.3491 -22.3122 -22.3122
   -22.3047 -22.3046 -22.2548 -22.2548 -22.2481 -22.2480 -22.1356 -22.1355
   -22.1230 -22.1229 -22.0242 -22.0242 -22.0152 -22.0152 -22.0066 -22.0066
   -22.0050 -22.0049 -21.9788 -21.9788 -21.9145 -21.9145 -21.9124 -21.9124
    14.3618  14.3619  15.7903  15.7903  16.7041  16.7042  16.8778  16.8779
    16.9084  16.9085  16.9216  16.9216  17.1134  17.1135  17.1540  17.1541
    17.1841  17.1841  18.0821  18.0822  18.1201  18.1201  18.4090  18.4091
    18.4407  18.4408  18.4640  18.4641  18.6796  18.6796  19.2289  19.2289
    19.2331  19.2331  19.2368  19.2368  19.2586  19.2586  19.3198  19.3198
    19.4176  19.4177  19.4692  19.4692  19.5145  19.5146  20.8938  20.8938
    21.0114  21.0114  21.0898  21.0898  21.3051  21.3052  21.4386  21.4387
    21.4640  21.4640  21.5121  21.5122  21.6549  21.6549  22.0211  22.0211
    22.0410  22.0411  22.1992  22.1993  22.2467  22.2467

          k = 0.0556 0.3889 0.3889 ( 12008 PWs)   bands (ev):

   -51.1322 -51.0826 -51.0825 -51.0454 -50.9815 -50.9706 -50.9704 -50.9607
   -50.9560 -50.9526 -50.9524 -50.9479 -50.9042 -50.8813 -50.8811 -50.8450
   -22.8525 -22.8028 -22.8028 -22.7875 -22.7875 -22.7707 -22.7706 -22.7552
   -22.7478 -22.7476 -22.7343 -22.7179 -22.6215 -22.5001 -22.4371 -22.4368
   -22.4193 -22.4192 -22.4042 -22.3783 -22.3600 -22.3422 -22.3421 -22.3375
   -22.3198 -22.2757 -22.2757 -22.2631 -22.2594 -22.2592 -22.2538 -22.1340
   -22.1109 -22.0644 -22.0642 -22.0401 -22.0261 -22.0155 -21.9938 -21.9901
   -21.9888 -21.9887 -21.9804 -21.9804 -21.9136 -21.9135 -21.8901 -21.8868
    14.2391  15.1485  15.1486  15.6818  16.8004  16.8636  16.8920  16.8953
    16.8953  17.0170  17.0171  17.0305  17.0306  17.0938  17.1736  17.4049
    17.4172  17.7240  17.7241  18.1399  18.1691  18.1710  18.2280  18.2281
    18.2432  18.2433  18.3149  18.5206  18.5775  18.8520  18.9521  18.9522
    18.9651  19.1190  19.1463  19.1972  19.2695  19.2696  19.2919  19.2920
    19.3768  19.3814  19.3815  19.4947  19.5800  20.1658  20.1660  20.9236
    20.9996  21.0947  21.1738  21.1739  21.3429  21.3430  21.3735  21.3863
    21.5538  21.5540  21.5814  21.7122  21.7204  21.7575  21.7575  21.7849
    21.7849  22.0217  22.0237  22.0307  22.1521  22.2773

          k = 0.0556 0.3889-0.5000 ( 11996 PWs)   bands (ev):

   -51.1093 -51.1092 -51.0653 -51.0653 -50.9762 -50.9761 -50.9657 -50.9656
   -50.9541 -50.9541 -50.9501 -50.9501 -50.8915 -50.8914 -50.8612 -50.8612
   -22.8173 -22.8173 -22.7735 -22.7734 -22.7729 -22.7728 -22.7700 -22.7699
   -22.7581 -22.7581 -22.7513 -22.7513 -22.5310 -22.5309 -22.4631 -22.4630
   -22.3921 -22.3920 -22.3792 -22.3792 -22.3463 -22.3463 -22.3455 -22.3455
   -22.3194 -22.3194 -22.3014 -22.3014 -22.2726 -22.2726 -22.1955 -22.1955
   -22.0852 -22.0851 -22.0257 -22.0256 -22.0073 -22.0073 -22.0038 -22.0037
   -21.9988 -21.9987 -21.9827 -21.9826 -21.8955 -21.8955 -21.8941 -21.8941
    14.6699  14.6699  15.4211  15.4211  16.9295  16.9295  16.9485  16.9485
    16.9653  16.9653  17.1508  17.1509  17.1965  17.1966  17.2756  17.2756
    17.3984  17.3985  18.1037  18.1037  18.1568  18.1569  18.1616  18.1616
    18.2132  18.2133  18.2785  18.2785  18.7378  18.7378  19.0052  19.0052
    19.0250  19.0250  19.0805  19.0805  19.0908  19.0908  19.1400  19.1400
    19.4241  19.4241  19.4312  19.4312  19.7506  19.7506  20.5639  20.5639
    21.0891  21.0891  21.2318  21.2318  21.4059  21.4059  21.4980  21.4981
    21.5769  21.5770  21.5821  21.5821  21.5833  21.5833  21.8922  21.8923
    21.9040  21.9041  21.9262  21.9262  22.1109  22.1110

          k = 0.0556-0.5000-0.5000 ( 11996 PWs)   bands (ev):

   -51.0891 -51.0889 -51.0888 -51.0888 -50.9712 -50.9710 -50.9709 -50.9709
   -50.9521 -50.9520 -50.9519 -50.9519 -50.8748 -50.8747 -50.8746 -50.8746
   -22.7935 -22.7935 -22.7934 -22.7934 -22.7694 -22.7694 -22.7694 -22.7693
   -22.7582 -22.7582 -22.7582 -22.7581 -22.4392 -22.4392 -22.4390 -22.4390
   -22.4307 -22.4305 -22.4304 -22.4304 -22.3708 -22.3708 -22.3707 -22.3707
   -22.2915 -22.2915 -22.2914 -22.2914 -22.2572 -22.2572 -22.2569 -22.2569
   -22.0527 -22.0526 -22.0525 -22.0525 -21.9978 -21.9978 -21.9977 -21.9977
   -21.9925 -21.9925 -21.9924 -21.9924 -21.8886 -21.8886 -21.8885 -21.8885
    15.0352  15.0353  15.0353  15.0353  16.9663  16.9664  16.9664  16.9664
    17.1412  17.1412  17.1413  17.1413  17.2951  17.2951  17.2951  17.2951
    17.7384  17.7386  17.7386  17.7386  18.1409  18.1409  18.1409  18.1410
    18.1934  18.1934  18.1934  18.1934  18.8553  18.8553  18.8554  18.8554
    18.9578  18.9579  18.9580  18.9580  19.0496  19.0497  19.0497  19.0497
    19.3996  19.3997  19.3998  19.3998  20.1371  20.1371  20.1373  20.1373
    21.2004  21.2004  21.2006  21.2006  21.5685  21.5685  21.5687  21.5687
    21.6199  21.6200  21.6200  21.6200  21.7373  21.7374  21.7374  21.7374
    21.7418  21.7419  21.7419  21.7419  22.0797  22.0797

          k = 0.1667 0.1667 0.1667 ( 12005 PWs)   bands (ev):

   -51.1908 -51.0332 -51.0330 -51.0330 -50.9768 -50.9765 -50.9765 -50.9488
   -50.9486 -50.9484 -50.9484 -50.9406 -50.9293 -50.9291 -50.9291 -50.8042
   -22.9255 -22.9255 -22.9254 -22.8838 -22.8837 -22.8837 -22.6620 -22.6392
   -22.6391 -22.6391 -22.6306 -22.6306 -22.5462 -22.5462 -22.5278 -22.4697
   -22.4697 -22.4695 -22.3522 -22.3522 -22.3521 -22.2733 -22.2733 -22.2687
   -22.2687 -22.2686 -22.2227 -22.2227 -22.2226 -22.2090 -22.2090 -22.2089
   -22.1545 -22.1545 -22.1545 -22.1539 -22.0559 -22.0557 -22.0557 -22.0038
   -21.9493 -21.9493 -21.9493 -21.9085 -21.9085 -21.9084 -21.8953 -21.8953
    13.1105  15.9955  15.9956  15.9956  16.1657  16.1657  16.1657  16.3314
    16.3314  16.3445  16.3445  16.3445  17.1596  17.1596  17.1596  17.6849
    17.9849  17.9849  17.9850  18.0552  18.0552  18.1506  18.1506  18.1507
    18.2855  18.2856  18.2856  18.5101  18.5305  18.5305  19.0614  19.0614
    19.0616  19.5831  19.5833  19.5833  19.6030  19.6030  20.0990  20.0990
    20.0991  20.1432  20.3191  20.3191  20.3192  20.5336  20.5336  20.5337
    20.7698  20.7699  20.7699  20.9068  20.9068  20.9069  21.6439  21.6439
    21.6441  21.7497  21.7497  21.7498  21.8746  21.8746  21.9622  21.9622
    21.9623  22.2991  22.2991  22.2992  22.3462  22.3462

          k = 0.1667 0.1667 0.2778 ( 11953 PWs)   bands (ev):

   -51.1768 -51.0680 -51.0276 -51.0274 -50.9879 -50.9877 -50.9734 -50.9533
   -50.9470 -50.9422 -50.9420 -50.9406 -50.9300 -50.9299 -50.8984 -50.8139
   -22.9020 -22.9019 -22.8932 -22.8606 -22.8333 -22.8333 -22.7024 -22.6909
   -22.6908 -22.6670 -22.6543 -22.6332 -22.6067 -22.5363 -22.5362 -22.5008
   -22.4861 -22.4156 -22.3901 -22.3552 -22.3551 -22.3027 -22.2912 -22.2911
   -22.2864 -22.2804 -22.2262 -22.1940 -22.1939 -22.1878 -22.1677 -22.1676
   -22.1601 -22.1601 -22.1042 -22.0934 -22.0632 -22.0164 -22.0163 -22.0078
   -21.9797 -21.9797 -21.9633 -21.9383 -21.9164 -21.9122 -21.9121 -21.8962
    13.3800  15.4124  16.0987  16.0988  16.1884  16.1884  16.4003  16.4679
    16.4966  16.5006  16.5006  16.5567  17.1859  17.1859  17.2268  17.5858
    17.5993  17.9048  18.0036  18.0367  18.0368  18.1096  18.2173  18.2474
    18.2475  18.3362  18.4632  18.4633  18.6205  18.7984  18.9043  18.9044
    19.2701  19.3612  19.3613  19.4664  19.5004  19.5681  19.7796  19.7797
    19.8114  19.8115  20.0946  20.2722  20.2723  20.3017  20.3336  20.3401
    20.6739  20.8228  20.8228  21.0179  21.0179  21.2225  21.3550  21.5950
    21.5951  21.7141  21.8376  21.8830  21.8830  21.9245  21.9647  21.9893
    21.9909  21.9910  22.2798  22.2857  22.3078  22.3446

          k = 0.1667 0.1667 0.3889 ( 11970 PWs)   bands (ev):

   -51.1566 -51.1011 -51.0197 -51.0195 -50.9992 -50.9990 -50.9691 -50.9585
   -50.9452 -50.9416 -50.9373 -50.9371 -50.9315 -50.9313 -50.8711 -50.8285
   -22.8626 -22.8625 -22.8461 -22.8281 -22.7688 -22.7688 -22.7512 -22.7512
   -22.7455 -22.7140 -22.6807 -22.6720 -22.6144 -22.6144 -22.5720 -22.4748
   -22.4509 -22.4405 -22.3476 -22.3473 -22.3473 -22.3368 -22.3130 -22.3130
   -22.3048 -22.2834 -22.2477 -22.1821 -22.1821 -22.1659 -22.1659 -22.1362
   -22.1129 -22.1128 -22.1094 -22.0578 -22.0374 -22.0174 -22.0174 -21.9860
   -21.9831 -21.9790 -21.9789 -21.9663 -21.9479 -21.9254 -21.9253 -21.9089
    13.7688  14.8174  16.1918  16.1918  16.2223  16.2223  16.6688  16.6933
    16.6933  16.7141  16.7291  16.8440  17.0882  17.0882  17.1374  17.2429
    17.4277  17.5379  17.9949  18.0612  18.1464  18.1647  18.2681  18.2682
    18.4063  18.4064  18.6653  18.6654  18.7886  18.7887  18.9382  19.1107
    19.2106  19.2107  19.3208  19.3209  19.3907  19.4004  19.4246  19.4452
    19.4452  19.5216  19.7435  19.7436  19.7914  19.8085  20.5531  20.6553
    20.9228  21.0688  21.1405  21.1405  21.1518  21.1518  21.4341  21.4341
    21.4755  21.4867  21.6007  21.7118  21.7118  21.9498  22.0480  22.0889
    22.1844  22.2076  22.3081  22.3082  22.3184  22.3385

          k = 0.1667 0.1667-0.5000 ( 11958 PWs)   bands (ev):

   -51.1310 -51.1310 -51.0101 -51.0100 -51.0099 -51.0098 -50.9640 -50.9639
   -50.9433 -50.9432 -50.9338 -50.9338 -50.9337 -50.9336 -50.8476 -50.8475
   -22.8107 -22.8107 -22.8107 -22.8106 -22.7886 -22.7885 -22.7858 -22.7857
   -22.6941 -22.6941 -22.6941 -22.6940 -22.6815 -22.6815 -22.5275 -22.5274
   -22.3985 -22.3984 -22.3904 -22.3904 -22.3323 -22.3323 -22.3323 -22.3323
   -22.2687 -22.2686 -22.2185 -22.2185 -22.1731 -22.1730 -22.1730 -22.1730
   -22.0621 -22.0620 -22.0620 -22.0620 -22.0404 -22.0403 -22.0177 -22.0177
   -21.9886 -21.9885 -21.9479 -21.9479 -21.9478 -21.9478 -21.9329 -21.9328
    14.2571  14.2571  16.2335  16.2336  16.2336  16.2336  16.9018  16.9019
    16.9019  16.9019  16.9295  16.9295  16.9455  16.9455  17.1228  17.1228
    17.1601  17.1601  18.0183  18.0184  18.1103  18.1103  18.6070  18.6070
    18.6071  18.6071  18.6107  18.6107  18.6108  18.6108  19.1746  19.1746
    19.1746  19.1746  19.3449  19.3449  19.3490  19.3490  19.3491  19.3491
    19.3881  19.3882  19.4507  19.4507  19.4652  19.4652  20.7991  20.7991
    21.0417  21.0417  21.2118  21.2119  21.2799  21.2799  21.2799  21.2799
    21.4597  21.4597  21.4597  21.4598  22.0210  22.0211  22.0703  22.0704
    22.1246  22.1247  22.2392  22.2393  22.3294  22.3295

          k = 0.1667 0.2778 0.2778 ( 11979 PWs)   bands (ev):

   -51.1635 -51.0605 -51.0604 -51.0221 -51.0045 -50.9842 -50.9840 -50.9594
   -50.9413 -50.9411 -50.9391 -50.9305 -50.9301 -50.9014 -50.9012 -50.8229
   -22.8880 -22.8715 -22.8715 -22.8178 -22.8178 -22.7755 -22.7248 -22.7156
   -22.7118 -22.7117 -22.6690 -22.6502 -22.6018 -22.5808 -22.5213 -22.4594
   -22.4592 -22.4380 -22.4183 -22.4182 -22.3772 -22.3312 -22.3312 -22.3250
   -22.2580 -22.2233 -22.2231 -22.2090 -22.2090 -22.1698 -22.1671 -22.1548
   -22.1270 -22.1221 -22.1000 -22.0999 -22.0673 -22.0170 -21.9947 -21.9824
   -21.9824 -21.9759 -21.9758 -21.9399 -21.9398 -21.9297 -21.9064 -21.8968
    13.6406  15.5638  15.5639  16.1212  16.2345  16.4277  16.4277  16.6005
    16.6573  16.6635  16.7082  16.7083  17.2638  17.2639  17.3029  17.5426
    17.7122  17.7123  17.8379  17.9772  18.0780  18.1966  18.1966  18.3133
    18.3560  18.3560  18.3842  18.4835  18.6635  18.7186  18.7659  19.0658
    19.0659  19.2420  19.2812  19.2814  19.3769  19.3824  19.4903  19.5523
    19.6626  19.6626  19.8808  19.8809  19.9555  19.9703  19.9705  20.5661
    20.9465  20.9465  20.9988  21.1681  21.2565  21.2567  21.4453  21.4731
    21.7119  21.7119  21.7165  21.7167  21.7226  21.8616  21.9094  21.9095
    21.9276  22.2335  22.2373  22.2398  22.2498  22.3250

          k = 0.1667 0.2778 0.3889 ( 11972 PWs)   bands (ev):

   -51.1443 -51.0917 -51.0497 -51.0209 -51.0145 -50.9949 -50.9789 -50.9660
   -50.9401 -50.9387 -50.9368 -50.9317 -50.9200 -50.9057 -50.8758 -50.8363
   -22.8578 -22.8373 -22.8274 -22.7968 -22.7642 -22.7633 -22.7524 -22.7480
   -22.7175 -22.7090 -22.7046 -22.6926 -22.6384 -22.5716 -22.5404 -22.4873
   -22.4768 -22.4065 -22.3872 -22.3841 -22.3818 -22.3752 -22.3569 -22.3568
   -22.2788 -22.2520 -22.2265 -22.2038 -22.1961 -22.1783 -22.1655 -22.1442
   -22.1106 -22.0928 -22.0784 -22.0609 -22.0453 -22.0347 -22.0079 -21.9915
   -21.9804 -21.9737 -21.9587 -21.9459 -21.9459 -21.9422 -21.9102 -21.9018
    14.0147  15.0100  15.7454  16.0374  16.3710  16.4583  16.7627  16.7754
    16.8442  16.8859  16.8991  16.9836  17.1762  17.1774  17.2792  17.4152
    17.4645  17.5611  18.0068  18.0625  18.1010  18.1365  18.2455  18.2490
    18.3316  18.4433  18.4755  18.5960  18.6790  18.8168  18.8480  18.9481
    19.0094  19.1078  19.1426  19.1983  19.2590  19.2671  19.2848  19.3119
    19.4212  19.4428  19.4478  19.4504  19.5774  19.6022  20.2393  20.8281
    21.0179  21.1431  21.2462  21.2486  21.2507  21.3102  21.3279  21.4157
    21.5749  21.5777  21.5826  21.7428  21.7434  21.8566  21.9737  22.0205
    22.0913  22.1388  22.1552  22.2516  22.3208  22.3219

          k = 0.1667 0.2778-0.5000 ( 11982 PWs)   bands (ev):

   -51.1201 -51.1200 -51.0363 -51.0362 -51.0053 -51.0052 -50.9728 -50.9727
   -50.9392 -50.9391 -50.9338 -50.9337 -50.9120 -50.9119 -50.8541 -50.8540
   -22.8152 -22.8152 -22.7955 -22.7955 -22.7726 -22.7725 -22.7720 -22.7720
   -22.7103 -22.7102 -22.7015 -22.7015 -22.6244 -22.6244 -22.5288 -22.5287
   -22.4363 -22.4363 -22.3851 -22.3850 -22.3760 -22.3759 -22.3338 -22.3338
   -22.2884 -22.2884 -22.2422 -22.2422 -22.1864 -22.1864 -22.1254 -22.1253
   -22.1108 -22.1108 -22.0399 -22.0399 -22.0322 -22.0321 -22.0089 -22.0089
   -21.9978 -21.9977 -21.9572 -21.9571 -21.9236 -21.9236 -21.9172 -21.9172
    14.4809  14.4810  15.9130  15.9130  16.4506  16.4506  16.9832  16.9833
    17.0240  17.0240  17.1069  17.1069  17.1445  17.1446  17.1603  17.1604
    17.2676  17.2677  18.0842  18.0843  18.1867  18.1867  18.3735  18.3736
    18.4109  18.4110  18.4814  18.4814  18.6280  18.6280  19.0333  19.0333
    19.1397  19.1397  19.1484  19.1485  19.1885  19.1885  19.1999  19.2000
    19.2598  19.2599  19.3003  19.3004  19.3487  19.3488  20.5956  20.5956
    21.1114  21.1114  21.2623  21.2623  21.3730  21.3730  21.4440  21.4440
    21.5134  21.5134  21.5240  21.5241  21.9504  21.9504  22.0056  22.0057
    22.0608  22.0609  22.1712  22.1713  22.2960  22.2960

          k = 0.1667 0.3889 0.3889 ( 11988 PWs)   bands (ev):

   -51.1266 -51.0784 -51.0782 -51.0420 -51.0074 -50.9891 -50.9889 -50.9740
   -50.9371 -50.9365 -50.9363 -50.9325 -50.9051 -50.8831 -50.8830 -50.8481
   -22.8373 -22.8024 -22.8024 -22.7617 -22.7616 -22.7603 -22.7572 -22.7571
   -22.7495 -22.7261 -22.7208 -22.6727 -22.6282 -22.5477 -22.4878 -22.4614
   -22.4613 -22.4579 -22.4577 -22.4113 -22.4080 -22.4079 -22.3980 -22.3318
   -22.2841 -22.2374 -22.2203 -22.2201 -22.2119 -22.2119 -22.1904 -22.1109
   -22.1100 -22.0609 -22.0608 -22.0564 -22.0466 -22.0165 -22.0029 -22.0029
   -21.9834 -21.9761 -21.9760 -21.9710 -21.9210 -21.9209 -21.9043 -21.8990
    14.3639  15.2658  15.2659  15.8124  16.5764  16.7820  16.7820  16.9022
    16.9783  17.1371  17.1477  17.1478  17.1641  17.1642  17.4340  17.4410
    17.4946  17.7246  17.7247  18.0080  18.1383  18.2253  18.2463  18.2464
    18.2907  18.2908  18.4479  18.5133  18.5413  18.5855  18.8924  18.9006
    18.9007  18.9664  19.0982  19.0983  19.1063  19.1410  19.1411  19.1613
    19.1645  19.2174  19.2175  19.3371  19.3738  19.8372  19.8374  20.5687
    21.1333  21.2896  21.3870  21.3871  21.4261  21.4529  21.4530  21.4805
    21.6310  21.7365  21.7486  21.7486  21.7943  21.7945  21.8252  21.8253
    21.9945  22.0497  22.0556  22.0624  22.1532  22.2664

          k = 0.1667 0.3889-0.5000 ( 11980 PWs)   bands (ev):

   -51.1043 -51.1043 -51.0615 -51.0614 -50.9987 -50.9986 -50.9819 -50.9818
   -50.9365 -50.9364 -50.9340 -50.9339 -50.8928 -50.8928 -50.8638 -50.8637
   -22.8037 -22.8037 -22.7777 -22.7777 -22.7622 -22.7622 -22.7523 -22.7522
   -22.7459 -22.7459 -22.7141 -22.7140 -22.5442 -22.5442 -22.5093 -22.5092
   -22.4559 -22.4559 -22.4338 -22.4337 -22.4194 -22.4194 -22.3708 -22.3708
   -22.2759 -22.2758 -22.2260 -22.2259 -22.2009 -22.2009 -22.1634 -22.1634
   -22.0830 -22.0829 -22.0212 -22.0212 -22.0181 -22.0180 -22.0142 -22.0142
   -22.0055 -22.0054 -21.9722 -21.9722 -21.9078 -21.9077 -21.9050 -21.9050
    14.7921  14.7921  15.5468  15.5468  16.7297  16.7297  17.0385  17.0385
    17.0819  17.0819  17.1431  17.1431  17.3535  17.3535  17.4047  17.4047
    17.4277  17.4277  18.1042  18.1043  18.1576  18.1576  18.1772  18.1773
    18.1862  18.1862  18.3517  18.3518  18.6960  18.6960  18.7797  18.7797
    18.9193  18.9194  18.9822  18.9822  18.9955  18.9955  19.0560  19.0560
    19.2411  19.2412  19.2658  19.2659  19.4740  19.4740  20.1648  20.1649
    21.3375  21.3375  21.4471  21.4471  21.5539  21.5540  21.6067  21.6068
    21.6260  21.6261  21.6315  21.6316  21.7389  21.7389  21.9145  21.9146
    21.9373  21.9373  22.0935  22.0936  22.1416  22.1417

          k = 0.1667-0.5000-0.5000 ( 12000 PWs)   bands (ev):

   -51.0846 -51.0845 -51.0844 -51.0844 -50.9909 -50.9907 -50.9906 -50.9906
   -50.9349 -50.9348 -50.9347 -50.9347 -50.8769 -50.8767 -50.8766 -50.8766
   -22.7793 -22.7793 -22.7793 -22.7792 -22.7642 -22.7642 -22.7642 -22.7641
   -22.7317 -22.7317 -22.7317 -22.7316 -22.4763 -22.4762 -22.4761 -22.4761
   -22.4581 -22.4581 -22.4579 -22.4579 -22.4495 -22.4495 -22.4495 -22.4494
   -22.2188 -22.2188 -22.2187 -22.2186 -22.2140 -22.2140 -22.2139 -22.2139
   -22.0471 -22.0469 -22.0468 -22.0468 -22.0094 -22.0094 -22.0093 -22.0093
   -21.9924 -21.9924 -21.9924 -21.9923 -21.9017 -21.9017 -21.9016 -21.9016
    15.1602  15.1602  15.1603  15.1603  16.9942  16.9942  16.9942  16.9942
    17.0798  17.0799  17.0799  17.0799  17.4885  17.4885  17.4885  17.4886
    17.7603  17.7604  17.7605  17.7605  18.0921  18.0921  18.0921  18.0922
    18.2565  18.2565  18.2565  18.2566  18.7509  18.7509  18.7510  18.7510
    18.8145  18.8145  18.8146  18.8146  18.9724  18.9724  18.9725  18.9725
    19.2251  19.2251  19.2252  19.2252  19.7825  19.7825  19.7827  19.7827
    21.5089  21.5089  21.5090  21.5090  21.6353  21.6354  21.6354  21.6354
    21.7838  21.7839  21.7839  21.7839  21.7887  21.7888  21.7888  21.7888
    21.8259  21.8259  21.8261  21.8261  22.0710  22.0710

          k = 0.2778 0.2778 0.2778 ( 11965 PWs)   bands (ev):

   -51.1509 -51.0534 -51.0531 -51.0531 -51.0001 -50.9998 -50.9998 -50.9680
   -50.9352 -50.9302 -50.9300 -50.9300 -50.9040 -50.9037 -50.9037 -50.8312
   -22.8568 -22.8568 -22.8567 -22.7684 -22.7684 -22.7684 -22.7350 -22.7287
   -22.7286 -22.7286 -22.6439 -22.6439 -22.6056 -22.6056 -22.5091 -22.5091
   -22.5089 -22.4442 -22.4442 -22.4441 -22.3857 -22.3727 -22.3726 -22.3726
   -22.1886 -22.1762 -22.1762 -22.1761 -22.1755 -22.1755 -22.1725 -22.1725
   -22.1723 -22.1055 -22.1055 -22.1054 -22.0409 -22.0082 -22.0082 -22.0081
   -21.9633 -21.9631 -21.9631 -21.9355 -21.9355 -21.9355 -21.9192 -21.9192
    13.8952  15.7367  15.7368  15.7368  16.3711  16.3711  16.3711  16.7729
    16.7729  16.8699  16.8699  16.8700  17.4319  17.4319  17.4320  17.5513
    17.6885  17.6885  17.6886  18.0622  18.0622  18.1022  18.2606  18.2606
    18.2607  18.5069  18.5070  18.5070  18.5618  18.5618  18.8873  18.8873
    18.8874  19.1283  19.1285  19.1285  19.2791  19.2791  19.2792  19.3222
    19.3222  19.5682  19.5683  19.5683  19.6386  19.6386  19.6387  20.8271
    21.0017  21.1247  21.1247  21.1248  21.4179  21.4179  21.4180  21.6133
    21.6133  21.6134  21.8230  21.8230  21.8974  21.8974  21.8974  22.0522
    22.0522  22.0524  22.2410  22.2410  22.2411  22.2493

          k = 0.2778 0.2778 0.3889 ( 11979 PWs)   bands (ev):

   -51.1327 -51.0828 -51.0430 -51.0428 -51.0156 -51.0154 -50.9935 -50.9769
   -50.9325 -50.9302 -50.9209 -50.9207 -50.9079 -50.9077 -50.8801 -50.8436
   -22.8291 -22.8291 -22.8113 -22.7598 -22.7574 -22.7573 -22.7430 -22.7257
   -22.7080 -22.7079 -22.6836 -22.6810 -22.6078 -22.5719 -22.5718 -22.5520
   -22.5061 -22.4505 -22.4505 -22.4308 -22.4290 -22.4093 -22.4093 -22.3322
   -22.2636 -22.2247 -22.1875 -22.1853 -22.1496 -22.1496 -22.1232 -22.1231
   -22.1148 -22.1148 -22.1002 -22.0467 -22.0402 -22.0401 -22.0204 -22.0042
   -21.9786 -21.9523 -21.9510 -21.9509 -21.9392 -21.9364 -21.9363 -21.9166
    14.2590  15.2148  15.9484  15.9485  16.2874  16.2874  16.7250  16.9415
    16.9975  17.0549  17.0550  17.1410  17.3971  17.4022  17.4022  17.4098
    17.5442  17.6276  17.9133  17.9134  18.0833  18.1956  18.3365  18.3453
    18.3780  18.3788  18.3789  18.6056  18.6056  18.7148  18.7149  18.7588
    18.9392  18.9393  19.0064  19.0065  19.0241  19.0746  19.1358  19.1454
    19.1815  19.2395  19.2422  19.2423  19.3219  19.3220  19.8244  20.5422
    21.1221  21.3011  21.3561  21.3562  21.4867  21.4868  21.5431  21.5431
    21.6742  21.7439  21.7636  21.7875  21.7875  21.8083  21.9591  21.9662
    22.1548  22.1577  22.2467  22.2467  22.2488  22.2541

          k = 0.2778 0.2778-0.5000 ( 11978 PWs)   bands (ev):

   -51.1097 -51.1096 -51.0302 -51.0302 -51.0301 -51.0300 -50.9857 -50.9856
   -50.9310 -50.9309 -50.9135 -50.9134 -50.9134 -50.9133 -50.8600 -50.8599
   -22.7936 -22.7936 -22.7935 -22.7935 -22.7529 -22.7528 -22.7511 -22.7510
   -22.7091 -22.7091 -22.6404 -22.6404 -22.6404 -22.6404 -22.5613 -22.5612
   -22.4925 -22.4924 -22.4371 -22.4370 -22.4370 -22.4370 -22.3458 -22.3458
   -22.2782 -22.2782 -22.1904 -22.1903 -22.1294 -22.1294 -22.1293 -22.1293
   -22.0787 -22.0787 -22.0786 -22.0786 -22.0340 -22.0339 -22.0079 -22.0078
   -21.9953 -21.9952 -21.9415 -21.9415 -21.9414 -21.9414 -21.9234 -21.9234
    14.7093  14.7093  16.1459  16.1460  16.1460  16.1460  17.1564  17.1564
    17.1567  17.1568  17.2280  17.2281  17.2429  17.2429  17.2430  17.2430
    17.4062  17.4062  18.1318  18.1319  18.2536  18.2536  18.2947  18.2948
    18.2948  18.2949  18.5388  18.5388  18.5388  18.5389  18.7396  18.7396
    18.9567  18.9568  19.0345  19.0345  19.0346  19.0346  19.0497  19.0497
    19.0498  19.0498  19.0939  19.0939  19.1397  19.1398  20.1356  20.1356
    21.4385  21.4385  21.4936  21.4936  21.5088  21.5088  21.5089  21.5089
    21.5909  21.5909  21.5910  21.5910  21.9970  21.9971  22.0562  22.0563
    22.1193  22.1194  22.1245  22.1245  22.2538  22.2538

          k = 0.2778 0.3889 0.3889 ( 11986 PWs)   bands (ev):

   -51.1158 -51.0701 -51.0699 -51.0355 -51.0333 -51.0080 -51.0078 -50.9879
   -50.9278 -50.9223 -50.9221 -50.9111 -50.9070 -50.8868 -50.8866 -50.8544
   -22.8075 -22.7880 -22.7880 -22.7558 -22.7470 -22.7469 -22.7334 -22.7140
   -22.7140 -22.6944 -22.6905 -22.6418 -22.6146 -22.6032 -22.5681 -22.5116
   -22.5115 -22.4964 -22.4962 -22.4822 -22.4694 -22.4693 -22.4560 -22.3370
   -22.2769 -22.1719 -22.1717 -22.1591 -22.1543 -22.1543 -22.1218 -22.1100
   -22.0833 -22.0785 -22.0727 -22.0574 -22.0574 -22.0233 -22.0232 -22.0129
   -21.9743 -21.9742 -21.9697 -21.9584 -21.9349 -21.9349 -21.9319 -21.9230
    14.6049  15.4880  15.4881  16.0646  16.2073  16.6381  16.6381  17.0927
    17.1969  17.2212  17.3318  17.3319  17.3725  17.3726  17.4506  17.6360
    17.6481  17.7194  17.7195  17.8350  18.1680  18.2920  18.2926  18.3001
    18.3001  18.3755  18.3755  18.4755  18.4965  18.5737  18.6641  18.8124
    18.8125  18.8251  18.8501  18.8501  18.8514  18.8743  18.8744  18.9784
    18.9785  19.0319  19.0563  19.0635  19.1246  19.4350  19.4351  20.0887
    21.4539  21.4939  21.4940  21.5222  21.5684  21.6617  21.7264  21.7450
    21.7451  21.7757  21.7757  21.7915  21.8711  21.8712  21.9400  22.0865
    22.1237  22.1239  22.1250  22.1533  22.2314  22.2430

          k = 0.2778 0.3889-0.5000 ( 11978 PWs)   bands (ev):

   -51.0947 -51.0946 -51.0540 -51.0539 -51.0214 -51.0213 -50.9985 -50.9984
   -50.9245 -50.9244 -50.9159 -50.9158 -50.8957 -50.8956 -50.8689 -50.8688
   -22.7775 -22.7775 -22.7663 -22.7663 -22.7379 -22.7378 -22.7236 -22.7236
   -22.7228 -22.7228 -22.6638 -22.6638 -22.5694 -22.5694 -22.5643 -22.5642
   -22.5274 -22.5273 -22.4924 -22.4924 -22.4891 -22.4890 -22.4164 -22.4164
   -22.2232 -22.2232 -22.1562 -22.1562 -22.1338 -22.1338 -22.1227 -22.1227
   -22.0789 -22.0788 -22.0496 -22.0496 -22.0220 -22.0220 -22.0139 -22.0139
   -22.0081 -22.0080 -21.9669 -21.9669 -21.9316 -21.9316 -21.9261 -21.9261
    15.0264  15.0265  15.7875  15.7875  16.4597  16.4597  17.0530  17.0531
    17.2437  17.2437  17.3056  17.3057  17.4841  17.4841  17.5323  17.5323
    17.5867  17.5867  18.0992  18.0993  18.1228  18.1229  18.2250  18.2250
    18.2257  18.2257  18.4348  18.4349  18.5331  18.5331  18.6210  18.6210
    18.7451  18.7451  18.7556  18.7557  18.8688  18.8688  18.9049  18.9049
    18.9651  18.9651  19.0329  19.0329  19.1031  19.1031  19.7023  19.7023
    21.6332  21.6332  21.6523  21.6523  21.6793  21.6794  21.7066  21.7067
    21.7440  21.7440  21.8079  21.8079  21.9775  21.9776  21.9822  21.9823
    22.0599  22.0600  22.0630  22.0630  22.1557  22.1558

          k = 0.2778-0.5000-0.5000 ( 11972 PWs)   bands (ev):

   -51.0760 -51.0758 -51.0757 -51.0757 -51.0108 -51.0106 -51.0105 -51.0105
   -50.9196 -50.9194 -50.9194 -50.9194 -50.8809 -50.8808 -50.8807 -50.8807
   -22.7513 -22.7513 -22.7512 -22.7512 -22.7427 -22.7426 -22.7426 -22.7426
   -22.6924 -22.6924 -22.6924 -22.6923 -22.5375 -22.5373 -22.5373 -22.5373
   -22.5251 -22.5251 -22.5251 -22.5250 -22.4928 -22.4928 -22.4926 -22.4926
   -22.1712 -22.1712 -22.1711 -22.1710 -22.1405 -22.1405 -22.1404 -22.1404
   -22.0375 -22.0374 -22.0373 -22.0373 -22.0278 -22.0278 -22.0277 -22.0277
   -21.9965 -21.9965 -21.9965 -21.9964 -21.9275 -21.9275 -21.9274 -21.9274
    15.4000  15.4000  15.4001  15.4001  16.7955  16.7955  16.7955  16.7956
    17.2966  17.2967  17.2968  17.2968  17.7308  17.7308  17.7308  17.7309
    17.8013  17.8015  17.8015  17.8015  18.0403  18.0403  18.0403  18.0403
    18.3350  18.3350  18.3350  18.3351  18.5473  18.5474  18.5474  18.5474
    18.7396  18.7396  18.7397  18.7397  18.7463  18.7464  18.7464  18.7464
    18.9700  18.9701  18.9701  18.9701  19.3400  19.3400  19.3401  19.3401
    21.7188  21.7189  21.7189  21.7189  21.8455  21.8456  21.8456  21.8456
    21.8586  21.8587  21.8587  21.8587  21.9106  21.9106  21.9106  21.9107
    22.0514  22.0516  22.0517  22.0517  22.1937  22.1939

          k = 0.3889 0.3889 0.3889 ( 11968 PWs)   bands (ev):

   -51.1003 -51.0583 -51.0580 -51.0580 -51.0264 -51.0261 -51.0261 -51.0017
   -50.9203 -50.9102 -50.9100 -50.9100 -50.8925 -50.8923 -50.8923 -50.8639
   -22.7642 -22.7642 -22.7641 -22.7353 -22.7352 -22.7352 -22.7105 -22.6614
   -22.6614 -22.6613 -22.6558 -22.6558 -22.6424 -22.6424 -22.5480 -22.5480
   -22.5479 -22.5471 -22.5471 -22.5469 -22.5207 -22.5206 -22.5206 -22.4028
   -22.2230 -22.1255 -22.1255 -22.1253 -22.1066 -22.1066 -22.1066 -22.0875
   -22.0875 -22.0592 -22.0592 -22.0591 -22.0504 -22.0504 -22.0503 -22.0171
   -21.9724 -21.9724 -21.9723 -21.9585 -21.9585 -21.9521 -21.9519 -21.9519
    14.9438  15.7879  15.7880  15.7880  16.4189  16.4190  16.4190  17.2418
    17.3415  17.3415  17.4946  17.4946  17.4947  17.6587  17.6587  17.6588
    17.7220  17.7220  17.7220  17.8142  18.2257  18.2257  18.3613  18.3613
    18.3918  18.3918  18.3919  18.4667  18.4667  18.4667  18.5249  18.5249
    18.5249  18.6968  18.6968  18.6969  18.7164  18.7166  18.7166  18.7631
    18.7633  18.7633  18.9324  18.9324  19.0550  19.0550  19.0552  19.6349
    21.6387  21.6387  21.6387  21.8195  21.8481  21.8482  21.8482  21.8591
    21.8591  21.8810  21.8810  21.8810  21.9247  21.9247  21.9248  22.1151
    22.1151  22.1486  22.1486  22.1487  22.1716  22.1717

          k = 0.3889 0.3889-0.5000 ( 11970 PWs)   bands (ev):

   -51.0808 -51.0807 -51.0434 -51.0433 -51.0432 -51.0431 -51.0148 -51.0147
   -50.9144 -50.9143 -50.9002 -50.9002 -50.9001 -50.9000 -50.8766 -50.8765
   -22.7413 -22.7413 -22.7412 -22.7412 -22.7086 -22.7085 -22.7011 -22.7011
   -22.6854 -22.6854 -22.6065 -22.6064 -22.6039 -22.6039 -22.6038 -22.6038
   -22.5846 -22.5845 -22.5517 -22.5517 -22.5517 -22.5516 -22.4747 -22.4747
   -22.1722 -22.1722 -22.0992 -22.0991 -22.0845 -22.0845 -22.0844 -22.0844
   -22.0738 -22.0738 -22.0738 -22.0738 -22.0296 -22.0295 -22.0248 -22.0247
   -22.0043 -22.0042 -21.9659 -21.9659 -21.9659 -21.9658 -21.9522 -21.9521
    15.3516  15.3516  16.1191  16.1191  16.1191  16.1192  16.8383  16.8383
    17.4905  17.4905  17.5882  17.5882  17.6172  17.6173  17.6173  17.6173
    17.8016  17.8017  18.0726  18.0727  18.0727  18.0728  18.2666  18.2667
    18.3040  18.3041  18.4157  18.4157  18.4213  18.4213  18.5277  18.5277
    18.5278  18.5278  18.6827  18.6828  18.6828  18.6829  18.7417  18.7417
    18.7417  18.7417  18.8028  18.8028  18.8178  18.8179  19.2622  19.2622
    21.7558  21.7558  21.7881  21.7881  21.7882  21.7882  21.9329  21.9329
    21.9330  21.9330  21.9933  21.9934  22.0144  22.0145  22.0866  22.0867
    22.1363  22.1364  22.1386  22.1387  22.1387  22.1388

          k = 0.3889-0.5000-0.5000 ( 11932 PWs)   bands (ev):

   -51.0635 -51.0633 -51.0633 -51.0633 -51.0301 -51.0299 -51.0299 -51.0299
   -50.9065 -50.9063 -50.9062 -50.9062 -50.8872 -50.8870 -50.8869 -50.8869
   -22.7102 -22.7102 -22.7101 -22.7101 -22.7064 -22.7063 -22.7063 -22.7063
   -22.6442 -22.6442 -22.6442 -22.6441 -22.5999 -22.5998 -22.5998 -22.5998
   -22.5953 -22.5953 -22.5952 -22.5952 -22.5390 -22.5390 -22.5389 -22.5388
   -22.1256 -22.1256 -22.1255 -22.1254 -22.0733 -22.0733 -22.0733 -22.0733
   -22.0532 -22.0532 -22.0531 -22.0531 -22.0260 -22.0258 -22.0258 -22.0258
   -22.0042 -22.0041 -22.0041 -22.0041 -21.9653 -21.9653 -21.9652 -21.9652
    15.7323  15.7324  15.7324  15.7324  16.4960  16.4961  16.4961  16.4961
    17.5941  17.5942  17.5942  17.5942  17.8565  17.8566  17.8567  17.8567
    17.9821  17.9822  17.9822  17.9822  17.9869  17.9869  17.9869  17.9870
    18.4291  18.4291  18.4292  18.4292  18.4642  18.4644  18.4644  18.4644
    18.4648  18.4648  18.4648  18.4649  18.6419  18.6419  18.6420  18.6420
    18.7200  18.7201  18.7201  18.7201  18.9023  18.9023  18.9024  18.9024
    21.8337  21.8339  21.8339  21.8339  21.9116  21.9118  21.9118  21.9118
    22.0187  22.0189  22.0189  22.0189  22.1097  22.1097  22.1097  22.1098
    22.1178  22.1180  22.1180  22.1180  22.1594  22.1595

          k =-0.5000-0.5000-0.5000 ( 11992 PWs)   bands (ev):

   -51.0482 -51.0480 -51.0478 -51.0478 -51.0478 -51.0477 -51.0477 -51.0477
   -50.8959 -50.8956 -50.8954 -50.8954 -50.8954 -50.8953 -50.8953 -50.8953
   -22.6577 -22.6577 -22.6577 -22.6576 -22.6576 -22.6576 -22.6576 -22.6576
   -22.6576 -22.6576 -22.6576 -22.6575 -22.6575 -22.6574 -22.6574 -22.6574
   -22.5917 -22.5917 -22.5917 -22.5917 -22.5917 -22.5917 -22.5915 -22.5914
   -22.0857 -22.0857 -22.0857 -22.0857 -22.0857 -22.0857 -22.0855 -22.0854
   -22.0148 -22.0148 -22.0148 -22.0146 -22.0146 -22.0146 -22.0146 -22.0146
   -22.0146 -22.0146 -22.0146 -22.0145 -22.0145 -22.0145 -22.0145 -22.0145
    16.1180  16.1181  16.1181  16.1181  16.1181  16.1181  16.1181  16.1181
    17.9190  17.9190  17.9192  17.9192  17.9192  17.9192  17.9192  17.9192
    17.9192  17.9192  17.9193  17.9193  17.9193  17.9193  17.9193  17.9193
    18.5240  18.5240  18.5240  18.5240  18.5240  18.5240  18.5241  18.5241
    18.5343  18.5343  18.5343  18.5343  18.5343  18.5343  18.5344  18.5344
    18.5344  18.5344  18.5344  18.5345  18.5345  18.5345  18.5345  18.5345
    21.9713  21.9713  21.9715  21.9715  21.9716  21.9716  21.9716  21.9716
    21.9716  21.9716  21.9717  21.9717  21.9717  21.9717  21.9717  21.9717
    22.3817  22.3817  22.3818  22.3818  22.3818  22.3819

 ------ SPIN DOWN ----------


          k = 0.0556 0.0556 0.0556 ( 11954 PWs)   bands (ev):

   -51.2129 -51.0014 -51.0014 -51.0011 -50.9640 -50.9640 -50.9637 -50.9636
   -50.9636 -50.9635 -50.9591 -50.9591 -50.9587 -50.9427 -50.9394 -50.7889
   -22.9621 -22.9619 -22.9619 -22.9567 -22.9567 -22.9566 -22.6216 -22.6216
   -22.6096 -22.5127 -22.5071 -22.5071 -22.5070 -22.4666 -22.4666 -22.4442
   -22.4441 -22.4441 -22.3730 -22.3730 -22.3271 -22.2744 -22.2743 -22.2743
   -22.2548 -22.2548 -22.2548 -22.2255 -22.2255 -22.2255 -22.2189 -22.2189
   -22.2189 -22.2096 -22.2095 -22.2095 -22.1913 -22.1913 -22.1911 -21.8994
   -21.8994 -21.8993 -21.8966 -21.8936 -21.8934 -21.8934 -21.8844 -21.8844
    12.6906  16.0217  16.0217  16.0217  16.0419  16.0419  16.0419  16.0925
    16.0925  16.4277  16.4277  16.4277  16.8429  16.8429  16.8429  18.0625
    18.0857  18.0858  18.0858  18.1028  18.1028  18.1029  18.1767  18.1767
    18.3652  18.3652  18.4343  18.4771  18.4772  18.4772  18.9661  18.9662
    18.9662  19.7356  19.7356  19.7950  20.1071  20.1071  20.1073  20.2314
    20.2315  20.2315  20.3412  20.3412  20.3412  20.4583  20.4584  20.4584
    21.4031  21.4033  21.4033  21.5168  21.5168  21.5169  21.7164  21.7164
    21.7165  21.7786  21.7786  21.7786  21.9400  21.9401  21.9401  21.9464
    21.9464  22.0092  22.0092  22.0092  22.3326  22.3327

          k = 0.0556 0.0556 0.1667 ( 11961 PWs)   bands (ev):

   -51.2053 -51.0389 -50.9995 -50.9993 -50.9677 -50.9676 -50.9633 -50.9631
   -50.9623 -50.9579 -50.9576 -50.9573 -50.9439 -50.9406 -50.9285 -50.7943
   -22.9467 -22.9466 -22.9453 -22.9406 -22.9311 -22.9310 -22.6293 -22.6099
   -22.5919 -22.5812 -22.5616 -22.5616 -22.5593 -22.5571 -22.5013 -22.5013
   -22.4360 -22.3842 -22.3698 -22.3387 -22.3181 -22.2815 -22.2739 -22.2739
   -22.2560 -22.2383 -22.2322 -22.2322 -22.2308 -22.2148 -22.2148 -22.2104
   -22.2103 -22.2060 -22.2059 -22.1465 -22.1447 -22.1445 -22.1295 -21.9254
   -21.9159 -21.9159 -21.9140 -21.9092 -21.8990 -21.8989 -21.8943 -21.8889
    12.8329  15.8733  16.0591  16.0591  16.1210  16.1210  16.1390  16.1581
    16.1666  16.1796  16.4647  16.4647  16.8709  16.8709  17.0714  17.9225
    18.0018  18.0500  18.0660  18.0815  18.0897  18.1471  18.1472  18.1981
    18.1982  18.2266  18.4412  18.4413  18.6137  18.6194  18.8683  18.8684
    19.4283  19.7011  19.7272  19.8405  19.8406  19.8717  19.9263  20.0600
    20.0601  20.0997  20.4417  20.4417  20.5899  20.5899  20.6299  20.7554
    20.9183  20.9184  21.0998  21.2264  21.2264  21.2370  21.3783  21.6947
    21.6947  21.8437  21.8502  21.8502  21.9560  21.9560  21.9658  21.9874
    21.9971  22.0005  22.0006  22.0303  22.3366  22.3664

          k = 0.0556 0.0556 0.2778 ( 11976 PWs)   bands (ev):

   -51.1907 -51.0759 -50.9960 -50.9958 -50.9732 -50.9730 -50.9620 -50.9618
   -50.9600 -50.9570 -50.9568 -50.9555 -50.9463 -50.9428 -50.8956 -50.8048
   -22.9126 -22.9119 -22.9119 -22.9089 -22.8865 -22.8864 -22.6587 -22.6481
   -22.6380 -22.6379 -22.6337 -22.5933 -22.5867 -22.5816 -22.5816 -22.5656
   -22.4046 -22.4004 -22.3791 -22.3717 -22.2876 -22.2699 -22.2699 -22.2623
   -22.2531 -22.2401 -22.2401 -22.2120 -22.2120 -22.2102 -22.2102 -22.1945
   -22.1791 -22.1439 -22.1439 -22.0870 -22.0860 -22.0859 -22.0714 -21.9738
   -21.9431 -21.9431 -21.9430 -21.9403 -21.9158 -21.9157 -21.9151 -21.9063
    13.1116  15.2477  16.1465  16.1465  16.2535  16.2535  16.3135  16.3426
    16.3646  16.3808  16.4999  16.4999  16.8707  16.8708  17.1091  17.5585
    17.7403  17.8162  17.9784  18.0318  18.0449  18.0571  18.2844  18.2845
    18.3686  18.3687  18.4746  18.4747  18.8232  18.8232  18.9201  18.9404
    19.4811  19.4812  19.6765  19.6783  19.6784  19.7017  19.7147  19.7971
    19.9845  20.2039  20.2735  20.2736  20.5235  20.5235  20.7623  20.7623
    20.7755  20.8105  20.8105  20.8145  20.8259  20.9746  21.1133  21.6430
    21.7099  21.7100  21.8437  21.8437  22.0147  22.0350  22.0665  22.0816
    22.0816  22.3110  22.3137  22.3352  22.3443  22.3760

          k = 0.0556 0.0556 0.3889 ( 11969 PWs)   bands (ev):

   -51.1694 -51.1109 -50.9911 -50.9910 -50.9792 -50.9790 -50.9604 -50.9602
   -50.9575 -50.9573 -50.9568 -50.9526 -50.9495 -50.9458 -50.8663 -50.8205
   -22.8647 -22.8627 -22.8600 -22.8599 -22.8251 -22.8251 -22.7347 -22.7303
   -22.7182 -22.7181 -22.6677 -22.6676 -22.6345 -22.6171 -22.5528 -22.5304
   -22.4580 -22.4359 -22.3693 -22.3464 -22.2945 -22.2821 -22.2640 -22.2640
   -22.2483 -22.2483 -22.2104 -22.2104 -22.2098 -22.2098 -22.2014 -22.1146
   -22.1058 -22.0826 -22.0825 -22.0389 -22.0327 -22.0300 -22.0299 -22.0186
   -21.9857 -21.9854 -21.9806 -21.9805 -21.9456 -21.9435 -21.9433 -21.9346
    13.5150  14.6148  16.2672  16.2672  16.4268  16.4268  16.4807  16.4808
    16.5308  16.5588  16.6796  16.6906  16.7823  16.7823  16.9961  17.1596
    17.4311  17.4506  17.9530  17.9800  17.9930  18.0044  18.4918  18.4918
    18.6071  18.6072  18.6798  18.6799  18.9199  18.9200  19.1590  19.1591
    19.2985  19.2986  19.3064  19.3266  19.6550  19.6551  19.6653  19.7053
    19.7159  19.7215  19.8714  19.8715  20.1364  20.2644  20.2725  20.5550
    20.5841  21.0607  21.0607  21.0993  21.0993  21.3543  21.3707  21.5217
    21.5257  21.5257  21.6602  21.6602  22.0814  22.0949  22.1788  22.2387
    22.2431  22.2483  22.3545  22.3772  22.3849  22.3954

          k = 0.0556 0.0556-0.5000 ( 11990 PWs)   bands (ev):

   -51.1425 -51.1424 -50.9854 -50.9853 -50.9852 -50.9852 -50.9588 -50.9587
   -50.9586 -50.9585 -50.9532 -50.9532 -50.9492 -50.9491 -50.8411 -50.8410
   -22.8039 -22.8038 -22.8034 -22.8033 -22.7940 -22.7940 -22.7939 -22.7939
   -22.7508 -22.7508 -22.7507 -22.7507 -22.6302 -22.6302 -22.5096 -22.5095
   -22.4869 -22.4868 -22.3317 -22.3317 -22.3149 -22.3148 -22.2566 -22.2566
   -22.2565 -22.2565 -22.2099 -22.2098 -22.2098 -22.2098 -22.1164 -22.1163
   -22.0443 -22.0442 -22.0404 -22.0403 -22.0275 -22.0275 -22.0275 -22.0275
   -21.9852 -21.9851 -21.9819 -21.9818 -21.9817 -21.9817 -21.9725 -21.9724
    14.0249  14.0249  16.3924  16.3924  16.3924  16.3924  16.6168  16.6168
    16.6168  16.6169  16.7928  16.7929  16.8146  16.8147  17.0548  17.0548
    17.0564  17.0564  17.9622  17.9622  17.9756  17.9756  18.7558  18.7558
    18.7559  18.7559  18.8759  18.8759  18.8759  18.8760  19.1496  19.1496
    19.1497  19.1497  19.3482  19.3482  19.3483  19.3483  19.6751  19.6752
    19.7070  19.7070  19.7604  19.7604  19.7720  19.7720  20.3274  20.3275
    20.9927  20.9928  21.3055  21.3055  21.3056  21.3056  21.4074  21.4074
    21.4074  21.4074  21.8037  21.8038  21.9639  21.9639  22.1589  22.1590
    22.1670  22.1671  22.3188  22.3189  22.3660  22.3661

          k = 0.0556 0.1667 0.1667 ( 11981 PWs)   bands (ev):

   -51.1980 -51.0361 -51.0359 -50.9976 -50.9783 -50.9664 -50.9663 -50.9625
   -50.9565 -50.9563 -50.9494 -50.9456 -50.9414 -50.9290 -50.9288 -50.7994
   -22.9418 -22.9307 -22.9306 -22.9167 -22.9166 -22.8957 -22.6428 -22.6244
   -22.6086 -22.6085 -22.6033 -22.5964 -22.5867 -22.5637 -22.5395 -22.4553
   -22.4286 -22.4285 -22.3634 -22.3372 -22.3371 -22.2860 -22.2681 -22.2680
   -22.2502 -22.2471 -22.2470 -22.2443 -22.2266 -22.2266 -22.2195 -22.2027
   -22.1994 -22.1649 -22.1487 -22.1485 -22.1087 -22.0857 -22.0855 -21.9645
   -21.9431 -21.9274 -21.9273 -21.9136 -21.9135 -21.9032 -21.8931 -21.8846
    12.9727  15.9302  15.9302  16.0439  16.1773  16.1773  16.2327  16.2356
    16.2356  16.2429  16.2624  16.5139  16.9158  17.1040  17.1040  17.7939
    17.9353  18.0071  18.0072  18.1237  18.1238  18.1577  18.1694  18.1694
    18.1739  18.3158  18.3264  18.3796  18.6102  18.6371  18.7528  19.2367
    19.2368  19.6219  19.6748  19.6749  19.7051  19.7361  19.9073  19.9998
    20.3310  20.3311  20.3946  20.3947  20.4364  20.5379  20.6716  20.7428
    20.7428  20.8097  20.8099  20.9559  20.9559  21.0885  21.3917  21.3919
    21.7011  21.8269  21.8795  21.8795  21.9205  21.9573  21.9589  21.9589
    21.9746  22.1828  22.2943  22.3024  22.3025  22.3449

          k = 0.0556 0.1667 0.2778 ( 11967 PWs)   bands (ev):

[...]
    20.8165  20.8165  20.9655  20.9656  21.0054  21.0054

          k = 0.1642-0.4925-0.4925 ( 12516 PWs)   bands (ev):

   -52.1382 -52.1382 -52.1382 -52.1381 -52.0598 -52.0598 -52.0598 -52.0597
   -52.0128 -52.0128 -52.0128 -52.0127 -51.9635 -51.9635 -51.9635 -51.9634
   -23.7808 -23.7807 -23.7807 -23.7807 -23.7658 -23.7658 -23.7658 -23.7658
   -23.7371 -23.7371 -23.7371 -23.7371 -23.5184 -23.5184 -23.5184 -23.5183
   -23.4994 -23.4994 -23.4994 -23.4994 -23.4930 -23.4929 -23.4929 -23.4929
   -23.2932 -23.2932 -23.2932 -23.2932 -23.2878 -23.2878 -23.2878 -23.2878
   -23.1441 -23.1441 -23.1441 -23.1440 -23.1109 -23.1108 -23.1108 -23.1108
   -23.0949 -23.0949 -23.0949 -23.0949 -23.0167 -23.0167 -23.0166 -23.0166
    14.1984  14.1984  14.1984  14.1984  16.0515  16.0515  16.0515  16.0515
    16.2387  16.2387  16.2387  16.2388  16.5887  16.5887  16.5888  16.5888
    16.8699  16.8699  16.8699  16.8700  17.1830  17.1830  17.1830  17.1831
    17.3449  17.3449  17.3449  17.3449  17.7807  17.7807  17.7807  17.7808
    17.8807  17.8807  17.8808  17.8808  17.9963  17.9963  17.9963  17.9963
    18.2539  18.2539  18.2539  18.2540  18.7858  18.7858  18.7858  18.7858
    20.4090  20.4090  20.4090  20.4090  20.5363  20.5363  20.5363  20.5364
    20.6740  20.6740  20.6740  20.6741  20.6759  20.6759  20.6759  20.6760
    20.7038  20.7038  20.7039  20.7039  20.9450  20.9451

          k = 0.2736 0.2736 0.2736 ( 12551 PWs)   bands (ev):

   -52.1939 -52.1120 -52.1120 -52.1119 -52.0675 -52.0675 -52.0674 -52.0410
   -52.0134 -52.0088 -52.0088 -52.0087 -51.9864 -51.9864 -51.9862 -51.9250
   -23.8465 -23.8465 -23.8465 -23.7688 -23.7688 -23.7688 -23.7399 -23.7354
   -23.7354 -23.7354 -23.6649 -23.6649 -23.6274 -23.6274 -23.5436 -23.5435
   -23.5435 -23.4901 -23.4900 -23.4900 -23.4401 -23.4276 -23.4276 -23.4275
   -23.2659 -23.2567 -23.2567 -23.2566 -23.2540 -23.2540 -23.2533 -23.2532
   -23.2532 -23.1945 -23.1944 -23.1944 -23.1375 -23.1095 -23.1095 -23.1095
   -23.0703 -23.0703 -23.0702 -23.0458 -23.0457 -23.0457 -23.0323 -23.0323
    12.9533  14.7646  14.7646  14.7646  15.4720  15.4720  15.4720  15.9604
    15.9604  16.0127  16.0128  16.0128  16.5202  16.5202  16.5202  16.6716
    16.8272  16.8273  16.8273  17.0983  17.1552  17.1552  17.3574  17.3574
    17.3574  17.5866  17.5866  17.5866  17.6013  17.6013  17.9512  17.9512
    17.9512  18.1660  18.1660  18.1660  18.2791  18.2791  18.2791  18.3574
    18.3574  18.5238  18.5238  18.5238  18.6511  18.6511  18.6511  19.7664
    19.9307  20.0611  20.0611  20.0611  20.3248  20.3248  20.3248  20.5112
    20.5112  20.5112  20.7152  20.7152  20.7771  20.7772  20.7772  20.9179
    20.9179  20.9179  21.1008  21.1008  21.1008  21.1063

          k = 0.2736 0.2736 0.3831 ( 12507 PWs)   bands (ev):

   -52.1786 -52.1368 -52.1034 -52.1033 -52.0806 -52.0805 -52.0621 -52.0484
   -52.0111 -52.0090 -52.0009 -52.0008 -51.9898 -51.9897 -51.9663 -51.9355
   -23.8227 -23.8227 -23.8068 -23.7614 -23.7605 -23.7604 -23.7470 -23.7337
   -23.7163 -23.7163 -23.6963 -23.6954 -23.6331 -23.5984 -23.5983 -23.5813
   -23.5440 -23.4950 -23.4950 -23.4770 -23.4741 -23.4593 -23.4593 -23.3931
   -23.3307 -23.2988 -23.2645 -23.2636 -23.2332 -23.2332 -23.2103 -23.2102
   -23.2026 -23.2026 -23.1886 -23.1432 -23.1378 -23.1377 -23.1200 -23.1060
   -23.0829 -23.0610 -23.0594 -23.0594 -23.0492 -23.0463 -23.0463 -23.0297
    13.3065  14.2443  14.9809  14.9809  15.3609  15.3609  15.8091  16.1203
    16.1640  16.1906  16.1906  16.2697  16.5103  16.5116  16.5116  16.5639
    16.6629  16.6711  17.0168  17.0168  17.1802  17.2937  17.3988  17.4189
    17.4302  17.4690  17.4690  17.6719  17.6720  17.7850  17.7865  17.7866
    17.9711  17.9711  18.0455  18.0456  18.0789  18.1199  18.1307  18.1417
    18.2250  18.2323  18.2323  18.2803  18.3519  18.3519  18.8245  19.4980
    20.0428  20.2272  20.2765  20.2765  20.3902  20.3903  20.4449  20.4449
    20.5764  20.6296  20.6448  20.6762  20.6762  20.6935  20.8411  20.8421
    21.0187  21.0202  21.1055  21.1055  21.1075  21.1115

          k = 0.2736 0.2736-0.4925 ( 12538 PWs)   bands (ev):

   -52.1593 -52.1593 -52.0927 -52.0927 -52.0927 -52.0926 -52.0557 -52.0556
   -52.0097 -52.0097 -51.9946 -51.9946 -51.9946 -51.9945 -51.9493 -51.9493
   -23.7920 -23.7920 -23.7920 -23.7920 -23.7560 -23.7559 -23.7540 -23.7539
   -23.7200 -23.7200 -23.6580 -23.6580 -23.6579 -23.6579 -23.5923 -23.5923
   -23.5302 -23.5301 -23.4833 -23.4833 -23.4833 -23.4833 -23.4019 -23.4019
   -23.3456 -23.3456 -23.2673 -23.2673 -23.2155 -23.2154 -23.2154 -23.2154
   -23.1715 -23.1715 -23.1714 -23.1714 -23.1310 -23.1310 -23.1093 -23.1092
   -23.0985 -23.0985 -23.0511 -23.0511 -23.0510 -23.0510 -23.0356 -23.0356
    13.7462  13.7462  15.1939  15.1939  15.1939  15.1939  16.2207  16.2207
    16.3243  16.3244  16.3683  16.3683  16.3683  16.3683  16.3689  16.3689
    16.5245  16.5245  17.2302  17.2303  17.3349  17.3349  17.3672  17.3673
    17.3673  17.3673  17.6197  17.6197  17.6197  17.6198  17.7538  17.7538
    17.9715  17.9715  18.0571  18.0571  18.0571  18.0571  18.0928  18.0928
    18.0928  18.0928  18.1412  18.1412  18.1870  18.1870  19.1158  19.1158
    20.3394  20.3394  20.4076  20.4077  20.4120  20.4120  20.4120  20.4120
    20.4944  20.4944  20.4944  20.4945  20.8699  20.8699  20.9267  20.9267
    20.9865  20.9865  20.9889  20.9889  21.1117  21.1117

          k = 0.2736 0.3831 0.3831 ( 12517 PWs)   bands (ev):

   -52.1645 -52.1261 -52.1260 -52.0973 -52.0954 -52.0742 -52.0741 -52.0576
   -52.0070 -52.0021 -52.0021 -51.9926 -51.9892 -51.9720 -51.9719 -51.9447
   -23.8044 -23.7868 -23.7868 -23.7590 -23.7521 -23.7520 -23.7389 -23.7218
   -23.7218 -23.7078 -23.7016 -23.6589 -23.6356 -23.6286 -23.5953 -23.5483
   -23.5483 -23.5329 -23.5328 -23.5221 -23.5106 -23.5106 -23.4999 -23.3944
   -23.3446 -23.2528 -23.2527 -23.2399 -23.2365 -23.2364 -23.2084 -23.1987
   -23.1756 -23.1713 -23.1648 -23.1526 -23.1526 -23.1230 -23.1230 -23.1137
   -23.0794 -23.0794 -23.0762 -23.0659 -23.0455 -23.0454 -23.0427 -23.0353
    13.6433  14.5158  14.5159  15.1141  15.2359  15.6944  15.6944  16.2583
    16.3326  16.3729  16.4522  16.4522  16.4726  16.5073  16.5073  16.7328
    16.7507  16.8303  16.8303  16.9529  17.2593  17.3585  17.3587  17.3924
    17.3925  17.4549  17.4549  17.5521  17.5606  17.6515  17.7011  17.8742
    17.8782  17.8782  17.8821  17.8822  17.8927  17.8928  17.9101  18.0268
    18.0268  18.0737  18.0850  18.1052  18.1714  18.4580  18.4580  19.0707
    20.3533  20.4061  20.4061  20.4313  20.4675  20.5547  20.6240  20.6311
    20.6312  20.6626  20.6626  20.6804  20.7548  20.7548  20.8233  20.9558
    20.9853  20.9853  20.9892  21.0201  21.0904  21.1018

          k = 0.2736 0.3831-0.4925 ( 12534 PWs)   bands (ev):

   -52.1468 -52.1467 -52.1127 -52.1127 -52.0855 -52.0854 -52.0664 -52.0663
   -52.0041 -52.0041 -51.9967 -51.9967 -51.9796 -51.9796 -51.9569 -51.9568
   -23.7786 -23.7786 -23.7681 -23.7681 -23.7431 -23.7431 -23.7326 -23.7326
   -23.7296 -23.7296 -23.6783 -23.6783 -23.5963 -23.5963 -23.5945 -23.5945
   -23.5604 -23.5604 -23.5315 -23.5315 -23.5278 -23.5278 -23.4634 -23.4634
   -23.2976 -23.2975 -23.2377 -23.2377 -23.2187 -23.2187 -23.2099 -23.2098
   -23.1715 -23.1715 -23.1462 -23.1462 -23.1208 -23.1208 -23.1148 -23.1148
   -23.1096 -23.1096 -23.0731 -23.0731 -23.0427 -23.0427 -23.0380 -23.0380
    14.0571  14.0571  14.8208  14.8208  15.4947  15.4948  16.0894  16.0895
    16.3968  16.3968  16.4410  16.4410  16.6137  16.6137  16.6395  16.6395
    16.6966  16.6967  17.1834  17.1834  17.2093  17.2093  17.3067  17.3067
    17.3180  17.3180  17.5193  17.5193  17.5796  17.5796  17.6978  17.6978
    17.7802  17.7802  17.7999  17.7999  17.9156  17.9156  17.9652  17.9652
    18.0041  18.0041  18.0832  18.0832  18.1458  18.1458  18.7075  18.7075
    20.5365  20.5365  20.5449  20.5449  20.5774  20.5775  20.6026  20.6027
    20.6324  20.6324  20.6851  20.6851  20.8543  20.8543  20.8558  20.8558
    20.9287  20.9287  20.9338  20.9339  21.0219  21.0220

          k = 0.2736-0.4925-0.4925 ( 12528 PWs)   bands (ev):

   -52.1310 -52.1310 -52.1310 -52.1309 -52.0765 -52.0765 -52.0765 -52.0764
   -51.9999 -51.9999 -51.9998 -51.9997 -51.9670 -51.9670 -51.9670 -51.9669
   -23.7563 -23.7563 -23.7562 -23.7562 -23.7476 -23.7476 -23.7476 -23.7475
   -23.7032 -23.7032 -23.7032 -23.7032 -23.5707 -23.5707 -23.5707 -23.5707
   -23.5589 -23.5588 -23.5588 -23.5588 -23.5300 -23.5300 -23.5299 -23.5299
   -23.2521 -23.2520 -23.2520 -23.2520 -23.2240 -23.2240 -23.2239 -23.2239
   -23.1352 -23.1352 -23.1352 -23.1351 -23.1271 -23.1271 -23.1271 -23.1271
   -23.0987 -23.0987 -23.0987 -23.0987 -23.0390 -23.0390 -23.0390 -23.0390
    14.4281  14.4281  14.4281  14.4281  15.8224  15.8225  15.8225  15.8225
    16.4413  16.4413  16.4413  16.4413  16.8272  16.8273  16.8273  16.8273
    16.9084  16.9084  16.9084  16.9085  17.1332  17.1332  17.1332  17.1333
    17.4217  17.4217  17.4217  17.4217  17.6057  17.6057  17.6057  17.6058
    17.7923  17.7923  17.7923  17.7923  17.8098  17.8098  17.8098  17.8098
    18.0185  18.0185  18.0185  18.0186  18.3672  18.3672  18.3672  18.3672
    20.6149  20.6149  20.6149  20.6149  20.7320  20.7320  20.7320  20.7321
    20.7374  20.7374  20.7374  20.7375  20.7885  20.7885  20.7885  20.7885
    20.9263  20.9263  20.9264  20.9264  21.0464  21.0464

          k = 0.3831 0.3831 0.3831 ( 12559 PWs)   bands (ev):

   -52.1515 -52.1162 -52.1162 -52.1161 -52.0896 -52.0896 -52.0895 -52.0691
   -52.0006 -51.9919 -51.9919 -51.9918 -51.9768 -51.9768 -51.9767 -51.9527
   -23.7666 -23.7665 -23.7665 -23.7420 -23.7420 -23.7420 -23.7191 -23.6762
   -23.6762 -23.6762 -23.6741 -23.6741 -23.6603 -23.6603 -23.5799 -23.5798
   -23.5798 -23.5771 -23.5770 -23.5770 -23.5554 -23.5554 -23.5553 -23.4517
   -23.2976 -23.2125 -23.2124 -23.2124 -23.1950 -23.1950 -23.1949 -23.1780
   -23.1780 -23.1538 -23.1538 -23.1538 -23.1469 -23.1468 -23.1468 -23.1174
   -23.0778 -23.0778 -23.0778 -23.0663 -23.0663 -23.0604 -23.0604 -23.0603
    13.9729  14.8083  14.8083  14.8083  15.4500  15.4500  15.4500  16.2362
    16.4867  16.4867  16.6123  16.6123  16.6123  16.7865  16.7865  16.7865
    16.8191  16.8192  16.8192  16.9230  17.3177  17.3177  17.4223  17.4223
    17.4800  17.4800  17.4800  17.5228  17.5228  17.5228  17.5998  17.5998
    17.5998  17.7624  17.7624  17.7624  17.7684  17.7684  17.7684  17.8250
    17.8250  17.8251  17.9912  17.9912  18.0988  18.0988  18.0988  18.6424
    20.5407  20.5407  20.5407  20.6952  20.7293  20.7293  20.7293  20.7474
    20.7474  20.7644  20.7644  20.7644  20.7999  20.7999  20.7999  20.9828
    20.9828  21.0151  21.0152  21.0152  21.0360  21.0360

          k = 0.3831 0.3831-0.4925 ( 12528 PWs)   bands (ev):

   -52.1352 -52.1351 -52.1038 -52.1038 -52.1038 -52.1037 -52.0800 -52.0800
   -51.9956 -51.9956 -51.9834 -51.9834 -51.9834 -51.9833 -51.9635 -51.9634
   -23.7469 -23.7469 -23.7469 -23.7469 -23.7179 -23.7178 -23.7128 -23.7128
   -23.6971 -23.6971 -23.6310 -23.6310 -23.6265 -23.6265 -23.6265 -23.6264
   -23.6103 -23.6103 -23.5825 -23.5825 -23.5825 -23.5825 -23.5141 -23.5141
   -23.2533 -23.2532 -23.1881 -23.1881 -23.1768 -23.1768 -23.1767 -23.1767
   -23.1664 -23.1664 -23.1664 -23.1664 -23.1288 -23.1288 -23.1234 -23.1233
   -23.1059 -23.1059 -23.0723 -23.0723 -23.0723 -23.0722 -23.0605 -23.0605
    14.3733  14.3733  15.1382  15.1383  15.1383  15.1383  15.8478  15.8478
    16.6276  16.6276  16.7089  16.7089  16.7330  16.7330  16.7330  16.7330
    16.9033  16.9033  17.1578  17.1578  17.1578  17.1579  17.3491  17.3492
    17.3948  17.3948  17.4791  17.4791  17.4893  17.4893  17.6084  17.6084
    17.6084  17.6084  17.7445  17.7445  17.7445  17.7445  17.8025  17.8025
    17.8025  17.8025  17.8676  17.8676  17.8831  17.8831  18.2917  18.2917
    20.6505  20.6505  20.6791  20.6791  20.6791  20.6792  20.8080  20.8080
    20.8080  20.8080  20.8694  20.8694  20.8912  20.8912  20.9524  20.9524
    21.0031  21.0031  21.0057  21.0057  21.0057  21.0057

          k = 0.3831-0.4925-0.4925 ( 12552 PWs)   bands (ev):

   -52.1206 -52.1206 -52.1206 -52.1205 -52.0927 -52.0927 -52.0927 -52.0926
   -51.9887 -51.9887 -51.9887 -51.9886 -51.9723 -51.9723 -51.9723 -51.9722
   -23.7204 -23.7204 -23.7204 -23.7204 -23.7163 -23.7163 -23.7163 -23.7163
   -23.6616 -23.6615 -23.6615 -23.6615 -23.6246 -23.6246 -23.6246 -23.6245
   -23.6201 -23.6201 -23.6200 -23.6200 -23.5702 -23.5702 -23.5702 -23.5702
   -23.2126 -23.2126 -23.2126 -23.2126 -23.1659 -23.1659 -23.1659 -23.1659
   -23.1494 -23.1493 -23.1493 -23.1493 -23.1248 -23.1248 -23.1248 -23.1248
   -23.1058 -23.1057 -23.1057 -23.1057 -23.0720 -23.0720 -23.0719 -23.0719
    14.7482  14.7482  14.7482  14.7482  15.5033  15.5033  15.5033  15.5034
    16.7184  16.7184  16.7184  16.7185  16.9601  16.9601  16.9601  16.9602
    17.0745  17.0745  17.0745  17.0745  17.0781  17.0781  17.0782  17.0782
    17.5129  17.5129  17.5130  17.5130  17.5356  17.5356  17.5356  17.5357
    17.5430  17.5430  17.5430  17.5431  17.7169  17.7169  17.7169  17.7169
    17.7874  17.7874  17.7874  17.7874  17.9525  17.9525  17.9526  17.9526
    20.7223  20.7223  20.7223  20.7224  20.7942  20.7942  20.7942  20.7942
    20.8952  20.8952  20.8952  20.8952  20.9735  20.9735  20.9735  20.9735
    20.9861  20.9861  20.9861  20.9861  21.0193  21.0194

          k =-0.4925-0.4925-0.4925 ( 12568 PWs)   bands (ev):

   -52.1076 -52.1076 -52.1076 -52.1076 -52.1076 -52.1076 -52.1076 -52.1074
   -51.9796 -51.9796 -51.9796 -51.9796 -51.9796 -51.9796 -51.9795 -51.9793
   -23.6747 -23.6747 -23.6747 -23.6747 -23.6747 -23.6747 -23.6747 -23.6747
   -23.6747 -23.6747 -23.6747 -23.6747 -23.6747 -23.6745 -23.6745 -23.6745
   -23.6156 -23.6156 -23.6156 -23.6156 -23.6156 -23.6155 -23.6155 -23.6155
   -23.1781 -23.1781 -23.1780 -23.1780 -23.1780 -23.1780 -23.1780 -23.1780
   -23.1146 -23.1146 -23.1145 -23.1145 -23.1145 -23.1145 -23.1145 -23.1145
   -23.1145 -23.1145 -23.1145 -23.1145 -23.1145 -23.1144 -23.1144 -23.1144
    15.1243  15.1243  15.1243  15.1243  15.1243  15.1243  15.1243  15.1243
    17.0189  17.0189  17.0189  17.0189  17.0189  17.0189  17.0189  17.0189
    17.0189  17.0189  17.0189  17.0189  17.0189  17.0189  17.0190  17.0190
    17.5941  17.5941  17.5941  17.5941  17.5941  17.5941  17.5941  17.5941
    17.6142  17.6142  17.6142  17.6142  17.6142  17.6142  17.6142  17.6142
    17.6142  17.6142  17.6142  17.6142  17.6142  17.6143  17.6143  17.6143
    20.8505  20.8505  20.8505  20.8505  20.8505  20.8505  20.8505  20.8505
    20.8505  20.8505  20.8505  20.8505  20.8505  20.8505  20.8506  20.8506
    21.2273  21.2273  21.2273  21.2274  21.2274  21.2274

     the Fermi energy is    19.6240 ev

!    total energy              =   -3971.54124101 Ry
     Harris-Foulkes estimate   =   -3971.54124055 Ry
     estimated scf accuracy    <          5.5E-09 Ry

     total all-electron energy =    -33628.064121 Ry

     The total energy is the sum of the following terms:

     one-electron contribution =    -881.11106975 Ry
     hartree contribution      =     578.55593985 Ry
     xc contribution           =    -356.59539410 Ry
     ewald contribution        =   -2124.43305187 Ry
     one-center paw contrib.   =   -1187.97765181 Ry
     smearing contrib. (-TS)   =       0.01998667 Ry

     total magnetization       =     0.00 Bohr mag/cell
     absolute magnetization    =     0.06 Bohr mag/cell

     convergence has been achieved in  17 iterations

     Forces acting on atoms (cartesian axes, Ry/au):

     atom    1 type  1   force =     0.00000000    0.00000000    0.00000000
     atom    2 type  2   force =    -0.00000783   -0.00000783   -0.00000783
     atom    3 type  1   force =     0.00000000    0.00000000    0.00000000
     atom    4 type  2   force =    -0.00000783   -0.00000783    0.00000783
     atom    5 type  1   force =     0.00000000    0.00000000    0.00000000
     atom    6 type  2   force =    -0.00000783    0.00000783   -0.00000783
     atom    7 type  1   force =     0.00000000    0.00000000    0.00000000
     atom    8 type  2   force =    -0.00000783    0.00000783    0.00000783
     atom    9 type  1   force =     0.00000000    0.00000000    0.00000000
     atom   10 type  2   force =     0.00000783   -0.00000783   -0.00000783
     atom   11 type  1   force =     0.00000000    0.00000000    0.00000000
     atom   12 type  2   force =     0.00000783   -0.00000783    0.00000783
     atom   13 type  1   force =     0.00000000    0.00000000   -0.00000000
     atom   14 type  2   force =     0.00000783    0.00000783   -0.00000783
     atom   15 type  1   force =     0.00000000    0.00000000    0.00000000
     atom   16 type  2   force =     0.00000783    0.00000783    0.00000783

     Total force =     0.000038     Total SCF correction =     0.000127
     SCF correction compared to forces is large: reduce conv_thr to get better values


     Computing stress (Cartesian axis) and pressure

          total   stress  (Ry/bohr**3)                   (kbar)     P=    2.51
   0.00001703   0.00000000   0.00000000          2.51      0.00      0.00
   0.00000000   0.00001703   0.00000000          0.00      2.51      0.00
   0.00000000   0.00000000   0.00001703          0.00      0.00      2.51


     Writing output data file gFclGHgfsOXizxtm.save/
 
     init_run     :     15.04s CPU     15.72s WALL (       2 calls)
     electrons    :   2995.25s CPU   3056.96s WALL (       5 calls)
     update_pot   :      2.00s CPU      2.03s WALL (       3 calls)
     forces       :     12.01s CPU     12.67s WALL (       5 calls)
     stress       :     50.98s CPU     51.33s WALL (       5 calls)

     Called by init_run:
     wfcinit      :     13.37s CPU     13.89s WALL (       2 calls)
     potinit      :      0.71s CPU      0.75s WALL (       2 calls)
     hinit0       :      0.53s CPU      0.57s WALL (       2 calls)

     Called by electrons:
     c_bands      :   2750.52s CPU   2801.57s WALL (      98 calls)
     sum_band     :    210.45s CPU    218.94s WALL (      98 calls)
     v_of_rho     :      2.48s CPU      2.66s WALL (     102 calls)
     newd         :      5.55s CPU      6.65s WALL (     102 calls)
     PAW_pot      :     27.45s CPU     28.22s WALL (     105 calls)
     mix_rho      :      0.72s CPU      0.80s WALL (      98 calls)

     Called by c_bands:
     init_us_2    :     14.49s CPU     14.75s WALL (   14770 calls)
     cegterg      :   2667.19s CPU   2717.30s WALL (    6860 calls)

     Called by sum_band:
     sum_band:bec :      2.25s CPU      2.28s WALL (    7070 calls)
     addusdens    :     10.12s CPU     11.31s WALL (      98 calls)

     Called by *egterg:
     h_psi        :   1026.68s CPU   1058.14s WALL (   32682 calls)
     s_psi        :     74.47s CPU     74.80s WALL (   32682 calls)
     g_psi        :      4.09s CPU      4.13s WALL (   25682 calls)
     cdiaghg      :   1235.50s CPU   1238.88s WALL (   32262 calls)

     Called by h_psi:
     h_psi:pot    :   1020.11s CPU   1051.49s WALL (   32682 calls)
     h_psi:calbec :     89.13s CPU     97.69s WALL (   32682 calls)
     vloc_psi     :    852.93s CPU    875.39s WALL (   32682 calls)
     add_vuspsi   :     77.81s CPU     78.23s WALL (   32682 calls)

     General routines
     calbec       :    140.48s CPU    152.68s WALL (   41502 calls)
     fft          :      1.99s CPU      2.23s WALL (    2752 calls)
     ffts         :      0.18s CPU      0.23s WALL (     400 calls)
     fftw         :    942.50s CPU    967.21s WALL ( 6160712 calls)
     interpolate  :      0.27s CPU      0.32s WALL (     204 calls)
 
     Parallel routines
     fft_scatt_xy :     74.63s CPU     76.54s WALL ( 6163864 calls)
     fft_scatt_yz :    551.23s CPU    566.12s WALL ( 6163864 calls)
 
     PWSCF        : 51m21.40s CPU    52m33.18s WALL

 
   This run was terminated on:  19:45:25  15Jun2020            

=------------------------------------------------------------------------------=
   JOB DONE.
=------------------------------------------------------------------------------=
