
     Program PWSCF v.6.3 starts on 25Mar2020 at  2:59:57 

     This program is part of the open-source Quantum ESPRESSO suite
     for quantum simulation of materials; please cite
         "P. Giannozzi et al., J. Phys.:Condens. Matter 21 395502 (2009);
         "P. Giannozzi et al., J. Phys.:Condens. Matter 29 465901 (2017);
          URL http://www.quantum-espresso.org", 
     in publications or presentations arising from this work. More details at
     http://www.quantum-espresso.org/quote

     Parallel version (MPI & OpenMP), running on      20 processor cores
     Number of MPI processes:                20
     Threads/MPI process:                     1

     MPI processes distributed on     1 nodes
     R & G space division:  proc/nbgrp/npool/nimage =      20
     Reading input from /rds/homes/b/bxp912/jobs/20200324_al_eos_e/wd/pwscf_relax/relax.in

     Current dimensions of program PWSCF are:
     Max number of different atomic species (ntypx) = 10
     Max number of k-points (npk) =  40000
     Max angular momentum in pseudopotentials (lmaxx) =  3
     Message from routine read_upf::
     Pseudo file /rds/homes/b/bxp912/pp/Al.pbe-nl-kjpaw_psl.1.0.0.UPF has been successfully fixed on the fly.
To avoid this message in the future you can permanently fix 
 your pseudo files following instructions given in: 
https://gitlab.com/QEF/q-e/blob/master/upftools/how_to_fix_upf.md
               file Al.pbe-nl-kjpaw_psl.1.0.0.UPF: wavefunction(s)  3S 3P renormalized

     Subspace diagonalization in iterative solution of the eigenvalue problem:
     a serial algorithm will be used

     Found symmetry operation: I + (  0.2500  0.2500  0.0000)
     This is a supercell, fractional translations are disabled
 
     Parallelization info
     --------------------
     sticks:   dense  smooth     PW     G-vecs:    dense   smooth      PW
     Min         151     151     42                 6259     6259     916
     Max         153     153     43                 6260     6260     919
     Sum        3025    3025    845               125183   125183   18349
 


     bravais-lattice index     =            0
     lattice parameter (alat)  =      13.8000  a.u.
     unit-cell volume          =    2628.0720 (a.u.)^3
     number of atoms/cell      =           32
     number of atomic types    =            1
     number of electrons       =        96.00
     number of Kohn-Sham states=           58
     kinetic-energy cutoff     =      50.0000  Ry
     charge density cutoff     =     200.0000  Ry
     convergence threshold     =      1.0E-06
     mixing beta               =       0.1000
     number of iterations used =           10  plain     mixing
     Exchange-correlation      = SLA PW PBX PBC ( 1  4  3  4 0 0)
     nstep                     =           50


     celldm(1)=  13.800000  celldm(2)=   0.000000  celldm(3)=   0.000000
     celldm(4)=   0.000000  celldm(5)=   0.000000  celldm(6)=   0.000000

     crystal axes: (cart. coord. in units of alat)
               a(1) = (   1.000000   0.000000   0.000000 )  
               a(2) = (   0.000000   1.000000   0.000000 )  
               a(3) = (   0.000000   0.000000   1.000000 )  

     reciprocal axes: (cart. coord. in units 2 pi/alat)
               b(1) = (  1.000000  0.000000  0.000000 )  
               b(2) = (  0.000000  1.000000  0.000000 )  
               b(3) = (  0.000000  0.000000  1.000000 )  


     PseudoPot. # 1 for Al read from file:
     /rds/homes/b/bxp912/pp/Al.pbe-nl-kjpaw_psl.1.0.0.UPF
     MD5 check sum: 339dbea23cf3ab9a065ad45c0f9085d7
     Pseudo is Projector augmented-wave + core cor, Zval =  3.0
     Generated using "atomic" code by A. Dal Corso v.5.1
     Shape of augmentation charge: PSQ
     Using radial grid of 1135 points,  4 beta functions with: 
                l(1) =   0
                l(2) =   0
                l(3) =   1
                l(4) =   1
     Q(r) pseudized with 0 coefficients 


     atomic species   valence    mass     pseudopotential
        Al             3.00    26.98200     Al( 1.00)

     48 Sym. Ops., with inversion, found



   Cartesian axes

     site n.     atom                  positions (alat units)
         1           Al  tau(   1) = (   0.0000000   0.0000000   0.0000000  )
         2           Al  tau(   2) = (   0.2500000   0.2500000   0.0000000  )
         3           Al  tau(   3) = (   0.2500000   0.0000000   0.2500000  )
         4           Al  tau(   4) = (   0.0000000   0.2500000   0.2500000  )
         5           Al  tau(   5) = (   0.0000000   0.0000000   0.5000000  )
         6           Al  tau(   6) = (   0.2500000   0.2500000   0.5000000  )
         7           Al  tau(   7) = (   0.2500000   0.0000000   0.7500000  )
         8           Al  tau(   8) = (   0.0000000   0.2500000   0.7500000  )
         9           Al  tau(   9) = (   0.0000000   0.5000000   0.0000000  )
        10           Al  tau(  10) = (   0.2500000   0.7500000   0.0000000  )
        11           Al  tau(  11) = (   0.2500000   0.5000000   0.2500000  )
        12           Al  tau(  12) = (   0.0000000   0.7500000   0.2500000  )
        13           Al  tau(  13) = (   0.0000000   0.5000000   0.5000000  )
        14           Al  tau(  14) = (   0.2500000   0.7500000   0.5000000  )
        15           Al  tau(  15) = (   0.2500000   0.5000000   0.7500000  )
        16           Al  tau(  16) = (   0.0000000   0.7500000   0.7500000  )
        17           Al  tau(  17) = (   0.5000000   0.0000000   0.0000000  )
        18           Al  tau(  18) = (   0.7500000   0.2500000   0.0000000  )
        19           Al  tau(  19) = (   0.7500000   0.0000000   0.2500000  )
        20           Al  tau(  20) = (   0.5000000   0.2500000   0.2500000  )
        21           Al  tau(  21) = (   0.5000000   0.0000000   0.5000000  )
        22           Al  tau(  22) = (   0.7500000   0.2500000   0.5000000  )
        23           Al  tau(  23) = (   0.7500000   0.0000000   0.7500000  )
        24           Al  tau(  24) = (   0.5000000   0.2500000   0.7500000  )
        25           Al  tau(  25) = (   0.5000000   0.5000000   0.0000000  )
        26           Al  tau(  26) = (   0.7500000   0.7500000   0.0000000  )
        27           Al  tau(  27) = (   0.7500000   0.5000000   0.2500000  )
        28           Al  tau(  28) = (   0.5000000   0.7500000   0.2500000  )
        29           Al  tau(  29) = (   0.5000000   0.5000000   0.5000000  )
        30           Al  tau(  30) = (   0.7500000   0.7500000   0.5000000  )
        31           Al  tau(  31) = (   0.7500000   0.5000000   0.7500000  )
        32           Al  tau(  32) = (   0.5000000   0.7500000   0.7500000  )

     number of k points=    56  Marzari-Vanderbilt smearing, width (Ry)=  0.0400
                       cart. coord. in units 2pi/alat
        k(    1) = (   0.0454545   0.0454545   0.0454545), wk =   0.0120210
        k(    2) = (   0.0454545   0.0454545   0.1363636), wk =   0.0360631
        k(    3) = (   0.0454545   0.0454545   0.2272727), wk =   0.0360631
        k(    4) = (   0.0454545   0.0454545   0.3181818), wk =   0.0360631
        k(    5) = (   0.0454545   0.0454545   0.4090909), wk =   0.0360631
        k(    6) = (   0.0454545   0.0454545  -0.5000000), wk =   0.0180316
        k(    7) = (   0.0454545   0.1363636   0.1363636), wk =   0.0360631
        k(    8) = (   0.0454545   0.1363636   0.2272727), wk =   0.0721262
        k(    9) = (   0.0454545   0.1363636   0.3181818), wk =   0.0721262
        k(   10) = (   0.0454545   0.1363636   0.4090909), wk =   0.0721262
        k(   11) = (   0.0454545   0.1363636  -0.5000000), wk =   0.0360631
        k(   12) = (   0.0454545   0.2272727   0.2272727), wk =   0.0360631
        k(   13) = (   0.0454545   0.2272727   0.3181818), wk =   0.0721262
        k(   14) = (   0.0454545   0.2272727   0.4090909), wk =   0.0721262
        k(   15) = (   0.0454545   0.2272727  -0.5000000), wk =   0.0360631
        k(   16) = (   0.0454545   0.3181818   0.3181818), wk =   0.0360631
        k(   17) = (   0.0454545   0.3181818   0.4090909), wk =   0.0721262
        k(   18) = (   0.0454545   0.3181818  -0.5000000), wk =   0.0360631
        k(   19) = (   0.0454545   0.4090909   0.4090909), wk =   0.0360631
        k(   20) = (   0.0454545   0.4090909  -0.5000000), wk =   0.0360631
        k(   21) = (   0.0454545  -0.5000000  -0.5000000), wk =   0.0090158
        k(   22) = (   0.1363636   0.1363636   0.1363636), wk =   0.0120210
        k(   23) = (   0.1363636   0.1363636   0.2272727), wk =   0.0360631
        k(   24) = (   0.1363636   0.1363636   0.3181818), wk =   0.0360631
        k(   25) = (   0.1363636   0.1363636   0.4090909), wk =   0.0360631
        k(   26) = (   0.1363636   0.1363636  -0.5000000), wk =   0.0180316
        k(   27) = (   0.1363636   0.2272727   0.2272727), wk =   0.0360631
        k(   28) = (   0.1363636   0.2272727   0.3181818), wk =   0.0721262
        k(   29) = (   0.1363636   0.2272727   0.4090909), wk =   0.0721262
        k(   30) = (   0.1363636   0.2272727  -0.5000000), wk =   0.0360631
        k(   31) = (   0.1363636   0.3181818   0.3181818), wk =   0.0360631
        k(   32) = (   0.1363636   0.3181818   0.4090909), wk =   0.0721262
        k(   33) = (   0.1363636   0.3181818  -0.5000000), wk =   0.0360631
        k(   34) = (   0.1363636   0.4090909   0.4090909), wk =   0.0360631
        k(   35) = (   0.1363636   0.4090909  -0.5000000), wk =   0.0360631
        k(   36) = (   0.1363636  -0.5000000  -0.5000000), wk =   0.0090158
        k(   37) = (   0.2272727   0.2272727   0.2272727), wk =   0.0120210
        k(   38) = (   0.2272727   0.2272727   0.3181818), wk =   0.0360631
        k(   39) = (   0.2272727   0.2272727   0.4090909), wk =   0.0360631
        k(   40) = (   0.2272727   0.2272727  -0.5000000), wk =   0.0180316
        k(   41) = (   0.2272727   0.3181818   0.3181818), wk =   0.0360631
        k(   42) = (   0.2272727   0.3181818   0.4090909), wk =   0.0721262
        k(   43) = (   0.2272727   0.3181818  -0.5000000), wk =   0.0360631
        k(   44) = (   0.2272727   0.4090909   0.4090909), wk =   0.0360631
        k(   45) = (   0.2272727   0.4090909  -0.5000000), wk =   0.0360631
        k(   46) = (   0.2272727  -0.5000000  -0.5000000), wk =   0.0090158
        k(   47) = (   0.3181818   0.3181818   0.3181818), wk =   0.0120210
        k(   48) = (   0.3181818   0.3181818   0.4090909), wk =   0.0360631
        k(   49) = (   0.3181818   0.3181818  -0.5000000), wk =   0.0180316
        k(   50) = (   0.3181818   0.4090909   0.4090909), wk =   0.0360631
        k(   51) = (   0.3181818   0.4090909  -0.5000000), wk =   0.0360631
        k(   52) = (   0.3181818  -0.5000000  -0.5000000), wk =   0.0090158
        k(   53) = (   0.4090909   0.4090909   0.4090909), wk =   0.0120210
        k(   54) = (   0.4090909   0.4090909  -0.5000000), wk =   0.0180316
        k(   55) = (   0.4090909  -0.5000000  -0.5000000), wk =   0.0090158
        k(   56) = (  -0.5000000  -0.5000000  -0.5000000), wk =   0.0015026

     Dense  grid:   125183 G-vectors     FFT dimensions: (  64,  64,  64)

     Estimated max dynamical RAM per process >      61.31 MB

     Estimated total dynamical RAM >       1.20 GB

     Initial potential from superposition of free atoms

     starting charge   95.92671, renormalised to   96.00000
     Starting wfcs are  128 randomized atomic wfcs
     Checking if some PAW data can be deallocated... 

     total cpu time spent up to now is        5.5 secs

     Self-consistent Calculation

     iteration #  1     ecut=    50.00 Ry     beta= 0.10
     Davidson diagonalization with overlap
     ethr =  1.00E-02,  avg # of iterations =  3.1

     Threshold (ethr) on eigenvalues was too large:
     Diagonalizing with lowered threshold

     Davidson diagonalization with overlap
     ethr =  1.85E-04,  avg # of iterations =  4.3

     total cpu time spent up to now is       23.7 secs

     total energy              =   -1263.00725383 Ry
     Harris-Foulkes estimate   =   -1263.01813183 Ry
     estimated scf accuracy    <       0.17368233 Ry

     iteration #  2     ecut=    50.00 Ry     beta= 0.10
     Davidson diagonalization with overlap
     ethr =  1.81E-04,  avg # of iterations =  1.0

     total cpu time spent up to now is       29.2 secs

     total energy              =   -1262.96261169 Ry
     Harris-Foulkes estimate   =   -1263.00811021 Ry
     estimated scf accuracy    <       0.14048026 Ry

     iteration #  3     ecut=    50.00 Ry     beta= 0.10
     Davidson diagonalization with overlap
     ethr =  1.46E-04,  avg # of iterations =  1.0

     total cpu time spent up to now is       34.7 secs

     total energy              =   -1262.96471342 Ry
     Harris-Foulkes estimate   =   -1262.96474041 Ry
     estimated scf accuracy    <       0.00026098 Ry

     iteration #  4     ecut=    50.00 Ry     beta= 0.10
     Davidson diagonalization with overlap
     c_bands:  1 eigenvalues not converged
     ethr =  2.72E-07,  avg # of iterations =  6.0

     total cpu time spent up to now is       47.3 secs

     total energy              =   -1262.96514769 Ry
     Harris-Foulkes estimate   =   -1262.96515242 Ry
     estimated scf accuracy    <       0.00020953 Ry

     iteration #  5     ecut=    50.00 Ry     beta= 0.10
     Davidson diagonalization with overlap
     ethr =  2.18E-07,  avg # of iterations =  1.1

     total cpu time spent up to now is       52.8 secs

     total energy              =   -1262.96514774 Ry
     Harris-Foulkes estimate   =   -1262.96515075 Ry
     estimated scf accuracy    <       0.00001404 Ry

     iteration #  6     ecut=    50.00 Ry     beta= 0.10
     Davidson diagonalization with overlap
     c_bands:  2 eigenvalues not converged
     ethr =  1.46E-08,  avg # of iterations =  3.1

     total cpu time spent up to now is       60.4 secs

     total energy              =   -1262.96514920 Ry
     Harris-Foulkes estimate   =   -1262.96514925 Ry
     estimated scf accuracy    <       0.00000201 Ry

     iteration #  7     ecut=    50.00 Ry     beta= 0.10
     Davidson diagonalization with overlap
     c_bands:  1 eigenvalues not converged
     c_bands:  1 eigenvalues not converged
     ethr =  2.09E-09,  avg # of iterations =  3.3

     total cpu time spent up to now is       67.2 secs

     End of self-consistent calculation

          k = 0.0455 0.0455 0.0455 ( 15660 PWs)   bands (ev):

    -1.9583   0.5298   0.5298   0.5298   1.0201   1.0201   1.0202   2.9558
     2.9558   2.9558   3.4332   3.4332   3.4332   3.4332   3.4332   3.4332
     3.9078   3.9078   3.9078   5.2199   5.5297   5.5298   5.5298   6.6675
     6.6675   6.6676   6.9746   7.6888   7.6888   7.6888   9.7345   9.7346
     9.7346   9.8707   9.8707   9.8708   9.8708   9.8708   9.8708  10.3199
    10.3199  10.3199  10.3199  10.3199  10.3199  11.2134  11.2135  11.2135
    11.2136  11.2136  11.2136  12.1607  12.1607  12.1607  12.6088  12.6088
    12.6088  12.6088

          k = 0.0455 0.0455 0.1364 ( 15694 PWs)   bands (ev):

    -1.9125   0.0819   0.5744   0.5745   1.0646   1.0646   1.5523   2.5194
     2.5194   2.9991   2.9993   2.9993   3.4762   3.4762   3.9504   3.9508
     3.9508   4.4221   4.4221   4.8475   5.2618   5.2618   5.5711   6.7105
     7.0170   7.0171   7.0827   7.4259   7.7290   7.7290   9.2562   9.2562
     9.4863   9.4863   9.6156   9.6156   9.7722   9.7723  10.0044  10.0044
    10.3947  10.3947  10.4129  10.6987  10.6987  11.2077  11.2077  11.6617
    11.6617  11.6691  11.7007  11.7007  11.7534  11.7534  12.1195  12.1195
    12.2007  12.2007

          k = 0.0455 0.0455 0.2273 ( 15705 PWs)   bands (ev):

    -1.8210  -0.3229   0.6637   0.6637   1.1534   1.1534   2.1248   2.1248
     2.1254   2.6069   2.6069   3.0858   3.5621   3.5622   4.0354   4.4856
     4.5075   4.5076   4.9321   4.9321   4.9749   4.9749   5.3455   6.3260
     7.1015   7.5095   7.5095   7.8093   7.8093   7.9479   8.5380   8.5380
     8.9453   8.9453   9.1301   9.1301   9.8467   9.8468  10.0537  10.0537
    10.4836  10.4836  10.7855  10.7856  10.9923  11.3139  11.3870  11.3870
    11.4445  11.4445  11.4792  11.4793  11.8334  11.8334  11.8979  12.0627
    12.0627  12.2144

          k = 0.0455 0.0455 0.3182 ( 15703 PWs)   bands (ev):

    -1.6839  -0.6841   0.7974   0.7974   1.2864   1.2865   1.7726   1.7727
     2.2566   2.2566   2.7385   3.2155   3.6907   3.6907   4.1536   4.1624
     4.6134   4.6134   5.0589   5.1020   5.1020   5.5550   5.5648   5.5648
     7.6342   7.8075   7.8075   7.9297   7.9297   8.0715   8.0716   8.2348
     8.2348   8.5206   8.8112   8.8112   9.9563   9.9563  10.1702  10.1702
    10.2755  10.6082  10.6083  10.6400  10.6400  10.7287  10.7288  11.0615
    11.0615  11.1834  11.5070  11.5071  11.9917  11.9917  12.3015  12.3933
    12.3933  12.6506

          k = 0.0455 0.0455 0.4091 ( 15697 PWs)   bands (ev):

    -1.5014  -1.0012   0.9755   0.9755   1.4634   1.4634   1.4636   1.4636
     1.9490   1.9490   3.3879   3.3903   3.8582   3.8613   3.8613   4.3249
     4.3249   4.3306   4.7835   4.8024   5.7324   5.7324   6.1895   6.1895
     7.0900   7.0900   7.5304   7.5304   8.0902   8.0902   8.2348   8.5312
     8.5312   8.6827   8.6827   9.1361   9.5659  10.0193  10.0193  10.0977
    10.0978  10.3309  10.3309  10.4523  10.4523  10.4745  10.7723  10.7723
    10.7769  10.7769  11.2214  11.2215  12.5787  12.5787  12.6886  12.6886
    13.0203  13.0203

          k = 0.0455 0.0455-0.5000 ( 15724 PWs)   bands (ev):

    -1.2738  -1.2737   1.1975   1.1976   1.1976   1.1976   1.6845   1.6845
     1.6845   1.6846   3.6024   3.6025   4.0732   4.0732   4.0732   4.0733
     4.0792   4.0792   4.5386   4.5386   6.3963   6.3963   6.3963   6.3963
     6.8462   6.8462   6.8462   6.8462   8.2907   8.2907   8.2908   8.2908
     8.8822   8.8822   9.3342   9.3342   9.3342   9.3342   9.7892   9.7892
    10.2660  10.2660  10.2660  10.2661  10.5333  10.5333  10.5333  10.5334
    10.9765  10.9766  10.9766  10.9766  12.9794  12.9794  12.9794  12.9796
    13.2126  13.2127

          k = 0.0455 0.1364 0.1364 ( 15692 PWs)   bands (ev):

    -1.8668   0.1267   0.1268   0.6191   1.1090   1.5965   1.5965   2.0808
     2.5630   2.5631   3.0427   3.0427   3.5198   3.5198   3.9934   3.9934
     4.4429   4.4641   4.4641   4.8898   4.9325   5.6123   5.6124   6.7534
     6.7535   7.1235   7.1235   7.4678   7.7691   7.9065   8.8800   8.8800
     9.2032   9.2033   9.5061   9.5061   9.8088   9.9348   9.9349  10.1107
    10.1107  10.4493  10.4493  10.8468  10.8468  11.2594  11.2594  11.3470
    11.5898  11.5898  11.6738  11.6738  11.7086  11.7087  12.1255  12.1256
    12.6102  12.6103

          k = 0.0455 0.1364 0.2273 ( 15699 PWs)   bands (ev):

    -1.7753  -0.2779   0.2164   0.7083   1.1978   1.6843   1.6848   2.1687
     2.1693   2.6503   2.6505   3.1293   3.1298   4.0678   4.0783   4.0798
     4.5282   4.5478   4.5495   5.0160   5.3873   5.4807   5.6950   6.3674
     6.8389   7.1439   7.2049   7.8494   7.9894   8.1506   8.4390   8.5295
     8.5427   8.8614   9.1653   9.3165   9.6687   9.7116   9.8808   9.9919
    10.3996  10.5213  10.5812  10.8909  10.9561  10.9814  11.0319  11.2400
    11.3386  11.3484  11.5957  11.6754  11.8794  11.9372  12.2881  12.3206
    12.3914  12.5601

          k = 0.0455 0.1364 0.3182 ( 15702 PWs)   bands (ev):

    -1.6383  -0.6389   0.3508   0.8420   1.3305   1.3308   1.8167   1.8171
     2.3004   2.7809   2.7817   2.7821   3.2589   3.7289   4.1964   4.2052
     4.6725   4.6781   5.1010   5.1430   5.5128   5.5970   5.6045   6.0648
     7.2696   7.3269   7.4093   7.6760   7.8320   7.9698   8.2128   8.2349
     8.5617   8.6791   8.8494   9.0159   9.7043   9.7790   9.8642   9.9855
    10.1082  10.3154  10.4937  10.5638  10.6270  10.6569  11.0095  11.0874
    11.2229  11.2513  11.6784  11.8318  11.9933  12.0549  12.1249  12.3329
    12.8533  12.9242

          k = 0.0455 0.1364 0.4091 ( 15708 PWs)   bands (ev):

    -1.4559  -0.9558   0.5296   1.0198   1.0199   1.5076   1.5078   1.9930
     1.9932   2.4759   2.9546   3.4295   3.4312   3.4336   3.9012   4.3733
     4.8260   4.8369   4.8448   5.2699   5.3131   5.7720   6.2269   6.6822
     6.6831   7.1230   7.4891   7.5542   7.8404   7.9328   7.9988   8.1302
     8.2761   8.5704   9.1562   9.1768   9.6063   9.6328   9.8429   9.9319
    10.1178  10.2702  10.2790  10.3734  10.4117  10.5144  10.7215  10.7627
    10.9707  11.0949  11.2544  11.7066  12.2885  12.3647  12.6260  12.9024
    13.2404  13.3298

          k = 0.0455 0.1364-0.5000 ( 15712 PWs)   bands (ev):

    -1.2283  -1.2283   0.7527   0.7527   1.2419   1.2419   1.7286   1.7287
     2.2129   2.2130   3.1710   3.1711   3.6456   3.6457   4.1221   4.1221
     4.5812   4.5812   5.0382   5.0382   5.9825   5.9825   6.4336   6.4336
     6.8792   6.8792   7.3290   7.3290   7.6913   7.6913   8.3305   8.3305
     8.4769   8.4769   8.9230   8.9231   9.8295   9.8295  10.0377  10.0377
    10.1314  10.1315  10.2674  10.2674  10.2861  10.2861  10.4750  10.4750
    10.9225  10.9226  11.4605  11.4605  12.6202  12.6203  12.8621  12.8621
    13.2564  13.2564

          k = 0.0455 0.2273 0.2273 ( 15694 PWs)   bands (ev):

    -1.6839  -0.1879  -0.1878   0.7974   1.2861   1.2865   2.2564   2.2564
     2.2571   2.2571   2.7377   2.7377   3.6858   3.6926   3.6926   4.1535
     4.6331   4.6331   5.0977   5.0978   5.7775   5.7776   6.0231   6.4501
     6.4501   6.9243   6.9244   7.7940   7.7941   7.9296   8.4890   8.4890
     8.5212   8.9757   9.2223   9.2224   9.4420   9.4421   9.8557   9.8557
     9.9468  10.2120  10.2120  10.6168  10.6605  10.6605  11.4162  11.4162
    11.4563  11.4564  11.7302  11.7303  12.2779  12.2779  12.4695  12.4695
    12.8482  12.8482

          k = 0.0455 0.2273 0.3182 ( 15709 PWs)   bands (ev):

    -1.5470  -0.5485  -0.0530   0.9308   0.9310   1.4193   1.9048   2.3877
     2.3880   2.3886   2.8681   2.8693   3.3428   3.3469   3.8151   4.2942
     4.7576   5.2189   5.2246   5.5963   5.6808   5.6830   5.9015   6.5739
     6.5998   7.0454   7.0513   7.3538   7.4726   7.8650   8.0498   8.1684
     8.9236   9.0794   9.0974   9.1708   9.4729   9.4813   9.4967   9.5539
     9.8861   9.9444  10.0398  10.1526  10.2933  10.3310  11.5147  11.6039
    11.7119  11.7570  11.8851  11.8891  12.2131  12.2995  12.3944  12.5199
    12.8537  12.9633

          k = 0.0455 0.2273 0.4091 ( 15708 PWs)   bands (ev):

    -1.3648  -0.8652   0.1266   0.6188   1.1088   1.5960   1.5962   2.0809
     2.5625   2.5636   3.0407   3.0417   3.0431   3.5160   3.5201   4.9218
     4.9297   4.9329   5.3540   5.3766   5.7635   5.8503   6.2995   6.3127
     6.7386   7.1837   7.1887   7.2071   7.5194   7.5850   7.9235   8.2099
     8.4825   8.6483   8.7933   9.2108   9.2373   9.5807   9.6056   9.6078
     9.7136  10.0115  10.0443  10.1487  10.1709  10.2812  11.0499  11.5069
    11.6390  11.7759  11.9110  11.9313  12.0713  12.2321  12.5545  12.7318
    12.9481  13.4217

          k = 0.0455 0.2273-0.5000 ( 15696 PWs)   bands (ev):

    -1.1374  -1.1374   0.3506   0.3507   1.3305   1.3306   1.8168   1.8169
     2.7803   2.7803   2.7819   2.7819   3.2578   3.2579   4.2078   4.2078
     5.1227   5.1228   5.5645   5.5646   5.6068   5.6068   6.5060   6.5060
     6.9399   6.9399   6.9437   6.9438   7.8389   7.8389   8.1253   8.1253
     8.4096   8.4097   8.5589   8.5589   9.3756   9.3756   9.7723   9.7724
     9.8020   9.8020  10.2485  10.2485  10.3660  10.3660  10.8234  10.8234
    11.7793  11.7793  11.9844  11.9844  12.2937  12.2938  12.3751  12.3751
    13.3462  13.3462

          k = 0.0455 0.3182 0.3182 ( 15704 PWs)   bands (ev):

    -1.4103  -0.4132  -0.4132   0.5742   1.0644   1.5520   2.0367   2.0367
     2.5191   2.5192   2.9972   2.9998   2.9998   3.4727   3.9511   3.9511
     5.3454   5.3454   5.7976   5.7977   5.8063   5.8064   6.0252   6.0253
     6.7183   6.7184   7.1663   7.1781   7.1782   7.8371   7.8372   8.1697
     8.9071   8.9072   9.0197   9.0197   9.1756   9.1756   9.6169   9.6169
     9.6608   9.6608   9.6746   9.9714  10.1083  10.1322  11.7214  11.7214
    12.1476  12.1476  12.3297  12.3297  12.4817  12.4817  12.5295  12.7863
    12.7863  12.9642

          k = 0.0455 0.3182 0.4091 ( 15691 PWs)   bands (ev):

    -1.2283  -0.7294  -0.2329   0.2611   1.2419   1.7284   1.7286   2.2123
     2.2126   2.6930   2.6936   3.1710   3.1736   3.6496   3.6496   4.5930
     5.0567   5.5027   5.8882   5.9421   5.9646   5.9734   5.9807   6.1906
     6.4012   6.4300   7.2538   7.3449   7.5520   7.6445   7.7583   8.3292
     8.4840   8.6474   8.7624   8.9071   8.9151   8.9186   8.9431   9.3251
     9.3355   9.6924   9.9858  10.1653  10.2905  10.7484  11.6243  11.7107
    11.8318  12.0816  12.2474  12.3342  12.3890  12.5861  12.6281  12.7971
    12.9395  13.0246

          k = 0.0455 0.3182-0.5000 ( 15674 PWs)   bands (ev):

    -1.0012  -1.0012  -0.0081  -0.0081   1.4634   1.4634   1.9489   1.9489
     2.4312   2.4312   2.9111   2.9111   3.3903   3.3903   4.3362   4.3362
     5.2705   5.2705   5.6901   5.6901   6.0970   6.0970   6.1814   6.1814
     6.6073   6.6073   7.0094   7.0094   7.8473   7.8473   8.2487   8.2487
     8.3629   8.3629   8.5276   8.5276   8.7089   8.7089   9.1057   9.1057
     9.4613   9.4613  10.1531  10.1532  10.9419  10.9419  11.3996  11.3997
    11.9392  11.9392  12.0122  12.0123  12.5472  12.5472  12.6844  12.6844
    13.4937  13.4938

          k = 0.0455 0.4091 0.4091 ( 15688 PWs)   bands (ev):

    -1.0466  -0.5486  -0.5486  -0.0530   1.4191   1.9047   1.9047   1.9049
     2.3874   2.3878   2.3878   2.8675   3.8220   3.8220   4.2941   4.2941
     5.2258   5.2258   5.6883   5.6883   6.1084   6.1085   6.3553   6.3554
     6.5127   6.5127   7.2621   7.2622   7.5112   7.5113   8.2474   8.2474
     8.3228   8.3888   8.3889   8.4873   8.6461   8.6461   8.8981   8.8981
     9.4214   9.5415   9.5415  10.1104  10.9053  11.3633  11.6829  11.6829
    11.9349  11.9891  12.2359  12.2359  12.6935  12.6935  12.9203  12.9203
    13.4007  13.4007

          k = 0.0455 0.4091-0.5000 ( 15682 PWs)   bands (ev):

    -0.8200  -0.8199  -0.3231  -0.3230   1.6401   1.6402   2.1244   2.1245
     2.1247   2.1248   2.6062   2.6063   4.0370   4.0370   4.5070   4.5070
     4.9746   4.9746   5.4364   5.4365   6.2626   6.2626   6.5622   6.5622
     6.7184   6.7184   7.0162   7.0162   7.7148   7.7148   8.0117   8.0117
     8.1535   8.1535   8.4485   8.4485   8.6817   8.6817   8.8377   8.8377
     9.2464   9.2465   9.9021   9.9022  11.5552  11.5552  11.6920  11.6920
    11.7925  11.7926  12.0131  12.0131  12.8822  12.8822  13.1465  13.1466
    13.3402  13.4512

          k = 0.0455-0.5000-0.5000 ( 15676 PWs)   bands (ev):

    -0.5938  -0.5938  -0.5938  -0.5937   1.8606   1.8606   1.8606   1.8607
     2.3439   2.3440   2.3440   2.3440   4.7199   4.7199   4.7199   4.7199
     4.7200   4.7200   4.7200   4.7200   6.7678   6.7678   6.7678   6.7678
     6.7679   6.7679   6.7679   6.7679   7.9179   7.9179   7.9180   7.9180
     7.9180   7.9180   7.9180   7.9181   8.8576   8.8576   8.8576   8.8576
     9.5014   9.5014   9.5014   9.5014  11.6657  11.6657  11.6657  11.6657
    12.2034  12.2034  12.2034  12.2034  12.6613  12.6613  12.6613  12.6613
    13.7740  13.7740

          k = 0.1364 0.1364 0.1364 ( 15693 PWs)   bands (ev):

    -1.8210   0.1716   0.1716   0.1716   1.6406   1.6406   1.6407   2.1247
     2.1247   2.1248   3.5627   3.5627   3.5628   3.5628   3.5628   3.5628
     4.0249   4.9736   4.9736   4.9737   5.3454   5.3455   5.3455   7.1018
     7.1018   7.1018   7.1641   7.1642   7.1642   8.3980   8.8950   8.8950
     8.8950   8.8950   8.8951   8.8951  10.2905  10.2905  10.2905  10.2905
    10.2905  10.2905  10.4844  10.4845  10.4845  10.8512  10.8512  10.8512
    12.0559  12.0559  12.0559  12.0560  12.0560  12.0560  12.1983  12.1983
    12.1983  12.1983

          k = 0.1364 0.1364 0.2273 ( 15701 PWs)   bands (ev):

    -1.7296  -0.2329   0.2612   0.2612   1.7284   1.7285   1.7289   1.7289
     2.2125   2.2132   3.1731   3.1731   3.6427   3.6486   3.6486   4.1223
     4.1223   5.0165   5.0166   5.0554   5.5205   5.5205   5.7362   6.4087
     6.8818   7.2454   7.2455   7.5932   7.5933   8.1768   8.1769   8.5599
     8.5599   8.8733   8.8734   8.9349   9.7123   9.7123  10.1722  10.4245
    10.4245  10.4845  10.4845  10.5534  10.5534  10.6882  10.6883  11.3809
    11.5233  11.5233  11.8269  11.8269  11.9805  11.9806  12.3872  12.3872
    12.7278  12.7279

          k = 0.1364 0.1364 0.3182 ( 15707 PWs)   bands (ev):

    -1.5926  -0.5937   0.3955   0.3955   1.3748   1.3748   1.8612   1.8612
     2.3439   2.8252   2.8252   2.8257   3.2995   3.7770   3.7770   4.6984
     4.6984   4.7199   4.7199   5.1766   5.6389   5.8603   6.1022   6.1022
     7.0089   7.3672   7.3672   7.4425   7.4425   8.1544   8.1544   8.2484
     8.2485   8.5825   8.5826   9.4236   9.4236   9.4564   9.5135  10.1603
    10.1603  10.5687  10.5687  10.6529  10.6529  10.8082  10.8082  10.9687
    10.9687  11.4960  11.4960  12.0450  12.0451  12.1741  12.3612  12.6635
    12.6635  13.2966

          k = 0.1364 0.1364 0.4091 ( 15713 PWs)   bands (ev):

    -1.4103  -0.9105   0.5743   0.5743   1.0642   1.0643   2.0372   2.0372
     2.5187   2.5196   2.5196   2.9972   3.4768   3.9474   3.9474   4.4103
     4.4103   4.8872   5.3345   5.3539   5.3539   5.7219   6.7152   6.7152
     6.7202   6.7202   7.4776   7.5290   7.5291   7.9709   7.9709   7.9969
     7.9969   8.7525   8.7647   8.7647   9.4765   9.4765   9.8802   9.8802
    10.0995  10.0995  10.1308  10.7433  10.7433  10.7761  10.7762  11.0085
    11.0085  11.2054  11.2054  11.4675  12.3898  12.3898  12.9215  12.9215
    13.5515  13.5519

          k = 0.1364 0.1364-0.5000 ( 15686 PWs)   bands (ev):

    -1.1828  -1.1828   0.7973   0.7973   0.7973   0.7973   2.2568   2.2568
     2.2568   2.2568   2.7366   2.7367   4.1590   4.1590   4.1590   4.1591
     4.1649   4.1649   5.5226   5.5227   6.0219   6.0219   6.0219   6.0219
     7.3524   7.3525   7.3525   7.3525   7.7305   7.7305   7.7306   7.7306
     8.0840   8.0840   9.4153   9.4153   9.4154   9.4154   9.6481   9.6481
     9.6481   9.6482  10.7837  10.7837  10.9081  10.9081  10.9081  10.9081
    10.9548  10.9548  10.9548  10.9548  12.9265  12.9265  12.9265  12.9265
    13.1867  13.1867

          k = 0.1364 0.2273 0.2273 ( 15699 PWs)   bands (ev):

    -1.6383  -0.1429  -0.1429   0.3508   1.3304   1.8166   1.8166   1.8171
     2.3009   2.3009   3.2562   3.2596   3.2596   3.7355   3.7355   4.2071
     4.2071   4.6558   5.5125   5.5126   5.5991   5.5991   6.0606   6.4913
     6.4913   7.2704   7.2705   7.3265   7.8279   7.8279   8.1136   8.2149
     8.2150   8.6100   8.6100   9.4736   9.7839   9.7839   9.8065   9.8065
    10.0771  10.0771  10.1206  10.6149  10.8938  10.8939  11.1502  11.1502
    11.4439  11.4440  12.0546  12.0546  12.2076  12.2076  12.3551  12.3551
    12.6293  12.6293

          k = 0.1364 0.2273 0.3182 ( 15693 PWs)   bands (ev):

    -1.5014  -0.5034  -0.0080   0.4849   0.9753   1.4633   1.9487   1.9492
     2.4323   2.9101   2.9121   2.9128   3.3890   3.3900   4.3248   4.3337
     4.3365   4.8033   5.2274   5.7140   5.7226   5.9425   6.1751   6.6149
     6.6329   7.0824   7.0941   7.4476   7.5039   7.5099   7.8010   8.1994
     8.3166   8.6260   8.6848   9.0950   9.2132   9.4865   9.5080   9.8009
     9.9051  10.0524  10.4348  10.4766  10.6988  10.8181  11.0674  11.3411
    11.3483  11.5322  12.0222  12.0931  12.4106  12.4139  12.5714  12.6245
    12.7091  12.9222

          k = 0.1364 0.2273 0.4091 ( 15698 PWs)   bands (ev):

    -1.3193  -0.8199   0.1715   0.6635   0.6635   1.1531   2.1244   2.1251
     2.6056   2.6069   2.6073   3.0865   3.5610   3.5633   4.0302   4.5015
     4.9531   4.9720   4.9745   5.4352   5.8587   6.1082   6.3519   6.7759
     6.7792   6.7924   7.2277   7.2305   7.2610   7.6086   7.9247   8.0457
     8.3804   8.3997   8.4024   8.9503   9.2178   9.2380   9.2987   9.5299
     9.7271  10.0703  10.5272  10.6338  10.6693  10.7618  10.7884  11.2555
    11.6330  11.6596  11.7289  12.0039  12.1584  12.6222  12.6752  13.0211
    13.1255  13.2317

          k = 0.1364 0.2273-0.5000 ( 15684 PWs)   bands (ev):

    -1.0920  -1.0920   0.3954   0.3954   0.8863   0.8864   2.3435   2.3436
     2.3444   2.3444   2.8254   2.8254   3.7750   3.7751   4.2506   4.2506
     4.7089   4.7089   5.6474   5.6474   6.0140   6.0141   6.0998   6.0998
     6.9837   6.9838   7.3825   7.3825   7.7646   7.7646   7.8085   7.8085
     7.8360   7.8361   9.0171   9.0172   9.0452   9.0452   9.3211   9.3211
     9.9501   9.9501  10.2778  10.2778  10.8412  10.8412  11.3213  11.3213
    11.4741  11.4742  11.7112  11.7112  12.4926  12.4926  12.8581  12.8581
    13.0786  13.0786

          k = 0.1364 0.3182 0.3182 ( 15695 PWs)   bands (ev):

    -1.3648  -0.3681  -0.3681   0.6188   0.6189   1.5959   1.5959   2.0811
     2.5619   3.0423   3.0424   3.0433   3.0433   3.9872   3.9938   3.9938
     4.9274   4.9275   5.7628   5.7629   5.8480   5.8480   6.2770   6.2770
     6.7574   6.7575   7.1897   7.5213   7.5213   7.5679   7.5757   7.5758
     8.4056   8.4056   8.7866   8.7866   9.2434   9.2435   9.2595   9.4903
     9.8997   9.8997  10.1035  10.1036  10.6309  10.7479  11.5882  11.5882
    11.9129  11.9129  12.2021  12.2021  12.4800  12.4800  12.5871  12.5871
    13.0396  13.1015

          k = 0.1364 0.3182 0.4091 ( 15674 PWs)   bands (ev):

    -1.1828  -0.6842  -0.1879   0.3058   0.7973   1.2861   1.7724   2.2558
     2.2567   2.7377   3.2155   3.2170   3.6888   3.6926   3.6927   4.6351
     5.0911   5.0989   5.5218   5.5555   6.0147   6.0211   6.2313   6.3888
     6.4702   6.8455   6.8935   7.3875   7.5887   7.7271   7.7551   8.0888
     8.1253   8.1537   8.4612   8.5497   8.6898   9.2427   9.3624   9.3776
     9.3985   9.8154   9.8741  10.3236  10.7570  11.2073  11.2468  11.8005
    12.0905  12.0910  12.2904  12.3618  12.5122  12.5218  12.5263  12.5788
    12.8140  13.1888

          k = 0.1364 0.3182-0.5000 ( 15670 PWs)   bands (ev):

    -0.9559  -0.9559   0.0368   0.0368   1.0198   1.0198   1.9925   1.9925
     2.4757   2.4757   3.4312   3.4312   3.4335   3.4335   4.3788   4.3788
     5.2914   5.2915   5.3119   5.3119   6.2136   6.2136   6.2223   6.2223
     6.4387   6.4387   7.3473   7.3473   7.5914   7.5914   7.9236   7.9236
     8.2583   8.2583   8.4542   8.4542   8.7222   8.7222   9.1237   9.1237
     9.5720   9.5721  10.5250  10.5250  10.6366  10.6366  11.8975  11.8975
    12.0299  12.0299  12.1713  12.1713  12.4440  12.4440  12.5668  12.5668
    13.1654  13.1654

          k = 0.1364 0.4091 0.4091 ( 15660 PWs)   bands (ev):

    -1.0012  -0.5035  -0.5034  -0.0081   0.9753   1.4632   1.4632   1.9485
     2.4319   2.9117   2.9118   3.3879   3.8650   3.8650   4.3366   4.3367
     5.2678   5.2678   5.7123   5.7123   5.7295   5.7295   6.0957   6.0958
     6.8518   6.8518   7.0046   7.0047   7.8512   7.8513   7.8829   7.9931
     7.9931   8.2175   8.2827   8.2828   8.7242   8.7243   9.0853   9.1163
     9.1163   9.7879   9.7879  10.4882  10.5948  11.8181  11.8181  11.8615
    12.1637  12.1638  12.1682  12.3659  12.3659  12.5445  12.8871  12.8871
    13.1401  13.1906

          k = 0.1364 0.4091-0.5000 ( 15682 PWs)   bands (ev):

    -0.7747  -0.7747  -0.2780  -0.2780   1.1974   1.1974   1.6841   1.6841
     2.6504   2.6504   3.1286   3.1287   4.0797   4.0798   4.5495   4.5495
     5.0166   5.0166   5.4781   5.4781   5.8988   5.8988   6.3568   6.3569
     6.6023   6.6024   7.0552   7.0552   7.7573   7.7574   8.0721   8.0721
     8.1960   8.1960   8.3787   8.3788   8.4527   8.4527   8.8861   8.8862
     9.2876   9.2876  10.2452  10.2452  11.1377  11.1377  12.0716  12.0716
    12.3237  12.3237  12.4637  12.4637  12.5108  12.5108  12.6170  12.6171
    12.9142  12.9143

          k = 0.1364-0.5000-0.5000 ( 15672 PWs)   bands (ev):

    -0.5486  -0.5486  -0.5486  -0.5486   1.4189   1.4190   1.4190   1.4190
     2.8682   2.8682   2.8682   2.8682   4.7622   4.7622   4.7622   4.7622
     4.7622   4.7623   4.7623   4.7623   6.5102   6.5102   6.5102   6.5102
     6.5102   6.5102   6.5103   6.5103   8.2417   8.2418   8.2418   8.2418
     8.2550   8.2550   8.2550   8.2550   8.2551   8.2551   8.2551   8.2551
     9.7501   9.7501   9.7501   9.7501  11.7853  11.7853  11.7853  11.7853
    12.1464  12.1464  12.1464  12.1464  13.2243  13.2244  13.2245  13.2245
    13.2245  13.2246

          k = 0.2273 0.2273 0.2273 ( 15690 PWs)   bands (ev):

    -1.5470  -0.0530  -0.0530  -0.0529   1.4190   1.4190   1.4190   2.3885
     2.3885   2.3886   2.8665   3.8211   3.8211   3.8211   3.8212   3.8212
     3.8212   5.1851   5.1852   5.1852   6.1335   6.1335   6.1335   6.5735
     6.5736   6.5736   7.7600   7.7600   7.7600   7.8912   7.8912   7.8912
     7.8912   7.8912   7.8912   9.4465   9.4465   9.4466  10.0128  10.2380
    10.2380  10.2380  10.2381  10.2381  10.2381  11.4947  11.4948  11.4948
    11.6799  11.6799  11.6799  11.6799  11.6799  11.6799  12.9300  12.9301
    12.9301  12.9301

          k = 0.2273 0.2273 0.3182 ( 15688 PWs)   bands (ev):

    -1.4103  -0.4132   0.0817   0.0818   1.0642   1.0642   1.5517   2.5181
     2.5198   2.5198   2.9998   3.4762   3.4763   3.9492   3.9492   4.4210
     4.4210   4.8681   4.8682   5.7211   5.8061   6.2355   6.6937   6.6937
     6.6967   6.6967   7.1546   7.1546   7.4801   7.5827   7.5827   7.9679
     7.9679   8.3194   8.3194   8.7462   9.1382   9.1383   9.5871   9.5872
    10.3961  10.3961  10.5915  10.7237  10.7237  10.9660  10.9661  11.3455
    11.3455  11.5549  11.5550  12.2482  12.2482  12.4422  12.7723  12.7724
    13.1826  13.1827

          k = 0.2273 0.2273 0.4091 ( 15685 PWs)   bands (ev):

    -1.2283  -0.7294   0.2611   0.2611   0.7526   0.7527   1.7283   2.2119
     2.6945   2.6946   3.1732   3.1732   3.6496   4.1192   4.1192   4.5809
     4.5809   5.0566   5.0576   5.0576   6.1900   6.3475   6.4295   6.4295
     6.8602   6.8602   7.2602   7.2603   7.3050   7.3050   7.3460   7.9926
     7.9926   8.0844   8.8991   8.8991   8.9279   8.9279   9.0345   9.0345
    10.2591  10.2592  10.5789  10.5789  11.0511  11.0511  11.1804  11.1804
    11.2077  11.5868  11.5869  12.5403  12.6885  12.6886  12.8535  12.8535
    13.1935  13.1935

          k = 0.2273 0.2273-0.5000 ( 15666 PWs)   bands (ev):

    -1.0012  -1.0012   0.4848   0.4848   0.4848   0.4849   1.9484   1.9485
     2.9124   2.9124   2.9124   2.9125   4.3303   4.3303   4.3303   4.3303
     4.3361   4.3361   5.7283   5.7283   5.7283   5.7283   6.3975   6.3975
     7.0633   7.0634   7.0634   7.0634   7.5500   7.5500   7.7614   7.7614
     7.7614   7.7614   8.7979   8.7979   8.7979   8.7979   9.5768   9.5768
     9.5768   9.5768  10.7960  10.7960  10.7961  10.7961  11.4946  11.4946
    11.4946  11.4947  11.8588  11.8588  12.8014  12.8015  12.8015  12.8015
    13.4934  13.4935

          k = 0.2273 0.3182 0.3182 ( 15689 PWs)   bands (ev):

    -1.2738  -0.2780  -0.2780   0.2163   0.7080   1.1974   1.1974   2.1680
     2.6509   3.1301   3.1301   3.6053   3.6053   4.0791   4.0792   4.5382
     4.5473   4.5473   5.4375   5.4376   5.9311   5.9311   6.7633   6.7633
     6.8189   6.8347   6.8347   7.2194   7.2561   7.2561   7.6858   7.6858
     8.0080   8.0080   8.4694   8.4694   8.8594   8.8885   9.7115   9.7115
    10.0731  10.0731  10.6320  10.6320  10.9223  10.9223  11.1696  11.5363
    11.5363  11.5451  11.9113  11.9114  12.4440  12.4440  12.9573  12.9573
    13.2173  13.5979

          k = 0.2273 0.3182 0.4091 ( 15689 PWs)   bands (ev):

    -1.0920  -0.5938  -0.0980   0.3953   0.3954   0.8863   1.3746   1.8604
     2.8253   3.3030   3.3036   3.7768   3.7785   3.7788   4.2446   4.7145
     4.7193   5.1644   5.1813   5.1832   6.0122   6.0972   6.1015   6.5428
     6.5502   6.7696   6.9809   7.2243   7.3686   7.4183   7.6795   7.7702
     7.8029   7.9121   8.3359   8.6043   8.7204   9.0647   9.4451   9.5003
     9.8787   9.9267  10.3393  10.5878  10.8310  11.1246  11.4115  11.4617
    11.6132  11.7848  12.1435  12.3214  12.5137  12.7799  12.8291  13.1150
    13.1559  13.2356

          k = 0.2273 0.3182-0.5000 ( 15672 PWs)   bands (ev):

    -0.8653  -0.8652   0.1265   0.1266   0.6188   0.6188   1.5957   1.5958
     3.0428   3.0428   3.5198   3.5199   3.9902   3.9903   4.4641   4.4641
     4.9212   4.9212   5.3945   5.3945   5.8481   5.8481   6.3038   6.3039
     6.5196   6.5196   7.1815   7.1815   7.4231   7.4232   7.6761   7.6761
     7.8685   7.8685   8.5386   8.5386   8.9231   8.9231   9.2474   9.2474
    10.0881  10.0881  10.1496  10.1496  11.0690  11.0690  11.3521  11.3521
    11.9663  11.9664  12.4347  12.4347  12.7037  12.7037  12.7853  12.7853
    13.1495  13.1495

          k = 0.2273 0.4091 0.4091 ( 15681 PWs)   bands (ev):

    -0.9106  -0.4132  -0.4132   0.0817   0.5742   1.0641   1.0642   1.5516
     2.9993   3.4755   3.4756   3.9472   3.9508   3.9508   4.4216   4.4216
     5.3442   5.3442   5.3516   5.3516   5.7727   5.7728   5.8116   5.8116
     6.6854   6.6854   6.9310   6.9311   7.1403   7.5622   7.5622   7.8272
     8.0777   8.0777   8.3344   8.3345   8.8854   9.1987   9.1987   9.6375
     9.6376   9.9669   9.9669  10.1125  11.0308  11.4405  11.4405  11.6981
    11.6981  12.2107  12.2107  12.3989  12.7010  12.7594  12.8331  12.8331
    12.9285  12.9286

          k = 0.2273 0.4091-0.5000 ( 15670 PWs)   bands (ev):

    -0.6842  -0.6842  -0.1880  -0.1880   0.7972   0.7972   1.2860   1.2860
     3.2162   3.2162   3.6905   3.6905   4.1652   4.1652   4.6344   4.6344
     5.1003   5.1003   5.5436   5.5437   5.5612   5.5613   6.0040   6.0040
     6.3852   6.3852   6.8384   6.8384   7.3359   7.3359   7.7202   7.7203
     8.1366   8.1367   8.5724   8.5725   8.9646   8.9646   9.3718   9.3718
     9.3935   9.3935  10.5160  10.5160  10.7608  10.7608  11.9413  11.9414
    12.0846  12.0846  12.2823  12.2823  12.7626  12.7627  12.8394  12.8394
    13.0481  13.0487

          k = 0.2273-0.5000-0.5000 ( 15700 PWs)   bands (ev):

    -0.4584  -0.4584  -0.4584  -0.4583   1.0197   1.0197   1.0197   1.0197
     3.4322   3.4323   3.4323   3.4323   4.8466   4.8466   4.8466   4.8466
     4.8467   4.8467   4.8467   4.8467   6.1895   6.1895   6.1895   6.1895
     6.1895   6.1895   6.1895   6.1895   7.5210   7.5210   7.5210   7.5210
     8.7342   8.7342   8.7342   8.7342   8.7342   8.7342   8.7342   8.7343
     9.9307   9.9307   9.9307   9.9307  11.4073  11.4073  11.4073  11.4073
    12.5563  12.5563  12.5563  12.5563  12.5563  12.5563  12.5563  12.5563
    12.9133  12.9133

          k = 0.3182 0.3182 0.3182 ( 15681 PWs)   bands (ev):

    -1.1374  -0.1430  -0.1430  -0.1429   0.8417   0.8417   0.8417   1.8163
     3.2602   3.2602   3.2602   4.2067   4.2067   4.2068   4.2068   4.2068
     4.2068   5.1220   5.1221   5.1221   6.0554   6.0554   6.0554   6.9477
     6.9477   6.9477   6.9477   6.9477   6.9477   7.1832   7.1832   7.1832
     8.2962   8.2962   8.2962   8.5647   8.5647   8.5648  10.2382  10.2383
    10.2383  10.2383  10.2383  10.2383  11.1997  11.1997  11.1997  11.1998
    11.1998  11.1998  11.7469  12.2801  12.2801  12.2801  13.5842  13.5843
    13.5843  13.8014

          k = 0.3182 0.3182 0.4091 ( 15674 PWs)   bands (ev):

    -0.9559  -0.4583   0.0368   0.0368   0.5295   0.5295   1.0197   1.5073
     3.4333   3.4333   3.9071   3.9071   3.9078   4.3761   4.3762   4.8361
     4.8361   4.8450   4.8450   5.3093   5.7307   6.2204   6.2204   6.2206
     6.2207   6.6687   6.6687   6.8897   7.0903   7.0903   7.3404   7.3404
     8.0379   8.2947   8.4616   8.4616   9.1706   9.1706   9.5711   9.5711
    10.4254  10.4254  10.4958  10.4959  10.7980  10.7980  10.9031  10.9031
    11.8044  11.8044  11.8957  11.8957  12.3613  12.8011  13.1112  13.1112
    13.4424  13.4759

          k = 0.3182 0.3182-0.5000 ( 15686 PWs)   bands (ev):

    -0.7294  -0.7294   0.2610   0.2610   0.2610   0.2611   1.2416   1.2417
     3.6490   3.6490   3.6491   3.6491   4.5864   4.5864   4.5864   4.5865
     4.5918   4.5918   5.5175   5.5176   5.5176   5.5176   6.3435   6.3435
     6.4253   6.4253   6.4253   6.4254   7.2442   7.2442   7.2442   7.2443
     8.0968   8.0969   8.9532   8.9533   8.9533   8.9533   9.8165   9.8165
     9.8165   9.8165  10.6456  10.6456  10.6456  10.6456  11.3666  11.3666
    11.3666  11.3666  12.4430  12.4431  12.4431  12.4431  13.0101  13.0101
    13.1596  13.1596

          k = 0.3182 0.4091 0.4091 ( 15674 PWs)   bands (ev):

    -0.7747  -0.2780  -0.2780   0.2162   0.2162   0.7080   0.7080   1.1973
     3.6059   4.0779   4.0779   4.0793   4.0793   4.5437   4.5486   4.5486
     5.0114   5.0115   5.4592   5.4592   5.4769   5.4770   5.9339   5.9339
     6.3757   6.3758   6.3837   6.7552   6.7552   6.8231   6.8232   7.2027
     8.4951   8.4952   8.8875   8.8875   8.9156   9.7394   9.7395   9.7792
    10.1354  10.1354  10.2020  10.2020  11.0073  11.0073  11.1029  11.1029
    11.3330  11.5037  11.5037  12.2260  12.2261  12.4165  12.7976  12.7976
    12.9746  13.4943

          k = 0.3182 0.4091-0.5000 ( 15668 PWs)   bands (ev):

    -0.5486  -0.5486  -0.0531  -0.0530   0.4400   0.4401   0.9307   0.9307
     3.8209   3.8209   4.2904   4.2905   4.2931   4.2931   4.7615   4.7615
     5.2171   5.2172   5.2253   5.2253   5.6797   5.6797   5.6854   5.6855
     6.1057   6.1057   6.5603   6.5603   6.5855   6.5855   7.0073   7.0073
     8.6569   8.6569   9.0873   9.0873   9.4985   9.4985   9.5268   9.5268
     9.9498   9.9498  10.4251  10.4251  10.7308  10.7309  11.2393  11.2393
    11.6136  11.6136  11.7446  11.7446  12.1370  12.1370  12.5090  12.5091
    13.6357  13.6358

          k = 0.3182-0.5000-0.5000 ( 15664 PWs)   bands (ev):

    -0.3231  -0.3231  -0.3231  -0.3230   0.6634   0.6634   0.6634   0.6634
     4.0349   4.0349   4.0349   4.0350   4.9729   4.9729   4.9729   4.9729
     4.9729   4.9729   4.9730   4.9730   5.8779   5.8779   5.8779   5.8779
     5.8780   5.8780   5.8780   5.8780   6.7815   6.7816   6.7816   6.7816
     9.2823   9.2823   9.2823   9.2823   9.2823   9.2824   9.2824   9.2824
    10.1001  10.1001  10.1001  10.1001  11.0694  11.0694  11.0694  11.0694
    11.8634  11.8634  11.8634  11.8634  11.8634  11.8634  11.8634  11.8634
    13.8227  13.8228

          k = 0.4091 0.4091 0.4091 ( 15654 PWs)   bands (ev):

    -0.5938  -0.0980  -0.0980  -0.0980   0.3953   0.3953   0.3953   0.8862
     4.2502   4.2502   4.2503   4.7171   4.7171   4.7172   4.7172   4.7172
     4.7172   5.1747   5.1748   5.1748   5.6433   5.6433   5.6433   6.0950
     6.0950   6.0950   6.0950   6.0950   6.0950   6.5186   6.5186   6.5186
     9.0496   9.0496   9.0496   9.4893   9.4893   9.4894  10.3246  10.3246
    10.3246  10.3247  10.3247  10.3247  10.8051  10.8051  10.8051  10.8051
    10.8051  10.8051  11.5830  11.5830  11.5830  12.1095  12.1095  12.1095
    13.5870  14.4347

          k = 0.4091 0.4091-0.5000 ( 15626 PWs)   bands (ev):

    -0.3682  -0.3681   0.1265   0.1265   0.1265   0.1266   0.6187   0.6188
     4.4630   4.4631   4.4631   4.4631   4.9264   4.9264   4.9264   4.9264
     4.9304   4.9304   5.3908   5.3908   5.3908   5.3908   5.8359   5.8359
     5.8498   5.8498   5.8499   5.8499   6.2921   6.2921   6.2921   6.2922
     9.2447   9.2447   9.6673   9.6673   9.6673   9.6673  10.1308  10.1308
    10.1308  10.1308  10.5463  10.5463  10.5464  10.5464  10.9430  10.9430
    10.9430  10.9430  11.4427  11.4427  11.4427  11.4427  11.8346  11.8346
    14.2338  14.2338

          k = 0.4091-0.5000-0.5000 ( 15616 PWs)   bands (ev):

    -0.1430  -0.1430  -0.1430  -0.1430   0.3505   0.3506   0.3506   0.3506
     4.6745   4.6745   4.6745   4.6745   5.1405   5.1405   5.1405   5.1405
     5.1405   5.1405   5.1405   5.1405   5.5953   5.5953   5.5953   5.5953
     5.5953   5.5953   5.5954   5.5954   6.0530   6.0530   6.0530   6.0531
     9.8781   9.8781   9.8781   9.8781   9.8781   9.8782   9.8782   9.8782
    10.2900  10.2900  10.2900  10.2900  10.7713  10.7713  10.7713  10.7713
    11.1769  11.1769  11.1769  11.1769  11.1769  11.1770  11.1770  11.1770
    14.8125  14.8126

          k =-0.5000-0.5000-0.5000 ( 15624 PWs)   bands (ev):

     0.0816   0.0816   0.0816   0.0816   0.0816   0.0816   0.0816   0.0818
     5.3484   5.3484   5.3484   5.3484   5.3484   5.3484   5.3484   5.3485
     5.3485   5.3485   5.3485   5.3485   5.3485   5.3485   5.3485   5.3485
     5.3485   5.3485   5.3485   5.3485   5.3486   5.3486   5.3486   5.3486
    10.5121  10.5121  10.5121  10.5121  10.5121  10.5121  10.5121  10.5121
    10.5121  10.5121  10.5121  10.5121  10.5121  10.5121  10.5121  10.5121
    10.5121  10.5121  10.5122  10.5122  10.5122  10.5122  10.5122  10.5122
    15.5246  15.5248

     the Fermi energy is    11.3862 ev

!    total energy              =   -1262.96514949 Ry
     Harris-Foulkes estimate   =   -1262.96514928 Ry
     estimated scf accuracy    <       0.00000097 Ry

     total all-electron energy =    -15539.534171 Ry

     The total energy is the sum of the following terms:

     one-electron contribution =     127.57191823 Ry
     hartree contribution      =       0.37624270 Ry
     xc contribution           =     -88.65244799 Ry
     ewald contribution        =    -191.36815614 Ry
     one-center paw contrib.   =   -1110.89732152 Ry
     smearing contrib. (-TS)   =       0.00461524 Ry

     convergence has been achieved in   7 iterations

     Forces acting on atoms (cartesian axes, Ry/au):

     atom    1 type  1   force =     0.00000000   -0.00000000    0.00000000
     atom    2 type  1   force =     0.00000655    0.00000655   -0.00000000
     atom    3 type  1   force =     0.00000655    0.00000000    0.00000655
     atom    4 type  1   force =     0.00000000    0.00000655    0.00000655
     atom    5 type  1   force =     0.00000000    0.00000000    0.00000000
     atom    6 type  1   force =     0.00000059    0.00000059   -0.00000000
     atom    7 type  1   force =     0.00000655    0.00000000   -0.00000655
     atom    8 type  1   force =     0.00000000    0.00000655   -0.00000655
     atom    9 type  1   force =     0.00000000    0.00000000    0.00000000
     atom   10 type  1   force =     0.00000655   -0.00000655    0.00000000
     atom   11 type  1   force =     0.00000059   -0.00000000    0.00000059
     atom   12 type  1   force =     0.00000000   -0.00000655    0.00000655
     atom   13 type  1   force =     0.00000000    0.00000000    0.00000000
     atom   14 type  1   force =     0.00000059   -0.00000059    0.00000000
     atom   15 type  1   force =     0.00000059    0.00000000   -0.00000059
     atom   16 type  1   force =     0.00000000   -0.00000655   -0.00000655
     atom   17 type  1   force =     0.00000000    0.00000000    0.00000000
     atom   18 type  1   force =    -0.00000655    0.00000655   -0.00000000
     atom   19 type  1   force =    -0.00000655    0.00000000    0.00000655
     atom   20 type  1   force =     0.00000000    0.00000059    0.00000059
     atom   21 type  1   force =     0.00000000    0.00000000    0.00000000
     atom   22 type  1   force =    -0.00000059    0.00000059    0.00000000
     atom   23 type  1   force =    -0.00000655    0.00000000   -0.00000655
     atom   24 type  1   force =     0.00000000    0.00000059   -0.00000059
     atom   25 type  1   force =     0.00000000    0.00000000    0.00000000
     atom   26 type  1   force =    -0.00000655   -0.00000655    0.00000000
     atom   27 type  1   force =    -0.00000059   -0.00000000    0.00000059
     atom   28 type  1   force =    -0.00000000   -0.00000059    0.00000059
     atom   29 type  1   force =     0.00000000   -0.00000000    0.00000000
     atom   30 type  1   force =    -0.00000059   -0.00000059    0.00000000
     atom   31 type  1   force =    -0.00000059    0.00000000   -0.00000059
     atom   32 type  1   force =    -0.00000000   -0.00000059   -0.00000059

     Total force =     0.000032     Total SCF correction =     0.000045
     SCF correction compared to forces is large: reduce conv_thr to get better values


     Computing stress (Cartesian axis) and pressure

          total   stress  (Ry/bohr**3)                   (kbar)     P=  465.38
   0.00316360   0.00000000   0.00000000        465.38      0.00      0.00
   0.00000000   0.00316360   0.00000000          0.00    465.38      0.00
   0.00000000   0.00000000   0.00316360          0.00      0.00    465.38


     BFGS Geometry Optimization

     number of scf cycles    =   1
     number of bfgs steps    =   0

     enthalpy new            =   -1262.9651494860 Ry

     new trust radius        =       0.5000000000 bohr
     new conv_thr            =       0.0000010000 Ry

     new unit-cell volume =   3031.61223 a.u.^3 (   449.23858 Ang^3 )
     density =      3.19151 g/cm^3

CELL_PARAMETERS (alat= 13.80000000)
   1.048766477   0.000000000   0.000000000
   0.000000000   1.048766477   0.000000000
   0.000000000   0.000000000   1.048766477

ATOMIC_POSITIONS (crystal)
Al       0.000000000  -0.000000000   0.000000000
Al       0.250000293   0.250000293  -0.000000000
Al       0.250000293   0.000000000   0.250000293
Al       0.000000000   0.250000293   0.250000293
Al       0.000000000   0.000000000   0.500000000
Al       0.250000026   0.250000026   0.500000000
Al       0.250000293   0.000000000   0.749999707
Al       0.000000000   0.250000293   0.749999707
Al       0.000000000   0.500000000   0.000000000
Al       0.250000293   0.749999707   0.000000000
Al       0.250000026   0.500000000   0.250000026
Al       0.000000000   0.749999707   0.250000293
Al       0.000000000   0.500000000   0.500000000
Al       0.250000026   0.749999974   0.500000000
Al       0.250000026   0.500000000   0.749999974
Al       0.000000000   0.749999707   0.749999707
Al       0.500000000   0.000000000   0.000000000
Al       0.749999707   0.250000293  -0.000000000
Al       0.749999707   0.000000000   0.250000293
Al       0.500000000   0.250000026   0.250000026
Al       0.500000000   0.000000000   0.500000000
Al       0.749999974   0.250000026   0.500000000
Al       0.749999707   0.000000000   0.749999707
Al       0.500000000   0.250000026   0.749999974
Al       0.500000000   0.500000000   0.000000000
Al       0.749999707   0.749999707   0.000000000
Al       0.749999974   0.500000000   0.250000026
Al       0.500000000   0.749999974   0.250000026
Al       0.500000000   0.500000000   0.500000000
Al       0.749999974   0.749999974   0.500000000
Al       0.749999974   0.500000000   0.749999974
Al       0.500000000   0.749999974   0.749999974



     Writing output data file awldOjhKxLyIRDLX.save/
     NEW-OLD atomic charge density approx. for the potential
     extrapolated charge  108.76888, renormalised to   96.00000

     total cpu time spent up to now is       72.6 secs

     Self-consistent Calculation

     iteration #  1     ecut=    50.00 Ry     beta= 0.10
     Davidson diagonalization with overlap
     ethr =  1.00E-06,  avg # of iterations =  8.7

     total cpu time spent up to now is       91.8 secs

     total energy              =   -1263.81253261 Ry
     Harris-Foulkes estimate   =   -1275.12644276 Ry
     estimated scf accuracy    <       0.00138800 Ry

     iteration #  2     ecut=    50.00 Ry     beta= 0.10
     Davidson diagonalization with overlap
     ethr =  1.45E-06,  avg # of iterations =  2.2

     total cpu time spent up to now is       99.8 secs

     total energy              =   -1263.81161062 Ry
     Harris-Foulkes estimate   =   -1263.81290022 Ry
     estimated scf accuracy    <       0.00121873 Ry

     iteration #  3     ecut=    50.00 Ry     beta= 0.10
     Davidson diagonalization with overlap
     ethr =  1.27E-06,  avg # of iterations =  1.0

     total cpu time spent up to now is      105.3 secs

     total energy              =   -1263.80892768 Ry
     Harris-Foulkes estimate   =   -1263.81161662 Ry
     estimated scf accuracy    <       0.00085092 Ry

     iteration #  4     ecut=    50.00 Ry     beta= 0.10
     Davidson diagonalization with overlap
     ethr =  8.86E-07,  avg # of iterations =  1.0

     total cpu time spent up to now is      110.8 secs

     End of self-consistent calculation

          k = 0.0433 0.0433 0.0433 ( 15660 PWs)   bands (ev):

    -2.6098  -0.3388  -0.3388  -0.3387   0.1101   0.1101   0.1102   1.8891
     1.8891   1.8892   2.3292   2.3292   2.3292   2.3293   2.3293   2.3293
     2.7675   2.7675   2.7676   4.0292   4.3677   4.3678   4.3678   5.1499
     5.1499   5.1500   5.4863   6.2708   6.2708   6.2708   8.1245   8.1245
     8.1245   8.3224   8.3224   8.3224   8.3225   8.3225   8.3225   8.7385
     8.7386   8.7386   8.7386   8.7386   8.7386   9.7083   9.7083   9.7083
     9.7083   9.7085   9.7085  10.4272  10.4272  10.4273  10.8432  10.8432
    10.8432  10.8432

          k = 0.0433 0.0433 0.1300 ( 15694 PWs)   bands (ev):

    -2.5681  -0.7485  -0.2980  -0.2979   0.1508   0.1509   0.5978   1.4873
     1.4874   1.9291   1.9292   1.9292   2.3691   2.3691   2.8071   2.8071
     2.8072   3.2433   3.2433   3.6604   4.0681   4.0681   4.4061   5.1897
     5.5255   5.5255   5.7015   5.9287   6.3083   6.3083   7.7605   7.7606
     7.9553   7.9553   8.1246   8.1246   8.1619   8.1619   8.4147   8.4147
     8.7630   8.7938   8.7939   9.1383   9.1383   9.6241   9.6242   9.9354
    10.0491  10.0492  10.0526  10.0527  10.1412  10.1413  10.3534  10.3534
    10.4647  10.4648

          k = 0.0433 0.0433 0.2167 ( 15705 PWs)   bands (ev):

    -2.4848  -1.1184  -0.2162  -0.2161   0.2323   0.2323   1.1236   1.1244
     1.1245   1.5677   1.5677   2.0092   2.4487   2.4488   2.8863   3.3144
     3.3220   3.3221   3.7388   3.7388   3.7557   3.7558   4.1459   4.9975
     5.6037   6.0063   6.0063   6.3834   6.3834   6.4239   7.0852   7.0852
     7.4824   7.4824   7.6200   7.6200   8.2362   8.2363   8.4674   8.4674
     8.8735   8.8735   9.2623   9.2623   9.2840   9.6052   9.7039   9.7039
     9.7089   9.7090   9.7842   9.7843  10.1240  10.1242  10.1242  10.3392
    10.3392  10.5612

          k = 0.0433 0.0433 0.3034 ( 15703 PWs)   bands (ev):

    -2.3599  -1.4482  -0.0937  -0.0936   0.3543   0.3544   0.8008   0.8009
     1.2454   1.2454   1.6868   2.1292   2.5680   2.5680   3.0018   3.0047
     3.4327   3.4327   3.8564   3.8729   3.8730   4.2833   4.3037   4.3038
     6.1220   6.3979   6.3980   6.4960   6.4960   6.5389   6.5389   6.8073
     6.8074   6.9609   7.3209   7.3209   8.3465   8.3465   8.5774   8.5774
     8.6060   8.9882   8.9882   9.0273   9.0273   9.0793   9.0794   9.4066
     9.4066   9.4488   9.8214   9.8215  10.2651  10.2651  10.5267  10.5685
    10.5685  10.8814

          k = 0.0433 0.0433 0.3901 ( 15697 PWs)   bands (ev):

    -2.1937  -1.7376   0.0694   0.0695   0.5168   0.5169   0.5170   0.5170
     0.9626   0.9627   2.2863   2.2888   2.7258   2.7267   2.7267   3.1601
     3.1601   3.1621   3.5878   3.5902   4.4585   4.4586   4.8858   4.8859
     5.7250   5.7251   6.1423   6.1424   6.6461   6.6461   6.6910   7.0586
     7.0586   7.1122   7.1122   7.5354   7.9396   8.3618   8.3618   8.4908
     8.4908   8.7274   8.7274   8.7844   8.8663   8.8663   9.1400   9.1401
     9.1422   9.1423   9.5565   9.5566  10.7857  10.7857  10.8178  10.8178
    11.1470  11.1470

          k = 0.0433 0.0433-0.4768 ( 15724 PWs)   bands (ev):

    -1.9861  -1.9861   0.2730   0.2731   0.2731   0.2732   0.7196   0.7197
     0.7197   0.7198   2.4878   2.4879   2.9207   2.9207   2.9243   2.9243
     2.9243   2.9243   3.3577   3.3578   5.0768   5.0768   5.0769   5.0769
     5.4998   5.4998   5.4999   5.4999   6.8336   6.8336   6.8337   6.8337
     7.2989   7.2989   7.7212   7.7212   7.7212   7.7213   8.1445   8.1445
     8.6660   8.6660   8.6660   8.6660   8.9157   8.9158   8.9158   8.9158
     9.3294   9.3294   9.3295   9.3295  11.0163  11.0163  11.0163  11.0164
    11.4138  11.4138

          k = 0.0433 0.1300 0.1300 ( 15692 PWs)   bands (ev):

    -2.5265  -0.7075  -0.7074  -0.2570   0.1916   0.6384   0.6384   1.0841
     1.5275   1.5276   1.9691   1.9692   2.4089   2.4089   2.8467   2.8468
     3.2750   3.2826   3.2826   3.6996   3.7166   4.4444   4.4445   5.2295
     5.2295   5.7396   5.7396   5.9676   6.3458   6.3855   7.3967   7.3968
     7.7436   7.7437   7.9831   7.9832   8.1988   8.3211   8.3212   8.5840
     8.5840   8.7994   8.7994   9.2289   9.2290   9.5550   9.5550   9.6714
     9.8930   9.8930   9.9726   9.9727  10.1037  10.1037  10.5112  10.5113
    10.8089  10.8089

          k = 0.0433 0.1300 0.2167 ( 15699 PWs)   bands (ev):

    -2.4432  -1.0773  -0.6254  -0.1753   0.2730   0.7195   0.7199   1.1640
     1.1648   1.6079   1.6080   2.0491   2.0492   2.9225   2.9259   2.9259
     3.3538   3.3610   3.3613   3.7946   4.1846   4.2261   4.5211   5.0362
     5.3087   5.6429   5.8158   6.4209   6.4625   6.7141   6.8849   7.0627
     7.1045   7.4416   7.6551   7.8603   8.0403   8.1388   8.2719   8.3780
     8.8719   8.9019   8.9096   9.2126   9.3189   9.3214   9.3316   9.6297
     9.6404   9.6463   9.7963  10.0169  10.0844  10.1612  10.5772  10.5813
    10.6757  10.8517

          k = 0.0433 0.1300 0.3034 ( 15702 PWs)   bands (ev):

    -2.3184  -1.4070  -0.5025  -0.0529   0.3950   0.3952   0.8410   0.8414
     1.2857   1.7270   1.7282   1.7285   2.1691   2.6064   3.0413   3.0443
     3.4783   3.4792   3.8954   3.9117   4.3013   4.3223   4.3419   4.7706
     5.7595   5.9301   6.0200   6.1608   6.4281   6.5335   6.7629   6.8241
     6.9992   7.2409   7.3574   7.4230   8.0941   8.2083   8.2230   8.3797
     8.4878   8.6437   8.9084   8.9791   8.9887   9.0297   9.3247   9.4372
     9.4862   9.6640   9.9077   9.9864  10.2570  10.2741  10.3208  10.5603
    11.1131  11.1468

          k = 0.0433 0.1300 0.3901 ( 15708 PWs)   bands (ev):

    -2.1521  -1.6962  -0.3388   0.1102   0.1103   0.5575   0.5576   1.0028
     1.0031   1.4467   1.8889   2.3262   2.3283   2.3287   2.7654   3.2016
     3.6272   3.6295   3.6338   4.0520   4.0677   4.4966   4.9228   5.3418
     5.3484   5.7597   6.0822   6.1723   6.3137   6.4990   6.5906   6.6835
     6.7295   7.0957   7.5566   7.5735   7.9776   7.9975   8.2318   8.3536
     8.5192   8.6388   8.6429   8.7659   8.8220   8.8585   9.0577   9.1191
     9.2447   9.4776   9.5906  10.0087  10.4392  10.4431  10.8600  10.9015
    11.3448  11.5034

          k = 0.0433 0.1300-0.4768 ( 15712 PWs)   bands (ev):

    -1.9447  -1.9447  -0.1345  -0.1344   0.3138   0.3138   0.7602   0.7602
     1.2048   1.2048   2.0889   2.0889   2.5276   2.5276   2.9604   2.9604
     3.3971   3.3971   3.8261   3.8261   4.6894   4.6894   5.1137   5.1137
     5.5346   5.5346   5.9565   5.9565   6.2719   6.2719   6.8710   6.8710
     6.9172   6.9172   7.3372   7.3372   8.1824   8.1824   8.4168   8.4168
     8.5403   8.5404   8.6059   8.6059   8.6841   8.6841   8.8289   8.8290
     9.2879   9.2880   9.7809   9.7809  10.6561  10.6562  10.9970  10.9970
    11.4535  11.4535

          k = 0.0433 0.2167 0.2167 ( 15694 PWs)   bands (ev):

    -2.3599  -0.9950  -0.9949  -0.0937   0.3543   0.3545   1.2447   1.2447
     1.2455   1.2455   1.6882   1.6883   2.5666   2.5679   2.5679   3.0017
     3.4396   3.4397   3.8720   3.8720   4.5975   4.5976   4.7322   5.1134
     5.1134   5.3880   5.3880   6.3755   6.3756   6.4959   6.9614   7.0973
     7.0974   7.3854   7.7192   7.7193   7.8037   7.8038   8.3419   8.3633
     8.3633   8.5583   8.5583   8.9769   8.9770   8.9922   9.7102   9.7102
     9.7955   9.7955   9.8632   9.8632  10.6490  10.6490  10.6553  10.6553
    11.0680  11.0680

          k = 0.0433 0.2167 0.3034 ( 15709 PWs)   bands (ev):

    -2.2352  -1.3245  -0.8717   0.0287   0.0288   0.4763   0.9223   1.3657
     1.3663   1.3664   1.8072   1.8087   2.2484   2.2487   2.6859   3.1234
     3.5568   3.9875   3.9890   4.3786   4.4004   4.4177   4.7126   5.2291
     5.2722   5.5059   5.6767   5.8377   6.0721   6.4795   6.6084   6.8066
     7.4296   7.4992   7.5302   7.6457   7.8554   7.8793   7.9235   7.9242
     8.2538   8.2986   8.4437   8.6709   8.6909   8.6909   9.7760   9.8130
     9.9222   9.9774   9.9820  10.2458  10.4033  10.5840  10.6263  10.7644
    10.8391  11.2929

          k = 0.0433 0.2167 0.3901 ( 15708 PWs)   bands (ev):

    -2.0691  -1.6135  -0.7074  -0.2570   0.1917   0.6386   0.6387   1.0839
     1.5267   1.5275   1.9685   1.9688   1.9689   2.4061   2.4080   3.7059
     3.7121   3.7142   4.1298   4.1396   4.5340   4.5722   4.9945   4.9957
     5.3831   5.8051   5.8264   5.8440   5.9916   6.2226   6.3912   6.7583
     7.0615   7.1696   7.2143   7.5997   7.6328   7.9896   7.9915   8.0221
     8.0732   8.4038   8.4279   8.4972   8.5704   8.7921   9.3193   9.7418
     9.9456   9.9833  10.0783  10.1338  10.2611  10.4985  10.5656  10.9535
    11.0188  11.5897

          k = 0.0433 0.2167-0.4768 ( 15696 PWs)   bands (ev):

    -1.8618  -1.8618  -0.5025  -0.5025   0.3951   0.3951   0.8412   0.8412
     1.7277   1.7278   1.7283   1.7284   2.1688   2.1688   3.0397   3.0397
     3.9042   3.9042   4.3253   4.3253   4.3387   4.3387   5.1864   5.1864
     5.5752   5.5752   5.6013   5.6013   6.4434   6.4434   6.5797   6.5797
     6.9455   6.9455   6.9940   6.9940   7.7686   7.7686   8.1766   8.1767
     8.2040   8.2040   8.6810   8.6810   8.7048   8.7048   9.1044   9.1044
    10.1015  10.1015  10.2699  10.2699  10.3302  10.3302  10.4449  10.4449
    11.5343  11.5343

          k = 0.0433 0.3034 0.3034 ( 15704 PWs)   bands (ev):

    -2.1106  -1.2008  -1.2008  -0.2979   0.1510   0.5980   1.0436   1.0436
     1.4871   1.4872   1.9275   1.9276   1.9287   2.3681   2.8059   2.8059
     4.1043   4.1043   4.5173   4.5173   4.5299   4.5300   4.8271   4.8272
     5.3695   5.3696   5.6240   5.6241   5.8064   6.5000   6.5001   6.7207
     7.2696   7.2696   7.5308   7.5308   7.5763   7.5764   7.9928   7.9929
     8.0365   8.1895   8.1896   8.3904   8.4607   8.5321   9.7662   9.7663
    10.4379  10.4380  10.5138  10.5138  10.5339  10.7222  10.7222  10.9350
    10.9350  11.0159

          k = 0.0433 0.3034 0.3901 ( 15691 PWs)   bands (ev):

    -1.9447  -1.4895  -1.0361  -0.5844   0.3138   0.7602   0.7603   1.2050
     1.2051   1.6480   1.6480   2.0878   2.0888   2.5257   2.5272   3.3987
     3.8239   4.2562   4.6495   4.6730   4.6754   4.6841   4.6842   4.9806
     5.0995   5.1013   5.7795   5.9145   6.1083   6.2391   6.3692   6.8703
     6.9165   7.0158   7.2791   7.3175   7.3289   7.3380   7.4992   7.7277
     7.7788   8.1291   8.5405   8.6096   8.6270   9.0333   9.7088   9.8528
     9.8728  10.2683  10.2750  10.4254  10.6018  10.8422  10.9272  11.0255
    11.0806  11.2526

          k = 0.0433 0.3034-0.4768 ( 15674 PWs)   bands (ev):

    -1.7376  -1.7376  -0.8306  -0.8306   0.5170   0.5170   0.9626   0.9626
     1.4067   1.4067   1.8486   1.8486   2.2878   2.2878   3.1586   3.1586
     4.0256   4.0256   4.4414   4.4414   4.8435   4.8435   4.8671   4.8671
     5.2917   5.2917   5.6895   5.6895   6.2978   6.2978   6.6953   6.6953
     6.9521   6.9521   7.0568   7.0569   7.1132   7.1132   7.5063   7.5063
     7.9101   7.9101   8.6739   8.6739   9.2161   9.2161   9.6391   9.6391
     9.9436   9.9436  10.0457  10.0457  10.7958  10.7958  10.9685  10.9685
    11.6655  11.6655

          k = 0.0433 0.3901 0.3901 ( 15688 PWs)   bands (ev):

    -1.7790  -1.3245  -1.3244  -0.8717   0.4764   0.9222   0.9223   0.9223
     1.3663   1.3663   1.3664   1.8085   2.6849   2.6850   3.1218   3.1218
     3.9809   3.9809   4.4113   4.4114   4.8292   4.8293   5.1329   5.1329
     5.2290   5.2291   5.9355   5.9355   5.9707   5.9707   6.6741   6.6742
     6.7670   6.7671   6.9154   7.0193   7.0693   7.0694   7.4177   7.4178
     7.8728   8.0820   8.0820   8.6345   9.1812   9.6044   9.6896   9.6897
     9.9258  10.0147  10.4213  10.4213  10.8430  10.8430  11.1560  11.1561
    11.5893  11.5893

          k = 0.0433 0.3901-0.4768 ( 15682 PWs)   bands (ev):

    -1.5722  -1.5722  -1.1184  -1.1184   0.6793   0.6793   1.1243   1.1243
     1.1244   1.1244   1.5675   1.5676   2.8838   2.8838   3.3168   3.3168
     3.7506   3.7506   4.1768   4.1768   4.9967   4.9967   5.3247   5.3247
     5.4190   5.4190   5.7445   5.7445   6.1265   6.1265   6.4522   6.4522
     6.5416   6.5417   6.8648   6.8648   7.2039   7.2039   7.4253   7.4253
     7.7056   7.7056   8.4647   8.4647   9.6645   9.6645   9.7862   9.7862
     9.8141   9.8141  10.2087  10.2087  11.0229  11.0229  11.3573  11.3573
    11.4442  11.4442

          k = 0.0433-0.4768-0.4768 ( 15676 PWs)   bands (ev):

    -1.3658  -1.3658  -1.3657  -1.3657   0.8818   0.8818   0.8818   0.8819
     1.3260   1.3260   1.3260   1.3261   3.5142   3.5142   3.5142   3.5142
     3.5143   3.5143   3.5143   3.5143   5.5143   5.5143   5.5143   5.5143
     5.5144   5.5144   5.5144   5.5144   6.3185   6.3185   6.3186   6.3186
     6.3186   6.3186   6.3186   6.3186   7.3800   7.3800   7.3801   7.3801
     8.0458   8.0458   8.0458   8.0458   9.6618   9.6618   9.6618   9.6619
    10.3895  10.3895  10.3895  10.3895  10.8114  10.8114  10.8114  10.8114
    11.9496  11.9497

          k = 0.1300 0.1300 0.1300 ( 15693 PWs)   bands (ev):

    -2.4848  -0.6665  -0.6665  -0.6663   0.6789   0.6789   0.6790   1.1244
     1.1244   1.1245   2.4486   2.4487   2.4487   2.4488   2.4488   2.4488
     2.8829   3.7554   3.7554   3.7555   4.1457   4.1458   4.1458   5.6040
     5.6040   5.6040   5.7777   5.7777   5.7777   6.8467   7.4216   7.4216
     7.4216   7.4217   7.4217   7.4217   8.7001   8.7001   8.7001   8.7002
     8.7002   8.7002   8.8352   8.8353   8.8353   9.1751   9.1751   9.1752
    10.3863  10.3863  10.3863  10.3863  10.3864  10.3864  10.4278  10.4279
    10.4279  10.4279

          k = 0.1300 0.1300 0.2167 ( 15701 PWs)   bands (ev):

    -2.4015  -1.0361  -0.5845  -0.5844   0.7600   0.7600   0.7604   0.7604
     1.2044   1.2052   2.0891   2.0891   2.5269   2.5283   2.5283   2.9654
     2.9655   3.8170   3.8170   3.8329   4.2643   4.2643   4.5592   5.0748
     5.3486   5.8539   5.8539   6.0840   6.0840   6.7450   6.7451   7.0956
     7.0956   7.3474   7.4385   7.4386   8.1066   8.1066   8.5207   8.8036
     8.8036   8.8335   8.8336   8.9061   8.9061   9.1175   9.1175   9.6747
     9.7784   9.7784  10.0844  10.0844  10.2261  10.2261  10.6159  10.6159
    10.9201  10.9202

          k = 0.1300 0.1300 0.3034 ( 15707 PWs)   bands (ev):

    -2.2768  -1.3657  -0.4616  -0.4615   0.4358   0.4358   0.8814   0.8815
     1.3262   1.7671   1.7683   1.7684   2.2085   2.6475   2.6475   3.5113
     3.5113   3.5184   3.5185   3.9485   4.3613   4.6744   4.8076   4.8077
     5.4664   5.9680   5.9680   6.0547   6.0548   6.6160   6.6161   6.7985
     6.7985   7.1893   7.1893   7.7995   7.7996   7.8414   7.8857   8.5306
     8.5307   8.9285   8.9286   9.0102   9.0102   9.1023   9.1023   9.4276
     9.4276   9.7786   9.7786  10.1986  10.1987  10.3664  10.5921  10.8101
    10.8102  11.4490

          k = 0.1300 0.1300 0.3901 ( 15713 PWs)   bands (ev):

    -2.1106  -1.6548  -0.2979  -0.2978   0.1510   0.1511   1.0432   1.0433
     1.4869   1.4870   1.4873   1.9288   2.3661   2.8060   2.8060   3.2390
     3.2390   3.6665   4.1007   4.1063   4.1064   4.4954   5.3785   5.3786
     5.3831   5.3832   5.9526   6.1199   6.1199   6.5358   6.5358   6.6062
     6.6062   7.1761   7.1888   7.1888   7.8745   7.8746   8.2674   8.2675
     8.4373   8.4373   8.4596   9.0862   9.0862   9.1435   9.1435   9.4353
     9.4353   9.5104   9.5104   9.7047  10.5215  10.5215  11.0069  11.0069
    11.4714  11.4729

          k = 0.1300 0.1300-0.4768 ( 15686 PWs)   bands (ev):

    -1.9032  -1.9032  -0.0937  -0.0936  -0.0936  -0.0936   1.2451   1.2451
     1.2452   1.2452   1.6882   1.6882   3.0000   3.0001   3.0034   3.0034
     3.0034   3.0034   4.2865   4.2865   4.7273   4.7273   4.7274   4.7274
     5.9863   5.9864   5.9864   5.9864   6.3093   6.3093   6.3093   6.3093
     6.5411   6.5411   7.7973   7.7973   7.7973   7.7973   8.0461   8.0462
     8.0462   8.0463   9.0670   9.0670   9.2798   9.2798   9.2798   9.2798
     9.2960   9.2960   9.2960   9.2960  11.0497  11.0497  11.0497  11.0497
    11.2246  11.2246

          k = 0.1300 0.2167 0.2167 ( 15699 PWs)   bands (ev):

    -2.3184  -0.9539  -0.9538  -0.5025   0.3952   0.8410   0.8414   0.8414
     1.2850   1.2851   2.1686   2.1690   2.1691   2.6077   2.6077   3.0444
     3.0445   3.4719   4.3008   4.3009   4.3402   4.3403   4.7692   5.1519
     5.1519   5.7604   5.7604   5.9299   6.4104   6.4105   6.5781   6.7990
     6.7991   7.1558   7.1559   7.8483   8.1705   8.1705   8.1784   8.1785
     8.4932   8.5074   8.5075   8.9732   9.2646   9.2647   9.4334   9.4335
     9.7420   9.7420  10.2724  10.2724  10.3748  10.3748  10.5762  10.5762
    10.9053  10.9054

          k = 0.1300 0.2167 0.3034 ( 15693 PWs)   bands (ev):

    -2.1937  -1.2832  -0.8306  -0.3797   0.0696   0.5170   0.9624   0.9628
     1.4060   1.8474   1.8486   1.8486   2.2886   2.2888   3.1599   3.1627
     3.1628   3.5966   4.0124   4.4393   4.4526   4.7504   4.8807   5.2675
     5.3071   5.5459   5.7134   6.0437   6.1087   6.1215   6.2772   6.8294
     6.8681   7.1141   7.2096   7.5004   7.5800   7.8767   7.9142   8.1925
     8.2824   8.3859   8.7565   8.9358   9.0690   9.1264   9.4056   9.5980
     9.7274   9.8393  10.1921  10.2696  10.5234  10.6534  10.7668  10.8025
    10.8617  11.1045

          k = 0.1300 0.2167 0.3901 ( 15698 PWs)   bands (ev):

    -2.0276  -1.5722  -0.6664  -0.2162  -0.2161   0.2325   1.1240   1.1245
     1.5670   1.5674   1.5677   2.0085   2.4459   2.4482   2.8843   3.3198
     3.7452   3.7470   3.7532   4.1834   4.5983   4.9043   5.0322   5.4214
     5.4500   5.4510   5.7011   5.8425   5.8739   6.1952   6.5839   6.6087
     6.8398   6.8450   7.0050   7.3150   7.6184   7.6210   7.6876   7.9341
     8.0913   8.4351   8.8574   8.9345   8.9589   9.1827   9.2417   9.5703
     9.9584  10.0002  10.0600  10.1977  10.2014  10.6953  10.7857  11.0760
    11.1368  11.3678

          k = 0.1300 0.2167-0.4768 ( 15684 PWs)   bands (ev):

    -1.8204  -1.8204  -0.4615  -0.4615  -0.0120  -0.0120   1.3258   1.3258
     1.3261   1.3262   1.7679   1.7679   2.6468   2.6469   3.0793   3.0793
     3.5150   3.5150   4.3773   4.3773   4.7667   4.7667   4.8027   4.8027
     5.6132   5.6132   6.0364   6.0364   6.2203   6.2203   6.3838   6.3838
     6.4586   6.4586   7.4136   7.4137   7.4517   7.4517   7.7263   7.7263
     8.2957   8.2957   8.6269   8.6269   9.2800   9.2800   9.5651   9.5651
     9.7675   9.7675  10.0727  10.0727  10.5367  10.5367  10.8987  10.8987
    11.1738  11.1738

          k = 0.1300 0.3034 0.3034 ( 15695 PWs)   bands (ev):

    -2.0691  -1.1596  -1.1596  -0.2570  -0.2569   0.6388   0.6388   1.0836
     1.5274   1.9676   1.9677   1.9688   1.9689   2.8446   2.8455   2.8455
     3.7135   3.7136   4.5330   4.5330   4.5562   4.5562   4.9865   4.9866
     5.4071   5.4072   5.8362   5.9936   5.9937   6.1571   6.2104   6.2104
     6.9655   6.9656   7.2035   7.2036   7.6315   7.6315   7.6508   7.8966
     8.3459   8.3459   8.4491   8.4492   8.9226   9.1446   9.9096   9.9096
    10.1298  10.1298  10.2786  10.2787  10.7373  10.7373  10.7970  10.7970
    11.0743  11.1058

          k = 0.1300 0.3034 0.3901 ( 15674 PWs)   bands (ev):

    -1.9032  -1.4482  -0.9950  -0.5434  -0.0936   0.3545   0.8009   1.2451
     1.2455   1.6880   2.1278   2.1288   2.5655   2.5670   2.5672   3.4380
     3.8631   3.8685   4.2851   4.2984   4.7117   4.7224   5.0178   5.1146
     5.1376   5.5383   5.5560   5.8198   6.2701   6.3076   6.3842   6.5457
     6.5590   6.7160   6.9618   7.0570   7.0602   7.6517   7.7675   7.7779
     7.7846   8.1810   8.2239   8.7999   9.2020   9.4681   9.4944  10.0875
    10.1181  10.4131  10.4217  10.5202  10.5260  10.6966  10.7341  10.8193
    10.8383  11.3596

          k = 0.1300 0.3034-0.4768 ( 15670 PWs)   bands (ev):

    -1.6962  -1.6962  -0.7895  -0.7895   0.1103   0.1103   1.0032   1.0032
     1.4466   1.4467   2.3277   2.3277   2.3284   2.3284   3.1981   3.1981
     4.0601   4.0602   4.0645   4.0645   4.9056   4.9056   4.9143   4.9143
     5.2106   5.2106   6.0103   6.0103   6.0511   6.0511   6.4946   6.4946
     6.8300   6.8300   6.8934   6.8934   7.1471   7.1471   7.5120   7.5120
     7.9530   7.9530   8.8308   8.8308   9.1280   9.1280  10.0992  10.0992
    10.1583  10.1583  10.2904  10.2904  10.6096  10.6096  10.7808  10.7808
    11.2967  11.2967

          k = 0.1300 0.3901 0.3901 ( 15660 PWs)   bands (ev):

    -1.7376  -1.2833  -1.2832  -0.8306   0.0695   0.5170   0.5171   0.9628
     1.4064   1.8485   1.8485   2.2885   2.7247   2.7248   3.1613   3.1613
     4.0200   4.0200   4.4498   4.4499   4.4500   4.4501   4.8416   4.8416
     5.5930   5.5931   5.6830   5.6830   6.3019   6.3019   6.3893   6.3894
     6.4565   6.8512   6.8513   6.8560   7.1285   7.1286   7.4755   7.5188
     7.5189   8.2438   8.2438   8.7958   9.0898  10.0367  10.0367  10.0647
    10.1406  10.2011  10.2012  10.5791  10.6306  10.6306  11.0861  11.0861
    11.2705  11.3015

          k = 0.1300 0.3901-0.4768 ( 15682 PWs)   bands (ev):

    -1.5309  -1.5308  -1.0773  -1.0773   0.2732   0.2732   0.7199   0.7199
     1.6076   1.6076   2.0488   2.0488   2.9234   2.9234   3.3563   3.3563
     3.7898   3.7898   4.2158   4.2158   4.6344   4.6344   5.0588   5.0588
     5.3609   5.3609   5.7790   5.7790   6.1674   6.1674   6.5837   6.5837
     6.6398   6.6398   6.8870   6.8870   6.9807   6.9807   7.2969   7.2969
     7.7081   7.7081   8.7297   8.7297   9.4011   9.4011  10.0709  10.0709
    10.3637  10.3637  10.6384  10.6385  10.6681  10.6681  10.8455  10.8455
    11.1737  11.1737

          k = 0.1300-0.4768-0.4768 ( 15672 PWs)   bands (ev):

    -1.3245  -1.3245  -1.3244  -1.3244   0.4764   0.4764   0.4765   0.4765
     1.8083   1.8083   1.8084   1.8084   3.5535   3.5536   3.5536   3.5536
     3.5536   3.5536   3.5536   3.5536   5.2255   5.2255   5.2255   5.2255
     5.2255   5.2256   5.2256   5.2256   6.6820   6.6820   6.6820   6.6820
     6.6821   6.6821   6.6821   6.6821   6.8131   6.8131   6.8131   6.8132
     8.2091   8.2091   8.2091   8.2091  10.0047  10.0047  10.0047  10.0047
    10.1730  10.1730  10.1730  10.1730  11.2700  11.2702  11.4256  11.4258
    11.4260  11.4261

          k = 0.2167 0.2167 0.2167 ( 15690 PWs)   bands (ev):

    -2.2352  -0.8717  -0.8717  -0.8716   0.4764   0.4764   0.4765   1.3656
     1.3656   1.3657   1.8085   2.6871   2.6871   2.6871   2.6872   2.6872
     2.6872   3.9732   3.9732   3.9732   4.8422   4.8422   4.8424   5.2289
     5.2289   5.2289   6.2390   6.2390   6.2391   6.4779   6.4779   6.4779
     6.4780   6.4780   6.4780   7.8389   7.8389   7.8390   8.3487   8.6254
     8.6254   8.6254   8.6255   8.6255   8.6255   9.8028   9.8028   9.8028
     9.9269   9.9269   9.9269   9.9270   9.9270   9.9270  11.1127  11.1127
    11.1127  11.1128

          k = 0.2167 0.2167 0.3034 ( 15688 PWs)   bands (ev):

    -2.1106  -1.2008  -0.7485  -0.7484   0.1510   0.1511   0.5982   1.4864
     1.4865   1.4872   1.9276   2.3683   2.3684   2.8061   2.8061   3.2416
     3.2417   3.6682   3.6683   4.4941   4.5172   4.9482   5.3443   5.3443
     5.3740   5.3741   5.7856   5.7857   5.9553   6.1810   6.1810   6.5692
     6.5693   6.7699   6.7699   7.1654   7.5429   7.5430   7.9818   7.9818
     8.7573   8.7573   8.8856   9.1117   9.1117   9.2517   9.2517   9.6190
     9.6190   9.8841   9.8841  10.4565  10.4566  10.7010  10.8993  10.8994
    11.2931  11.2932

          k = 0.2167 0.2167 0.3901 ( 15685 PWs)   bands (ev):

    -1.9447  -1.4895  -0.5845  -0.5844  -0.1345  -0.1344   0.7604   1.2052
     1.6473   1.6474   2.0885   2.0886   2.5257   2.9644   2.9644   3.3965
     3.3965   3.8238   3.8312   3.8313   4.9794   5.0764   5.1073   5.1074
     5.4977   5.4977   5.7811   5.9170   5.9170   5.9237   5.9238   6.5205
     6.6380   6.6380   7.3010   7.3011   7.3416   7.3416   7.4086   7.4087
     8.5878   8.5878   8.9189   8.9189   9.3486   9.3486   9.4575   9.5851
     9.5851   9.9572   9.9572  10.6976  10.7511  10.7511  11.0212  11.0213
    11.2115  11.2115

          k = 0.2167 0.2167-0.4768 ( 15666 PWs)   bands (ev):

    -1.7376  -1.7376  -0.3798  -0.3797  -0.3797  -0.3796   0.9628   0.9628
     1.8481   1.8482   1.8482   1.8482   3.1585   3.1585   3.1614   3.1614
[...]
     8.2512   8.2512   8.2665   8.5933   8.8789   8.8789   9.2707   9.2707
     9.3857   9.4015

          k = 0.1233 0.3698-0.4520 ( 21244 PWs)   bands (ev):

    -2.2431  -2.2431  -1.8340  -1.8339  -0.6134  -0.6133  -0.2087  -0.2087
     0.5965   0.5965   0.9977   0.9977   1.7930   1.7930   2.1875   2.1875
     2.5838   2.5839   2.9733   2.9733   3.3743   3.3744   3.7633   3.7633
     4.1274   4.1274   4.5091   4.5092   4.6015   4.6015   4.9899   4.9899
     5.2219   5.2219   5.3489   5.3489   5.5871   5.5871   5.7300   5.7300
     6.1235   6.1235   7.2031   7.2031   7.6659   7.6659   8.0389   8.0390
     8.3852   8.3852   8.8038   8.8038   8.8195   8.8195   9.0592   9.0592
     9.4116   9.4116

          k = 0.1233-0.4520-0.4520 ( 21272 PWs)   bands (ev):

    -2.0570  -2.0570  -2.0570  -2.0570  -0.4293  -0.4293  -0.4293  -0.4293
     0.7790   0.7790   0.7790   0.7790   2.3678   2.3678   2.3678   2.3678
     2.3678   2.3678   2.3678   2.3678   3.9370   3.9370   3.9370   3.9370
     3.9370   3.9370   3.9370   3.9370   5.1415   5.1415   5.1415   5.1415
     5.1415   5.1415   5.1415   5.1415   5.3932   5.3932   5.3932   5.3933
     6.6536   6.6536   6.6536   6.6536   8.1837   8.1837   8.1837   8.1837
     8.2202   8.2202   8.2202   8.2202   9.3709   9.3709   9.3709   9.3709
     9.6047   9.6048

          k = 0.2055 0.2055 0.2055 ( 21224 PWs)   bands (ev):

    -2.8778  -1.6483  -1.6483  -1.6483  -0.4293  -0.4293  -0.4293   0.3765
     0.3765   0.3765   0.7798   1.5785   1.5785   1.5785   1.5785   1.5785
     1.5785   2.7688   2.7688   2.7688   3.5565   3.5565   3.5565   3.9050
     3.9050   3.9050   4.7524   4.7524   4.7524   5.0680   5.0680   5.0680
     5.0680   5.0680   5.0680   6.2495   6.2495   6.2495   6.6961   7.0085
     7.0085   7.0085   7.0085   7.0085   7.0085   8.0471   8.0471   8.0471
     8.1710   8.1710   8.1710   8.1710   8.1710   8.1710   9.2227   9.2227
     9.2227   9.2227

          k = 0.2055 0.2055 0.2876 ( 21255 PWs)   bands (ev):

    -2.7656  -1.9454  -1.5371  -1.5371  -0.7239  -0.7239  -0.3189   0.4862
     0.4862   0.4876   0.8867   1.2881   1.2881   1.6873   1.6873   2.0842
     2.0842   2.4819   2.4819   3.2494   3.2660   3.6621   4.0114   4.0114
     4.0528   4.0528   4.4224   4.4224   4.4720   4.7879   4.7879   5.1687
     5.1687   5.2470   5.2470   5.6111   5.9705   5.9705   6.3811   6.3811
     7.1172   7.1172   7.1870   7.4849   7.4849   7.5395   7.5395   7.8912
     7.8912   8.1453   8.1453   8.6570   8.6570   8.8916   8.9650   8.9650
     9.3418   9.3418

          k = 0.2055 0.2055 0.3698 ( 21251 PWs)   bands (ev):

    -2.6161  -2.2059  -1.3889  -1.3889  -0.9821  -0.9821  -0.1720   0.2315
     0.6323   0.6323   1.0334   1.0334   1.4305   1.8322   1.8322   2.2298
     2.2298   2.6143   2.6231   2.6231   3.7780   3.7950   3.7950   3.8006
     4.1530   4.1530   4.2452   4.5415   4.5415   4.5781   4.5782   4.9930
     5.2866   5.2866   5.7299   5.7299   5.7750   5.7750   5.7878   5.7878
     6.9244   6.9244   7.2591   7.2591   7.6459   7.6459   7.7105   7.9751
     7.9751   8.2649   8.2649   8.7551   8.7551   8.8488   9.1755   9.1755
     9.2171   9.2171

          k = 0.2055 0.2055-0.4520 ( 21240 PWs)   bands (ev):

    -2.4295  -2.4295  -1.2039  -1.2039  -1.2039  -1.2039   0.0116   0.0116
     0.8148   0.8148   0.8148   0.8148   2.0069   2.0069   2.0131   2.0131
     2.0131   2.0131   3.1940   3.1940   3.1940   3.1940   3.9562   3.9562
     4.3298   4.3298   4.3298   4.3298   4.4195   4.4195   5.1110   5.1111
     5.1111   5.1111   5.5481   5.5481   5.5481   5.5481   6.3349   6.3349
     6.3349   6.3349   7.4352   7.4352   7.4353   7.4353   8.2651   8.2651
     8.3241   8.3241   8.3241   8.3241   8.7504   8.7504   8.7504   8.7504
     9.6673   9.6674

          k = 0.2055 0.2876 0.2876 ( 21230 PWs)   bands (ev):

    -2.6535  -1.8339  -1.8339  -1.4259  -1.0190  -0.6133  -0.6133   0.1949
     0.5958   0.9959   0.9959   1.3971   1.3971   1.7949   1.7949   2.1926
     2.1926   2.1937   2.9828   2.9828   3.3566   3.3566   4.1176   4.1394
     4.1394   4.1548   4.1548   4.5268   4.5268   4.5437   4.8918   4.8919
     4.9646   4.9646   5.3341   5.3341   5.6948   5.7408   6.4854   6.4854
     6.8608   6.8608   7.2587   7.2587   7.5998   7.5998   7.6768   8.0272
     8.0272   8.2296   8.3774   8.3774   8.9773   8.9773   9.0730   9.0730
     9.2011   9.7876

          k = 0.2055 0.2876 0.3698 ( 21256 PWs)   bands (ev):

    -2.5041  -2.0942  -1.6854  -1.2778  -1.2778  -0.8714  -0.4660  -0.0618
     0.7418   1.1415   1.1426   1.5393   1.5411   1.5423   1.9408   2.3350
     2.3369   2.7221   2.7309   2.7324   3.4993   3.5099   3.5136   3.8909
     3.9011   4.2590   4.2723   4.6467   4.6575   4.6633   4.7205   4.7354
     5.0279   5.0430   5.1148   5.4780   5.4925   5.8736   6.2535   6.2677
     6.6259   6.6428   7.0127   7.3706   7.4139   7.7440   8.1106   8.1321
     8.1989   8.2561   8.5474   8.7068   8.8414   8.8961   9.0097   9.2148
     9.3344   9.4234

          k = 0.2055 0.2876-0.4520 ( 21234 PWs)   bands (ev):

    -2.3177  -2.3176  -1.5000  -1.5000  -1.0930  -1.0929  -0.2822  -0.2821
     0.9241   0.9242   1.3233   1.3233   1.7236   1.7236   2.1153   2.1153
     2.5169   2.5169   2.9072   2.9072   3.3011   3.3011   3.6775   3.6775
     4.0569   4.0570   4.4355   4.4355   4.5312   4.5312   4.8155   4.8155
     5.1814   5.1814   5.3068   5.3068   5.6879   5.6879   6.0527   6.0527
     6.8017   6.8017   6.8261   6.8261   7.8902   7.8902   7.9211   7.9211
     8.6340   8.6340   8.6654   8.6654   8.7521   8.7521   9.0990   9.0990
     9.3890   9.3890

          k = 0.2055 0.3698 0.3698 ( 21269 PWs)   bands (ev):

    -2.3549  -1.9454  -1.9454  -1.5371  -1.1299  -0.7238  -0.7238  -0.3189
     0.8877   1.2881   1.2881   1.6843   1.6843   1.6874   2.0823   2.0823
     2.8657   2.8657   2.8744   2.8744   3.2598   3.2598   3.2671   3.2671
     4.0417   4.0417   4.4001   4.4036   4.4036   4.7860   4.7860   4.8861
     4.8861   5.1464   5.2461   5.2461   5.6544   6.0104   6.0104   6.3964
     6.3964   6.7676   6.7676   6.7930   7.8606   7.9359   7.9359   8.2601
     8.2601   8.6343   8.6507   8.6507   8.7196   8.9760   8.9760   9.0717
     9.3591   9.3591

          k = 0.2055 0.3698-0.4520 ( 21244 PWs)   bands (ev):

    -2.1687  -2.1686  -1.7597  -1.7597  -0.9452  -0.9452  -0.5396  -0.5396
     1.0698   1.0699   1.4697   1.4698   1.8654   1.8654   2.2596   2.2596
     2.6558   2.6558   3.0450   3.0450   3.0534   3.0534   3.4436   3.4436
     3.8304   3.8304   4.2147   4.2147   4.5760   4.5760   4.9575   4.9575
     5.0384   5.0384   5.4238   5.4238   5.8060   5.8060   6.1853   6.1854
     6.1885   6.1885   7.3103   7.3103   7.3498   7.3498   8.4390   8.4390
     8.4892   8.4892   8.7767   8.7767   8.8035   8.8035   9.1489   9.1490
     9.2004   9.2004

          k = 0.2055-0.4520-0.4520 ( 21272 PWs)   bands (ev):

    -1.9826  -1.9826  -1.9826  -1.9826  -0.7607  -0.7607  -0.7607  -0.7607
     1.2518   1.2518   1.2518   1.2518   2.4398   2.4398   2.4398   2.4398
     2.4398   2.4398   2.4398   2.4398   3.6207   3.6207   3.6207   3.6207
     3.6207   3.6207   3.6207   3.6207   4.7507   4.7508   4.7508   4.7508
     5.5956   5.5956   5.5956   5.5956   5.5956   5.5956   5.5956   5.5956
     6.7360   6.7360   6.7360   6.7360   7.9049   7.9049   7.9049   7.9049
     8.9430   8.9430   8.9430   8.9430   8.9871   8.9871   8.9871   8.9871
     8.9871   8.9871

          k = 0.2876 0.2876 0.2876 ( 21239 PWs)   bands (ev):

    -2.5415  -1.7226  -1.7226  -1.7226  -0.9083  -0.9083  -0.9083  -0.0985
     1.1052   1.1052   1.1052   1.9034   1.9034   1.9034   1.9034   1.9034
     1.9034   2.6965   2.6965   2.6965   3.4636   3.4636   3.4636   4.2450
     4.2450   4.2450   4.2450   4.2450   4.2450   4.6231   4.6231   4.6231
     5.0794   5.0794   5.0794   5.4582   5.4582   5.4582   6.9704   6.9704
     6.9704   6.9704   6.9704   6.9704   7.7468   7.7468   7.7468   7.7468
     7.7468   7.7468   8.1653   8.9761   8.9761   8.9761   9.4067   9.4067
     9.4067   9.9045

          k = 0.2876 0.2876 0.3698 ( 21265 PWs)   bands (ev):

    -2.3922  -1.9826  -1.5742  -1.5742  -1.1669  -1.1669  -0.7607  -0.3557
     1.2506   1.2506   1.6481   1.6499   1.6499   2.0481   2.0481   2.4431
     2.4431   2.4449   2.4449   2.8298   3.2313   3.6062   3.6062   3.6166
     3.6166   3.9972   3.9972   4.3684   4.3851   4.3851   4.7453   4.7453
     4.8513   5.2117   5.2384   5.2384   5.9853   5.9853   6.3581   6.3581
     7.1129   7.1129   7.1327   7.1327   7.4870   7.4870   7.5009   7.5009
     8.2673   8.2673   8.5816   8.5816   8.6861   9.3323   9.3323   9.3364
     9.4002   9.4002

          k = 0.2876 0.2876-0.4520 ( 21266 PWs)   bands (ev):

    -2.2059  -2.2059  -1.3889  -1.3889  -1.3889  -1.3889  -0.5765  -0.5764
     1.4323   1.4323   1.4323   1.4323   2.2235   2.2235   2.2286   2.2286
     2.2287   2.2287   3.0148   3.0148   3.0148   3.0148   3.7841   3.7841
     3.7841   3.7841   3.7948   3.7948   4.5572   4.5572   4.5572   4.5572
     5.0039   5.0039   5.7740   5.7740   5.7740   5.7740   6.5442   6.5442
     6.5442   6.5442   7.2896   7.2896   7.2896   7.2896   8.0302   8.0302
     8.0302   8.0302   8.8191   8.8191   8.8191   8.8191   9.2380   9.2380
     9.4744   9.4744

          k = 0.2876 0.3698 0.3698 ( 21230 PWs)   bands (ev):

    -2.2431  -1.8340  -1.8340  -1.4259  -1.4259  -1.0190  -1.0190  -0.6133
     1.3960   1.7930   1.7930   1.7949   1.7949   2.1906   2.1906   2.1926
     2.5870   2.5870   2.9733   2.9733   2.9817   2.9817   3.3669   3.3669
     3.7485   3.7586   3.7586   4.1385   4.1385   4.1437   4.1437   4.5218
     5.3558   5.3558   5.7384   5.7384   5.7406   6.4988   6.4988   6.5111
     6.8776   6.8776   6.8863   6.8863   7.6321   7.6321   7.6551   7.6551
     8.0018   8.0215   8.0215   8.7550   8.7550   8.7917   9.1538   9.1538
     9.2056   9.4431

          k = 0.2876 0.3698-0.4520 ( 21242 PWs)   bands (ev):

    -2.0570  -2.0570  -1.6483  -1.6483  -1.2408  -1.2408  -0.8345  -0.8345
     1.5774   1.5774   1.9739   1.9739   1.9758   1.9758   2.3678   2.3678
     2.7636   2.7636   2.7667   2.7667   3.1524   3.1524   3.1579   3.1579
     3.5493   3.5493   3.9261   3.9261   3.9350   3.9350   4.3142   4.3142
     5.5278   5.5278   5.9111   5.9111   6.2932   6.2932   6.2975   6.2975
     6.6750   6.6750   7.0684   7.0684   7.4274   7.4274   7.8099   7.8099
     8.1811   8.1811   8.2088   8.2088   8.5732   8.5732   8.9399   8.9399
     9.6079   9.6079

          k = 0.2876-0.4520-0.4520 ( 21252 PWs)   bands (ev):

    -1.8711  -1.8711  -1.8711  -1.8711  -1.0560  -1.0560  -1.0560  -1.0560
     1.7586   1.7587   1.7587   1.7587   2.5478   2.5478   2.5478   2.5478
     2.5478   2.5478   2.5478   2.5478   3.3363   3.3363   3.3363   3.3363
     3.3363   3.3363   3.3363   3.3363   4.1030   4.1030   4.1030   4.1030
     6.0862   6.0862   6.0862   6.0862   6.0862   6.0862   6.0862   6.0862
     6.8460   6.8460   6.8460   6.8460   7.6239   7.6240   7.6240   7.6240
     8.3609   8.3609   8.3609   8.3609   8.3609   8.3609   8.3609   8.3609
     9.7792   9.7793

          k = 0.3698 0.3698 0.3698 ( 21260 PWs)   bands (ev):

    -2.0942  -1.6854  -1.6854  -1.6854  -1.2778  -1.2778  -1.2778  -0.8714
     1.9377   1.9377   1.9377   2.3349   2.3349   2.3349   2.3349   2.3349
     2.3349   2.7307   2.7307   2.7307   3.1165   3.1165   3.1165   3.5095
     3.5095   3.5095   3.5095   3.5095   3.5095   3.8994   3.8994   3.8994
     5.8777   5.8777   5.8777   6.2642   6.2642   6.2642   7.0204   7.0204
     7.0204   7.0204   7.0204   7.0204   7.4089   7.4089   7.4089   7.4089
     7.4089   7.4089   8.1532   8.1532   8.1532   8.5457   8.5457   8.5457
     9.7237  10.3211

          k = 0.3698 0.3698-0.4520 ( 21228 PWs)   bands (ev):

    -1.9083  -1.9083  -1.5000  -1.5000  -1.5000  -1.5000  -1.0929  -1.0929
     2.1184   2.1184   2.1184   2.1184   2.5118   2.5118   2.5150   2.5150
     2.5150   2.5150   2.9071   2.9071   2.9071   2.9071   3.2954   3.2954
     3.2954   3.2954   3.3005   3.3005   3.6873   3.6873   3.6873   3.6873
     6.0529   6.0529   6.4340   6.4340   6.4340   6.4340   6.8218   6.8218
     6.8218   6.8218   7.1973   7.1973   7.1974   7.1974   7.5729   7.5729
     7.5729   7.5729   7.9627   7.9627   7.9627   7.9627   8.3332   8.3332
    10.2727  10.2727

          k = 0.3698-0.4520-0.4520 ( 21224 PWs)   bands (ev):

    -1.7226  -1.7226  -1.7226  -1.7225  -1.3149  -1.3148  -1.3148  -1.3148
     2.2988   2.2989   2.2989   2.2989   2.6917   2.6917   2.6917   2.6917
     2.6917   2.6917   2.6917   2.6917   3.0862   3.0862   3.0862   3.0862
     3.0862   3.0862   3.0862   3.0862   3.4738   3.4738   3.4738   3.4738
     6.6103   6.6103   6.6103   6.6103   6.6103   6.6103   6.6103   6.6103
     6.9889   6.9889   6.9889   6.9889   7.3776   7.3776   7.3776   7.3776
     7.7509   7.7509   7.7509   7.7509   7.7509   7.7509   7.7509   7.7509
    10.6631  10.6631

          k =-0.4520-0.4520-0.4520 ( 21368 PWs)   bands (ev):

    -1.5371  -1.5371  -1.5371  -1.5371  -1.5371  -1.5371  -1.5371  -1.5371
     2.8712   2.8712   2.8712   2.8712   2.8712   2.8712   2.8712   2.8712
     2.8712   2.8712   2.8712   2.8712   2.8712   2.8712   2.8712   2.8712
     2.8712   2.8712   2.8712   2.8712   2.8712   2.8712   2.8712   2.8712
     7.1660   7.1660   7.1660   7.1660   7.1660   7.1660   7.1660   7.1660
     7.1660   7.1660   7.1660   7.1660   7.1660   7.1660   7.1660   7.1660
     7.1660   7.1660   7.1660   7.1660   7.1660   7.1660   7.1660   7.1660
    11.3662  11.3662

     the Fermi energy is     7.9285 ev

!    total energy              =   -1264.08749654 Ry
     Harris-Foulkes estimate   =   -1264.08749655 Ry
     estimated scf accuracy    <          7.4E-09 Ry

     total all-electron energy =    -15540.656519 Ry

     The total energy is the sum of the following terms:

     one-electron contribution =     101.33542190 Ry
     hartree contribution      =       0.19688077 Ry
     xc contribution           =     -82.93439356 Ry
     ewald contribution        =    -173.00046479 Ry
     one-center paw contrib.   =   -1109.68219752 Ry
     smearing contrib. (-TS)   =      -0.00274333 Ry

     convergence has been achieved in  15 iterations

     Forces acting on atoms (cartesian axes, Ry/au):

     atom    1 type  1   force =     0.00000000    0.00000000    0.00000000
     atom    2 type  1   force =    -0.00000139   -0.00000139   -0.00000000
     atom    3 type  1   force =    -0.00000139    0.00000000   -0.00000139
     atom    4 type  1   force =    -0.00000000   -0.00000139   -0.00000139
     atom    5 type  1   force =     0.00000000    0.00000000    0.00000000
     atom    6 type  1   force =    -0.00000120   -0.00000120    0.00000000
     atom    7 type  1   force =    -0.00000139   -0.00000000    0.00000139
     atom    8 type  1   force =    -0.00000000   -0.00000139    0.00000139
     atom    9 type  1   force =     0.00000000    0.00000000    0.00000000
     atom   10 type  1   force =    -0.00000139    0.00000139    0.00000000
     atom   11 type  1   force =    -0.00000120    0.00000000   -0.00000120
     atom   12 type  1   force =    -0.00000000    0.00000139   -0.00000139
     atom   13 type  1   force =     0.00000000    0.00000000    0.00000000
     atom   14 type  1   force =    -0.00000120    0.00000120   -0.00000000
     atom   15 type  1   force =    -0.00000120    0.00000000    0.00000120
     atom   16 type  1   force =     0.00000000    0.00000139    0.00000139
     atom   17 type  1   force =     0.00000000    0.00000000   -0.00000000
     atom   18 type  1   force =     0.00000139   -0.00000139    0.00000000
     atom   19 type  1   force =     0.00000139   -0.00000000   -0.00000139
     atom   20 type  1   force =    -0.00000000   -0.00000120   -0.00000120
     atom   21 type  1   force =     0.00000000   -0.00000000    0.00000000
     atom   22 type  1   force =     0.00000120   -0.00000120    0.00000000
     atom   23 type  1   force =     0.00000139    0.00000000    0.00000139
     atom   24 type  1   force =    -0.00000000   -0.00000120    0.00000120
     atom   25 type  1   force =     0.00000000    0.00000000    0.00000000
     atom   26 type  1   force =     0.00000139    0.00000139   -0.00000000
     atom   27 type  1   force =     0.00000120    0.00000000   -0.00000120
     atom   28 type  1   force =    -0.00000000    0.00000120   -0.00000120
     atom   29 type  1   force =     0.00000000    0.00000000    0.00000000
     atom   30 type  1   force =     0.00000120    0.00000120    0.00000000
     atom   31 type  1   force =     0.00000120    0.00000000    0.00000120
     atom   32 type  1   force =    -0.00000000    0.00000120    0.00000120

     Total force =     0.000009     Total SCF correction =     0.000067
     SCF correction compared to forces is large: reduce conv_thr to get better values


     Computing stress (Cartesian axis) and pressure

          total   stress  (Ry/bohr**3)                   (kbar)     P=    0.07
   0.00000047   0.00000000   0.00000000          0.07      0.00      0.00
   0.00000000   0.00000047   0.00000000          0.00      0.07      0.00
   0.00000000   0.00000000   0.00000047          0.00      0.00      0.07


     Writing output data file awldOjhKxLyIRDLX.save/
 
     init_run     :     11.28s CPU     11.60s WALL (       2 calls)
     electrons    :    529.09s CPU    541.39s WALL (       7 calls)
     update_pot   :      0.97s CPU      0.98s WALL (       5 calls)
     forces       :      7.00s CPU      7.33s WALL (       7 calls)
     stress       :     29.40s CPU     29.57s WALL (       7 calls)

     Called by init_run:
     wfcinit      :     10.71s CPU     11.00s WALL (       2 calls)
     potinit      :      0.19s CPU      0.19s WALL (       2 calls)
     hinit0       :      0.21s CPU      0.23s WALL (       2 calls)

     Called by electrons:
     c_bands      :    464.59s CPU    474.82s WALL (      61 calls)
     sum_band     :     60.11s CPU     61.90s WALL (      61 calls)
     v_of_rho     :      0.58s CPU      0.63s WALL (      65 calls)
     newd         :      0.39s CPU      0.55s WALL (      65 calls)
     PAW_pot      :      3.99s CPU      4.01s WALL (      70 calls)
     mix_rho      :      0.14s CPU      0.15s WALL (      61 calls)

     Called by c_bands:
     init_us_2    :      8.54s CPU      8.67s WALL (    8008 calls)
     cegterg      :    439.12s CPU    448.60s WALL (    3416 calls)

     Called by sum_band:
     sum_band:bec :      0.38s CPU      0.38s WALL (    3696 calls)
     addusdens    :      0.30s CPU      0.44s WALL (      61 calls)

     Called by *egterg:
     h_psi        :    294.52s CPU    302.00s WALL (   13400 calls)
     s_psi        :     23.17s CPU     23.29s WALL (   13400 calls)
     g_psi        :      1.21s CPU      1.22s WALL (    9872 calls)
     cdiaghg      :     70.09s CPU     70.36s WALL (   12840 calls)

     Called by h_psi:
     h_psi:pot    :    292.61s CPU    300.07s WALL (   13400 calls)
     h_psi:calbec :     25.93s CPU     27.96s WALL (   13400 calls)
     vloc_psi     :    242.27s CPU    247.59s WALL (   13400 calls)
     add_vuspsi   :     24.32s CPU     24.45s WALL (   13400 calls)

     General routines
     calbec       :     47.04s CPU     50.18s WALL (   19056 calls)
     fft          :      0.63s CPU      0.72s WALL (     905 calls)
     ffts         :      0.03s CPU      0.04s WALL (      61 calls)
     fftw         :    266.66s CPU    272.37s WALL ( 1341932 calls)
 
     Parallel routines
     fft_scatt_xy :     40.12s CPU     41.02s WALL ( 1342898 calls)
     fft_scatt_yz :    156.54s CPU    160.07s WALL ( 1342898 calls)
 
     PWSCF        :  9m40.61s CPU     9m57.72s WALL

 
   This run was terminated on:   3: 9:54  25Mar2020            

=------------------------------------------------------------------------------=
   JOB DONE.
=------------------------------------------------------------------------------=
