--------------------------------------------------------------------------
WARNING: No preset parameters were found for the device that Open MPI
detected:

  Local host:            bear-pg0206u20b
  Device name:           mlx5_0
  Device vendor ID:      0x02c9
  Device vendor part ID: 4123

Default device parameters will be used, which may result in lower
performance.  You can edit any of the files specified by the
btl_openib_device_param_files MCA parameter to set values for your
device.

NOTE: You can turn off this warning by setting the MCA parameter
      btl_openib_warn_no_device_params_found to 0.
--------------------------------------------------------------------------
--------------------------------------------------------------------------
WARNING: There was an error initializing an OpenFabrics device.

  Local host:   bear-pg0206u20b
  Local device: mlx5_0
--------------------------------------------------------------------------

     Program PWSCF v.6.3 starts on 16Jun2020 at  4:19: 9 

     This program is part of the open-source Quantum ESPRESSO suite
     for quantum simulation of materials; please cite
         "P. Giannozzi et al., J. Phys.:Condens. Matter 21 395502 (2009);
         "P. Giannozzi et al., J. Phys.:Condens. Matter 29 465901 (2017);
          URL http://www.quantum-espresso.org", 
     in publications or presentations arising from this work. More details at
     http://www.quantum-espresso.org/quote

     Parallel version (MPI & OpenMP), running on      20 processor cores
     Number of MPI processes:                20
     Threads/MPI process:                     1

     MPI processes distributed on     1 nodes
     R & G space division:  proc/nbgrp/npool/nimage =      20
     Reading input from wd/eos/eos_013.in
Warning: card &IONS ignored
Warning: card ION_DYNAMICS = 'BFGS', ignored
Warning: card / ignored
Warning: card &CELL ignored
Warning: card CELL_DYNAMICS = 'BFGS', ignored
Warning: card CELL_FACTOR = 2.0, ignored
Warning: card PRESS = 0.0, ignored
Warning: card / ignored

     Current dimensions of program PWSCF are:
     Max number of different atomic species (ntypx) = 10
     Max number of k-points (npk) =  40000
     Max angular momentum in pseudopotentials (lmaxx) =  3
     Message from routine read_upf::
     Pseudo file /rds/homes/b/bxp912/pp/Cr.pbe-spn-kjpaw_psl.1.0.0.UPF has been successfully fixed on the fly.
To avoid this message in the future you can permanently fix 
 your pseudo files following instructions given in: 
https://gitlab.com/QEF/q-e/blob/master/upftools/how_to_fix_upf.md
               file Cr.pbe-spn-kjpaw_psl.1.0.0.UPF: wavefunction(s)  3S 3P 3D renormalized
     Message from routine read_upf::
     Pseudo file /rds/homes/b/bxp912/pp/Cr.pbe-spn-kjpaw_psl.1.0.0.UPF has been successfully fixed on the fly.
To avoid this message in the future you can permanently fix 
 your pseudo files following instructions given in: 
https://gitlab.com/QEF/q-e/blob/master/upftools/how_to_fix_upf.md
               file Cr.pbe-spn-kjpaw_psl.1.0.0.UPF: wavefunction(s)  3S 3P 3D renormalized

     Subspace diagonalization in iterative solution of the eigenvalue problem:
     a serial algorithm will be used

     Found symmetry operation: I + (  0.0000  0.0000  0.5000)
     This is a supercell, fractional translations are disabled
 
     Parallelization info
     --------------------
     sticks:   dense  smooth     PW     G-vecs:    dense   smooth      PW
     Min         202     135     37                 9740     5247     773
     Max         203     136     38                 9745     5250     778
     Sum        4049    2701    749               194831   104943   15515
 


     bravais-lattice index     =            0
     lattice parameter (alat)  =      10.7442  a.u.
     unit-cell volume          =    1294.1936 (a.u.)^3
     number of atoms/cell      =           16
     number of atomic types    =            2
     number of electrons       =       224.00
     number of Kohn-Sham states=          134
     kinetic-energy cutoff     =      71.0000  Ry
     charge density cutoff     =     430.0000  Ry
     convergence threshold     =      1.0E-06
     mixing beta               =       0.1000
     number of iterations used =           10  plain     mixing
     Exchange-correlation      = SLA PW PBX PBC ( 1  4  3  4 0 0)

     celldm(1)=  10.744168  celldm(2)=   0.000000  celldm(3)=   0.000000
     celldm(4)=   0.000000  celldm(5)=   0.000000  celldm(6)=   0.000000

     crystal axes: (cart. coord. in units of alat)
               a(1) = (   1.014286   0.000000   0.000000 )  
               a(2) = (   0.000000   1.014286   0.000000 )  
               a(3) = (   0.000000   0.000000   1.014286 )  

     reciprocal axes: (cart. coord. in units 2 pi/alat)
               b(1) = (  0.985915  0.000000  0.000000 )  
               b(2) = (  0.000000  0.985915  0.000000 )  
               b(3) = (  0.000000  0.000000  0.985915 )  


     PseudoPot. # 1 for Cr read from file:
     /rds/homes/b/bxp912/pp/Cr.pbe-spn-kjpaw_psl.1.0.0.UPF
     MD5 check sum: cb1c17117da000fe5e03c4f1a6841d9c
     Pseudo is Projector augmented-wave + core cor, Zval = 14.0
     Generated using "atomic" code by A. Dal Corso v.5.1
     Shape of augmentation charge: PSQ
     Using radial grid of 1183 points,  6 beta functions with: 
                l(1) =   0
                l(2) =   0
                l(3) =   1
                l(4) =   1
                l(5) =   2
                l(6) =   2
     Q(r) pseudized with 0 coefficients 


     PseudoPot. # 2 for Cr read from file:
     /rds/homes/b/bxp912/pp/Cr.pbe-spn-kjpaw_psl.1.0.0.UPF
     MD5 check sum: cb1c17117da000fe5e03c4f1a6841d9c
     Pseudo is Projector augmented-wave + core cor, Zval = 14.0
     Generated using "atomic" code by A. Dal Corso v.5.1
     Shape of augmentation charge: PSQ
     Using radial grid of 1183 points,  6 beta functions with: 
                l(1) =   0
                l(2) =   0
                l(3) =   1
                l(4) =   1
                l(5) =   2
                l(6) =   2
     Q(r) pseudized with 0 coefficients 


     atomic species   valence    mass     pseudopotential
        Cr1           14.00    55.84500     Cr( 1.00)
        Cr2           14.00    55.84500     Cr( 1.00)

     Starting magnetic structure 
     atomic species   magnetization
        Cr1          0.300
        Cr2         -0.300

     48 Sym. Ops., with inversion, found



   Cartesian axes

     site n.     atom                  positions (alat units)
         1           Cr1 tau(   1) = (   0.0000000   0.0000000   0.0000000  )
         2           Cr2 tau(   2) = (   0.2535715   0.2535715   0.2535712  )
         3           Cr1 tau(   3) = (   0.0000000   0.0000000   0.5071424  )
         4           Cr2 tau(   4) = (   0.2535715   0.2535715   0.7607145  )
         5           Cr1 tau(   5) = (   0.0000000   0.5071431   0.0000000  )
         6           Cr2 tau(   6) = (   0.2535715   0.7607145   0.2535712  )
         7           Cr1 tau(   7) = (   0.0000000   0.5071431   0.5071424  )
         8           Cr2 tau(   8) = (   0.2535715   0.7607145   0.7607145  )
         9           Cr1 tau(   9) = (   0.5071431   0.0000000   0.0000000  )
        10           Cr2 tau(  10) = (   0.7607145   0.2535715   0.2535712  )
        11           Cr1 tau(  11) = (   0.5071431   0.0000000   0.5071424  )
        12           Cr2 tau(  12) = (   0.7607145   0.2535715   0.7607145  )
        13           Cr1 tau(  13) = (   0.5071431   0.5071431   0.0000000  )
        14           Cr2 tau(  14) = (   0.7607145   0.7607145   0.2535712  )
        15           Cr1 tau(  15) = (   0.5071431   0.5071431   0.5071424  )
        16           Cr2 tau(  16) = (   0.7607145   0.7607145   0.7607145  )

     number of k points=    35  Marzari-Vanderbilt smearing, width (Ry)=  0.0400
                       cart. coord. in units 2pi/alat
        k(    1) = (   0.0547731   0.0547731   0.0547731), wk =   0.0109739
        k(    2) = (   0.0547731   0.0547731   0.1643192), wk =   0.0329218
        k(    3) = (   0.0547731   0.0547731   0.2738654), wk =   0.0329218
        k(    4) = (   0.0547731   0.0547731   0.3834116), wk =   0.0329218
        k(    5) = (   0.0547731   0.0547731  -0.4929577), wk =   0.0164609
        k(    6) = (   0.0547731   0.1643192   0.1643192), wk =   0.0329218
        k(    7) = (   0.0547731   0.1643192   0.2738654), wk =   0.0658436
        k(    8) = (   0.0547731   0.1643192   0.3834116), wk =   0.0658436
        k(    9) = (   0.0547731   0.1643192  -0.4929577), wk =   0.0329218
        k(   10) = (   0.0547731   0.2738654   0.2738654), wk =   0.0329218
        k(   11) = (   0.0547731   0.2738654   0.3834116), wk =   0.0658436
        k(   12) = (   0.0547731   0.2738654  -0.4929577), wk =   0.0329218
        k(   13) = (   0.0547731   0.3834116   0.3834116), wk =   0.0329218
        k(   14) = (   0.0547731   0.3834116  -0.4929577), wk =   0.0329218
        k(   15) = (   0.0547731  -0.4929577  -0.4929577), wk =   0.0082305
        k(   16) = (   0.1643192   0.1643192   0.1643192), wk =   0.0109739
        k(   17) = (   0.1643192   0.1643192   0.2738654), wk =   0.0329218
        k(   18) = (   0.1643192   0.1643192   0.3834116), wk =   0.0329218
        k(   19) = (   0.1643192   0.1643192  -0.4929577), wk =   0.0164609
        k(   20) = (   0.1643192   0.2738654   0.2738654), wk =   0.0329218
        k(   21) = (   0.1643192   0.2738654   0.3834116), wk =   0.0658436
        k(   22) = (   0.1643192   0.2738654  -0.4929577), wk =   0.0329218
        k(   23) = (   0.1643192   0.3834116   0.3834116), wk =   0.0329218
        k(   24) = (   0.1643192   0.3834116  -0.4929577), wk =   0.0329218
        k(   25) = (   0.1643192  -0.4929577  -0.4929577), wk =   0.0082305
        k(   26) = (   0.2738654   0.2738654   0.2738654), wk =   0.0109739
        k(   27) = (   0.2738654   0.2738654   0.3834116), wk =   0.0329218
        k(   28) = (   0.2738654   0.2738654  -0.4929577), wk =   0.0164609
        k(   29) = (   0.2738654   0.3834116   0.3834116), wk =   0.0329218
        k(   30) = (   0.2738654   0.3834116  -0.4929577), wk =   0.0329218
        k(   31) = (   0.2738654  -0.4929577  -0.4929577), wk =   0.0082305
        k(   32) = (   0.3834116   0.3834116   0.3834116), wk =   0.0109739
        k(   33) = (   0.3834116   0.3834116  -0.4929577), wk =   0.0164609
        k(   34) = (   0.3834116  -0.4929577  -0.4929577), wk =   0.0082305
        k(   35) = (  -0.4929577  -0.4929577  -0.4929577), wk =   0.0013717

     Dense  grid:   194831 G-vectors     FFT dimensions: (  72,  72,  72)

     Smooth grid:   104943 G-vectors     FFT dimensions: (  60,  60,  60)

     Estimated max dynamical RAM per process >     148.82 MB

     Estimated total dynamical RAM >       2.91 GB
     Generating pointlists ...
     new r_m :   0.1812 (alat units)  1.9465 (a.u.) for type    1
     new r_m :   0.1812 (alat units)  1.9465 (a.u.) for type    2

     Check: negative/imaginary core charge=   -0.000009    0.000000

     Initial potential from superposition of free atoms

     starting charge  223.98764, renormalised to  224.00000
     Starting wfcs are  160 randomized atomic wfcs
     Checking if some PAW data can be deallocated... 

     total cpu time spent up to now is        9.3 secs

     Self-consistent Calculation

     iteration #  1     ecut=    71.00 Ry     beta= 0.10
     Davidson diagonalization with overlap
     ethr =  1.00E-02,  avg # of iterations =  3.3

     Threshold (ethr) on eigenvalues was too large:
     Diagonalizing with lowered threshold

     Davidson diagonalization with overlap
     ethr =  7.12E-04,  avg # of iterations =  3.6

     total cpu time spent up to now is       57.6 secs

     total energy              =   -3970.66749527 Ry
     Harris-Foulkes estimate   =   -3970.57473526 Ry
     estimated scf accuracy    <       1.67539857 Ry

     total magnetization       =    -0.00 Bohr mag/cell
     absolute magnetization    =    40.24 Bohr mag/cell

     iteration #  2     ecut=    71.00 Ry     beta= 0.10
     Davidson diagonalization with overlap
     ethr =  7.48E-04,  avg # of iterations =  1.1

     total cpu time spent up to now is       73.5 secs

     total energy              =   -3971.09137179 Ry
     Harris-Foulkes estimate   =   -3970.67734394 Ry
     estimated scf accuracy    <       1.26505593 Ry

     total magnetization       =     0.00 Bohr mag/cell
     absolute magnetization    =    40.33 Bohr mag/cell

     iteration #  3     ecut=    71.00 Ry     beta= 0.10
     Davidson diagonalization with overlap
     ethr =  5.65E-04,  avg # of iterations =  2.9

     total cpu time spent up to now is       98.5 secs

     total energy              =   -3971.30500651 Ry
     Harris-Foulkes estimate   =   -3971.27178616 Ry
     estimated scf accuracy    <       0.29401571 Ry

     total magnetization       =    -0.00 Bohr mag/cell
     absolute magnetization    =    39.36 Bohr mag/cell

     iteration #  4     ecut=    71.00 Ry     beta= 0.10
     Davidson diagonalization with overlap
     ethr =  1.31E-04,  avg # of iterations =  2.3

     total cpu time spent up to now is      117.6 secs

     total energy              =   -3971.32265833 Ry
     Harris-Foulkes estimate   =   -3971.31410616 Ry
     estimated scf accuracy    <       0.41970633 Ry

     total magnetization       =    -0.00 Bohr mag/cell
     absolute magnetization    =    39.71 Bohr mag/cell

     iteration #  5     ecut=    71.00 Ry     beta= 0.10
     Davidson diagonalization with overlap
     ethr =  1.31E-04,  avg # of iterations =  5.0

     total cpu time spent up to now is      149.7 secs

     total energy              =   -3971.44010712 Ry
     Harris-Foulkes estimate   =   -3971.43556203 Ry
     estimated scf accuracy    <       0.03471246 Ry

     total magnetization       =     0.00 Bohr mag/cell
     absolute magnetization    =    33.28 Bohr mag/cell

     iteration #  6     ecut=    71.00 Ry     beta= 0.10
     Davidson diagonalization with overlap
     ethr =  1.55E-05,  avg # of iterations =  3.9

     total cpu time spent up to now is      173.8 secs

     total energy              =   -3971.43683003 Ry
     Harris-Foulkes estimate   =   -3971.44164522 Ry
     estimated scf accuracy    <       0.03149717 Ry

     total magnetization       =     0.00 Bohr mag/cell
     absolute magnetization    =    33.05 Bohr mag/cell

     iteration #  7     ecut=    71.00 Ry     beta= 0.10
     Davidson diagonalization with overlap
     ethr =  1.41E-05,  avg # of iterations =  1.2

     total cpu time spent up to now is      190.1 secs

     total energy              =   -3971.46037669 Ry
     Harris-Foulkes estimate   =   -3971.43721758 Ry
     estimated scf accuracy    <       0.03782729 Ry

     total magnetization       =     0.00 Bohr mag/cell
     absolute magnetization    =    33.31 Bohr mag/cell

     iteration #  8     ecut=    71.00 Ry     beta= 0.10
     Davidson diagonalization with overlap
     ethr =  1.41E-05,  avg # of iterations =  6.7

     total cpu time spent up to now is      232.6 secs

     total energy              =   -3971.50098759 Ry
     Harris-Foulkes estimate   =   -3971.49448763 Ry
     estimated scf accuracy    <       0.02040009 Ry

     total magnetization       =     0.00 Bohr mag/cell
     absolute magnetization    =    28.74 Bohr mag/cell

     iteration #  9     ecut=    71.00 Ry     beta= 0.10
     Davidson diagonalization with overlap
     ethr =  9.11E-06,  avg # of iterations =  3.0

     total cpu time spent up to now is      253.9 secs

     total energy              =   -3971.50906528 Ry
     Harris-Foulkes estimate   =   -3971.50270281 Ry
     estimated scf accuracy    <       0.00811820 Ry

     total magnetization       =     0.00 Bohr mag/cell
     absolute magnetization    =    28.04 Bohr mag/cell

     iteration # 10     ecut=    71.00 Ry     beta= 0.10
     Davidson diagonalization with overlap
     ethr =  3.62E-06,  avg # of iterations =  5.2

     total cpu time spent up to now is      290.1 secs

     total energy              =   -3971.50696093 Ry
     Harris-Foulkes estimate   =   -3971.51532514 Ry
     estimated scf accuracy    <       0.00676733 Ry

     total magnetization       =    -0.00 Bohr mag/cell
     absolute magnetization    =    26.04 Bohr mag/cell

     iteration # 11     ecut=    71.00 Ry     beta= 0.10
     Davidson diagonalization with overlap
     ethr =  3.02E-06,  avg # of iterations =  3.9

     total cpu time spent up to now is      315.5 secs

     total energy              =   -3971.51140626 Ry
     Harris-Foulkes estimate   =   -3971.50851351 Ry
     estimated scf accuracy    <       0.00963043 Ry

     total magnetization       =    -0.00 Bohr mag/cell
     absolute magnetization    =    27.04 Bohr mag/cell

     iteration # 12     ecut=    71.00 Ry     beta= 0.10
     Davidson diagonalization with overlap
     ethr =  3.02E-06,  avg # of iterations =  5.2

     total cpu time spent up to now is      355.0 secs

     total energy              =   -3971.52777407 Ry
     Harris-Foulkes estimate   =   -3971.52812444 Ry
     estimated scf accuracy    <       0.00451056 Ry

     total magnetization       =    -0.00 Bohr mag/cell
     absolute magnetization    =    23.60 Bohr mag/cell

     iteration # 13     ecut=    71.00 Ry     beta= 0.10
     Davidson diagonalization with overlap
     ethr =  2.01E-06,  avg # of iterations =  1.1

     total cpu time spent up to now is      371.0 secs

     total energy              =   -3971.52969850 Ry
     Harris-Foulkes estimate   =   -3971.52784049 Ry
     estimated scf accuracy    <       0.00327693 Ry

     total magnetization       =    -0.00 Bohr mag/cell
     absolute magnetization    =    23.66 Bohr mag/cell

     iteration # 14     ecut=    71.00 Ry     beta= 0.10
     Davidson diagonalization with overlap
     ethr =  1.46E-06,  avg # of iterations =  4.4

     total cpu time spent up to now is      401.7 secs

     total energy              =   -3971.53269593 Ry
     Harris-Foulkes estimate   =   -3971.53147305 Ry
     estimated scf accuracy    <       0.00150004 Ry

     total magnetization       =    -0.00 Bohr mag/cell
     absolute magnetization    =    22.58 Bohr mag/cell

     iteration # 15     ecut=    71.00 Ry     beta= 0.10
     Davidson diagonalization with overlap
     ethr =  6.70E-07,  avg # of iterations =  4.7

     total cpu time spent up to now is      433.8 secs

     total energy              =   -3971.53459607 Ry
     Harris-Foulkes estimate   =   -3971.53404024 Ry
     estimated scf accuracy    <       0.00113861 Ry

     total magnetization       =    -0.00 Bohr mag/cell
     absolute magnetization    =    21.57 Bohr mag/cell

     iteration # 16     ecut=    71.00 Ry     beta= 0.10
     Davidson diagonalization with overlap
     ethr =  5.08E-07,  avg # of iterations =  4.7

     total cpu time spent up to now is      466.8 secs

     total energy              =   -3971.53574793 Ry
     Harris-Foulkes estimate   =   -3971.53577186 Ry
     estimated scf accuracy    <       0.00054052 Ry

     total magnetization       =    -0.00 Bohr mag/cell
     absolute magnetization    =    20.65 Bohr mag/cell

     iteration # 17     ecut=    71.00 Ry     beta= 0.10
     Davidson diagonalization with overlap
     ethr =  2.41E-07,  avg # of iterations =  2.3

     total cpu time spent up to now is      486.0 secs

     total energy              =   -3971.53246413 Ry
     Harris-Foulkes estimate   =   -3971.53578083 Ry
     estimated scf accuracy    <       0.00054609 Ry

     total magnetization       =     0.00 Bohr mag/cell
     absolute magnetization    =    20.68 Bohr mag/cell

     iteration # 18     ecut=    71.00 Ry     beta= 0.10
     Davidson diagonalization with overlap
     ethr =  2.41E-07,  avg # of iterations =  5.9

     total cpu time spent up to now is      530.1 secs

     total energy              =   -3971.53787698 Ry
     Harris-Foulkes estimate   =   -3971.53799075 Ry
     estimated scf accuracy    <       0.00012369 Ry

     total magnetization       =    -0.00 Bohr mag/cell
     absolute magnetization    =    18.59 Bohr mag/cell

     iteration # 19     ecut=    71.00 Ry     beta= 0.10
     Davidson diagonalization with overlap
     ethr =  5.52E-08,  avg # of iterations =  5.3

     total cpu time spent up to now is      566.7 secs

     total energy              =   -3971.53585944 Ry
     Harris-Foulkes estimate   =   -3971.53829285 Ry
     estimated scf accuracy    <       0.00017118 Ry

     total magnetization       =    -0.00 Bohr mag/cell
     absolute magnetization    =    18.01 Bohr mag/cell

     iteration # 20     ecut=    71.00 Ry     beta= 0.10
     Davidson diagonalization with overlap
     ethr =  5.52E-08,  avg # of iterations =  6.2

     total cpu time spent up to now is      621.1 secs

     total energy              =   -3971.53823666 Ry
     Harris-Foulkes estimate   =   -3971.53845304 Ry
     estimated scf accuracy    <       0.00006881 Ry

     total magnetization       =    -0.00 Bohr mag/cell
     absolute magnetization    =    16.57 Bohr mag/cell

     iteration # 21     ecut=    71.00 Ry     beta= 0.10
     Davidson diagonalization with overlap
     ethr =  3.07E-08,  avg # of iterations =  5.1

     total cpu time spent up to now is      656.4 secs

     total energy              =   -3971.53799833 Ry
     Harris-Foulkes estimate   =   -3971.53841821 Ry
     estimated scf accuracy    <       0.00011657 Ry

     total magnetization       =    -0.00 Bohr mag/cell
     absolute magnetization    =    16.19 Bohr mag/cell

     iteration # 22     ecut=    71.00 Ry     beta= 0.10
     Davidson diagonalization with overlap
     ethr =  3.07E-08,  avg # of iterations =  5.6

     total cpu time spent up to now is      696.0 secs

     total energy              =   -3971.53839021 Ry
     Harris-Foulkes estimate   =   -3971.53849387 Ry
     estimated scf accuracy    <       0.00001536 Ry

     total magnetization       =    -0.00 Bohr mag/cell
     absolute magnetization    =    16.83 Bohr mag/cell

     iteration # 23     ecut=    71.00 Ry     beta= 0.10
     Davidson diagonalization with overlap
     ethr =  6.86E-09,  avg # of iterations =  5.5

     total cpu time spent up to now is      735.9 secs

     total energy              =   -3971.53836111 Ry
     Harris-Foulkes estimate   =   -3971.53849778 Ry
     estimated scf accuracy    <       0.00000213 Ry

     total magnetization       =    -0.00 Bohr mag/cell
     absolute magnetization    =    17.13 Bohr mag/cell

     iteration # 24     ecut=    71.00 Ry     beta= 0.10
     Davidson diagonalization with overlap
     ethr =  9.50E-10,  avg # of iterations =  6.0

     total cpu time spent up to now is      791.2 secs

     total energy              =   -3971.53847697 Ry
     Harris-Foulkes estimate   =   -3971.53849852 Ry
     estimated scf accuracy    <       0.00000553 Ry

     total magnetization       =    -0.00 Bohr mag/cell
     absolute magnetization    =    16.79 Bohr mag/cell

     iteration # 25     ecut=    71.00 Ry     beta= 0.10
     Davidson diagonalization with overlap
     ethr =  9.50E-10,  avg # of iterations =  5.8
 
     Magnetic moment per site:
     atom:    1    charge:   12.2535    magn:    0.9879    constr:    0.0000
     atom:    2    charge:   12.2535    magn:   -0.9879    constr:    0.0000
     atom:    3    charge:   12.2535    magn:    0.9879    constr:    0.0000
     atom:    4    charge:   12.2535    magn:   -0.9879    constr:    0.0000
     atom:    5    charge:   12.2535    magn:    0.9879    constr:    0.0000
     atom:    6    charge:   12.2535    magn:   -0.9879    constr:    0.0000
     atom:    7    charge:   12.2535    magn:    0.9880    constr:    0.0000
     atom:    8    charge:   12.2535    magn:   -0.9879    constr:    0.0000
     atom:    9    charge:   12.2535    magn:    0.9879    constr:    0.0000
     atom:   10    charge:   12.2535    magn:   -0.9879    constr:    0.0000
     atom:   11    charge:   12.2535    magn:    0.9880    constr:    0.0000
     atom:   12    charge:   12.2535    magn:   -0.9879    constr:    0.0000
     atom:   13    charge:   12.2535    magn:    0.9880    constr:    0.0000
     atom:   14    charge:   12.2535    magn:   -0.9879    constr:    0.0000
     atom:   15    charge:   12.2534    magn:    0.9880    constr:    0.0000
     atom:   16    charge:   12.2535    magn:   -0.9879    constr:    0.0000

     total cpu time spent up to now is      834.0 secs

     End of self-consistent calculation

 ------ SPIN UP ------------


          k = 0.0548 0.0548 0.0548 ( 13112 PWs)   bands (ev):

   -53.4843 -53.4506 -53.4506 -53.4506 -53.4365 -53.4365 -53.4365 -53.4230
   -52.3916 -52.3916 -52.3916 -52.3833 -52.3772 -52.3772 -52.3772 -52.3633
   -24.9880 -24.9879 -24.9879 -24.9855 -24.9855 -24.9855 -24.8692 -24.8692
   -24.8692 -24.8446 -24.8413 -24.8413 -24.7939 -24.7939 -24.7895 -24.7160
   -24.7160 -24.7160 -24.7134 -24.7133 -24.7133 -24.6990 -24.6990 -24.6990
   -23.8262 -23.8262 -23.8261 -23.7999 -23.7999 -23.7961 -23.6705 -23.6705
   -23.6705 -23.6681 -23.6681 -23.6681 -23.6676 -23.6675 -23.6675 -23.6658
   -23.6658 -23.6658 -23.6540 -23.6540 -23.6539 -23.6092 -23.6044 -23.6044
    10.9977  14.4170  14.4170  14.4170  14.5442  14.5442  14.5442  14.5597
    14.5597  14.5598  14.6515  14.6515  15.0656  15.0656  15.0656  16.1426
    16.1897  16.1897  16.3983  16.3983  16.3983  16.4129  16.4129  16.4129
    16.6461  16.6462  16.6462  16.8565  16.8565  16.8590  17.4091  17.4091
    17.4091  17.8301  17.8301  17.8792  17.9003  17.9003  17.9003  18.0250
    18.0250  18.0250  18.5992  18.5992  18.5992  18.9250  18.9250  18.9250
    19.2176  19.2176  19.2176  19.3187  19.3187  19.3187  19.5600  19.5600
    19.5601  19.8253  19.8253  19.8253  19.8630  19.8630  19.9167  19.9167
    20.0116  20.0116  20.0116  20.0543  20.0544  20.0544

          k = 0.0548 0.0548 0.1643 ( 13092 PWs)   bands (ev):

   -53.4823 -53.4527 -53.4498 -53.4498 -53.4373 -53.4373 -53.4357 -53.4238
   -52.3910 -52.3907 -52.3907 -52.3838 -52.3780 -52.3780 -52.3764 -52.3641
   -24.9809 -24.9809 -24.9800 -24.9777 -24.9707 -24.9706 -24.8763 -24.8763
   -24.8649 -24.8539 -24.8510 -24.8326 -24.7998 -24.7894 -24.7841 -24.7342
   -24.7341 -24.7205 -24.7184 -24.7131 -24.7131 -24.7076 -24.6998 -24.6998
   -23.8143 -23.8142 -23.8131 -23.7943 -23.7907 -23.7840 -23.6786 -23.6786
   -23.6784 -23.6746 -23.6699 -23.6698 -23.6676 -23.6676 -23.6639 -23.6634
   -23.6634 -23.6619 -23.6617 -23.6542 -23.6542 -23.6233 -23.6082 -23.6075
    11.1292  14.0163  14.4592  14.4592  14.5138  14.5929  14.5930  14.6091
    14.6091  14.6573  14.7182  14.7238  15.0933  15.0934  15.3237  16.0374
    16.1788  16.1809  16.3199  16.3760  16.3891  16.4514  16.4514  16.4961
    16.4961  16.6274  16.6275  16.6822  16.9692  16.9794  17.2359  17.2359
    17.6574  17.7631  17.7632  17.8000  17.8201  17.8553  17.9413  18.0937
    18.2289  18.2289  18.3045  18.3045  18.6411  18.7702  18.7703  19.0034
    19.0034  19.0667  19.1033  19.1327  19.1327  19.1879  19.2331  19.5945
    19.5945  19.7566  19.7566  19.8052  19.8285  19.8606  19.8750  19.9466
    19.9466  19.9483  19.9519  20.0421  20.2037  20.2193

          k = 0.0548 0.0548 0.2739 ( 13077 PWs)   bands (ev):

   -53.4785 -53.4566 -53.4482 -53.4482 -53.4389 -53.4389 -53.4341 -53.4253
   -52.3900 -52.3891 -52.3891 -52.3847 -52.3797 -52.3797 -52.3748 -52.3657
   -24.9674 -24.9674 -24.9647 -24.9630 -24.9430 -24.9429 -24.8896 -24.8896
   -24.8713 -24.8691 -24.8569 -24.8167 -24.8089 -24.7806 -24.7758 -24.7683
   -24.7682 -24.7288 -24.7279 -24.7238 -24.7113 -24.7113 -24.7015 -24.7015
   -23.7931 -23.7931 -23.7886 -23.7807 -23.7741 -23.7658 -23.6934 -23.6934
   -23.6934 -23.6882 -23.6762 -23.6709 -23.6709 -23.6688 -23.6688 -23.6610
   -23.6609 -23.6563 -23.6547 -23.6547 -23.6544 -23.6478 -23.6150 -23.6140
    11.3876  13.4061  14.5344  14.5344  14.6775  14.6776  14.6860  14.6860
    14.6988  14.8504  14.8582  14.8760  15.1087  15.1087  15.4164  15.8372
    15.9507  16.1568  16.1808  16.3360  16.3468  16.3848  16.5686  16.5686
    16.6465  16.6465  16.6534  16.6535  17.1388  17.1388  17.1844  17.2024
    17.5337  17.5338  17.7593  17.7748  17.8025  17.8034  17.8379  17.8379
    18.0324  18.1700  18.1701  18.3655  18.5555  18.5555  18.5972  18.6538
    18.6538  18.7209  18.7659  19.1399  19.1399  19.2913  19.3168  19.6560
    19.6628  19.6629  19.8182  19.8182  19.8199  19.8563  19.8803  19.8862
    19.9908  19.9908  20.0192  20.1041  20.4052  20.4620

          k = 0.0548 0.0548 0.3834 ( 13088 PWs)   bands (ev):

   -53.4734 -53.4617 -53.4460 -53.4460 -53.4411 -53.4411 -53.4321 -53.4274
   -52.3888 -52.3869 -52.3869 -52.3859 -52.3819 -52.3819 -52.3727 -52.3678
   -24.9491 -24.9491 -24.9435 -24.9427 -24.9077 -24.9077 -24.9046 -24.9046
   -24.8940 -24.8928 -24.8463 -24.8206 -24.8121 -24.8120 -24.7951 -24.7687
   -24.7649 -24.7457 -24.7407 -24.7399 -24.7090 -24.7090 -24.7038 -24.7038
   -23.7668 -23.7668 -23.7609 -23.7558 -23.7527 -23.7432 -23.7142 -23.7141
   -23.7141 -23.7071 -23.6960 -23.6809 -23.6713 -23.6713 -23.6700 -23.6700
   -23.6588 -23.6587 -23.6556 -23.6555 -23.6464 -23.6446 -23.6245 -23.6232
    11.7633  12.7994  14.6230  14.6230  14.7166  14.7166  14.8125  14.8125
    14.9543  15.0335  15.0454  15.0620  15.0620  15.1843  15.3629  15.5620
    15.6038  15.9481  16.2001  16.2220  16.2865  16.2952  16.7424  16.7424
    16.8064  16.8065  16.8593  16.8593  17.1414  17.1414  17.3491  17.3491
    17.4767  17.4767  17.4867  17.5050  17.6083  17.6084  17.7570  17.7661
    17.7694  17.7858  18.0065  18.0065  18.1534  18.2875  18.2938  18.4589
    18.7346  18.9971  18.9971  19.3006  19.3007  19.4069  19.5251  19.5251
    19.5528  19.6412  19.6422  19.6423  19.8455  19.8519  19.8556  19.8854
    20.1133  20.1931  20.2686  20.3538  20.3538  20.3563

          k = 0.0548 0.0548-0.4930 ( 13062 PWs)   bands (ev):

   -53.4677 -53.4675 -53.4436 -53.4436 -53.4435 -53.4435 -53.4298 -53.4297
   -52.3875 -52.3871 -52.3845 -52.3845 -52.3842 -52.3842 -52.3704 -52.3701
   -24.9284 -24.9284 -24.9283 -24.9283 -24.9188 -24.9187 -24.9187 -24.9186
   -24.8594 -24.8594 -24.8594 -24.8593 -24.8336 -24.8335 -24.7704 -24.7703
   -24.7548 -24.7547 -24.7525 -24.7524 -24.7065 -24.7065 -24.7064 -24.7064
   -23.7396 -23.7395 -23.7393 -23.7392 -23.7376 -23.7375 -23.7295 -23.7292
   -23.7190 -23.7189 -23.7185 -23.7182 -23.6711 -23.6711 -23.6710 -23.6709
   -23.6570 -23.6570 -23.6569 -23.6568 -23.6354 -23.6351 -23.6338 -23.6335
    12.2412  12.2415  14.6947  14.6948  14.6949  14.6949  14.9502  14.9503
    14.9504  14.9504  15.2168  15.2170  15.2536  15.2538  15.2986  15.2988
    15.5562  15.5565  16.2378  16.2379  16.2469  16.2470  16.9579  16.9579
    16.9580  16.9580  17.0723  17.0724  17.0725  17.0725  17.2013  17.2014
    17.2014  17.2015  17.5670  17.5670  17.5671  17.5671  17.7520  17.7521
    17.7735  17.7736  17.8609  17.8610  17.8722  17.8722  18.2997  18.2999
    19.0935  19.0937  19.3003  19.3003  19.3004  19.3004  19.4662  19.4662
    19.4663  19.4663  19.8498  19.8499  19.8701  19.8702  19.8954  19.8956
    20.0119  20.0121  20.2275  20.2277  20.3032  20.3034

          k = 0.0548 0.1643 0.1643 ( 13096 PWs)   bands (ev):

   -53.4804 -53.4518 -53.4518 -53.4489 -53.4382 -53.4365 -53.4365 -53.4246
   -52.3902 -52.3902 -52.3898 -52.3842 -52.3788 -52.3772 -52.3772 -52.3650
   -24.9759 -24.9736 -24.9736 -24.9636 -24.9636 -24.9550 -24.8823 -24.8722
   -24.8722 -24.8619 -24.8508 -24.8335 -24.8052 -24.7880 -24.7773 -24.7426
   -24.7366 -24.7365 -24.7210 -24.7179 -24.7178 -24.7089 -24.7089 -24.7010
   -23.8039 -23.8036 -23.8035 -23.7919 -23.7833 -23.7702 -23.6885 -23.6862
   -23.6861 -23.6768 -23.6767 -23.6760 -23.6657 -23.6657 -23.6642 -23.6595
   -23.6595 -23.6587 -23.6586 -23.6576 -23.6549 -23.6371 -23.6114 -23.6091
    11.2588  14.0801  14.0801  14.4437  14.5574  14.5574  14.6664  14.6796
    14.7046  14.7047  14.7838  14.7956  15.1334  15.3570  15.3570  15.9648
    16.1598  16.1906  16.3216  16.3217  16.4256  16.4256  16.4660  16.4660
    16.4760  16.5929  16.6062  16.7911  16.8080  17.0334  17.0747  17.4438
    17.4438  17.7015  17.7015  17.7336  17.7442  17.7989  18.0320  18.0419
    18.3444  18.3444  18.3903  18.3903  18.3938  18.4503  18.6277  18.6278
    18.8919  18.8920  18.8966  19.0567  19.1069  19.1069  19.4748  19.4748
    19.7077  19.7656  19.7656  19.8003  19.8135  19.8700  19.8776  19.9261
    19.9269  19.9746  19.9746  20.1814  20.1885  20.1885

          k = 0.0548 0.1643 0.2739 ( 13086 PWs)   bands (ev):

   -53.4767 -53.4555 -53.4500 -53.4473 -53.4400 -53.4381 -53.4350 -53.4262
   -52.3894 -52.3888 -52.3882 -52.3849 -52.3803 -52.3788 -52.3756 -52.3665
   -24.9635 -24.9616 -24.9596 -24.9501 -24.9370 -24.9277 -24.8937 -24.8858
   -24.8768 -24.8644 -24.8644 -24.8203 -24.8154 -24.7806 -24.7711 -24.7694
   -24.7670 -24.7414 -24.7268 -24.7256 -24.7226 -24.7157 -24.7111 -24.7032
   -23.7865 -23.7853 -23.7833 -23.7822 -23.7688 -23.7506 -23.7027 -23.7012
   -23.6984 -23.6911 -23.6815 -23.6813 -23.6690 -23.6666 -23.6631 -23.6604
   -23.6580 -23.6574 -23.6552 -23.6547 -23.6532 -23.6524 -23.6178 -23.6142
    11.5134  13.4882  14.1871  14.4363  14.6350  14.7438  14.7498  14.7948
    14.8143  14.9081  14.9210  14.9340  15.1713  15.3679  15.4600  15.8185
    15.9752  16.1178  16.1931  16.3791  16.3888  16.4135  16.5164  16.5317
    16.5654  16.5882  16.6032  16.7811  16.9466  17.0102  17.1852  17.2986
    17.4707  17.5775  17.5948  17.6475  17.6689  17.7458  17.7707  17.9042
    17.9940  18.0672  18.1660  18.3573  18.4016  18.4192  18.4760  18.5178
    18.5961  18.7178  18.7330  19.1772  19.1834  19.2978  19.3873  19.5572
    19.6812  19.6872  19.7891  19.8171  19.8407  19.8487  19.8745  19.8847
    19.9768  20.0305  20.0470  20.0553  20.2692  20.3456

          k = 0.0548 0.1643 0.3834 ( 13077 PWs)   bands (ev):

   -53.4718 -53.4605 -53.4477 -53.4452 -53.4423 -53.4403 -53.4329 -53.4282
   -52.3883 -52.3868 -52.3860 -52.3859 -52.3823 -52.3810 -52.3735 -52.3687
   -24.9458 -24.9453 -24.9406 -24.9313 -24.9092 -24.9042 -24.9000 -24.8966
   -24.8916 -24.8854 -24.8538 -24.8277 -24.8119 -24.8067 -24.7987 -24.7698
   -24.7602 -24.7486 -24.7481 -24.7381 -24.7205 -24.7141 -24.7128 -24.7061
   -23.7657 -23.7651 -23.7621 -23.7556 -23.7497 -23.7279 -23.7219 -23.7210
   -23.7160 -23.7088 -23.6904 -23.6851 -23.6850 -23.6847 -23.6667 -23.6644
   -23.6560 -23.6549 -23.6516 -23.6507 -23.6480 -23.6429 -23.6266 -23.6223
    11.8829  12.8975  14.3007  14.4245  14.7253  14.8056  14.9168  14.9782
    14.9985  15.0825  15.1230  15.1468  15.2259  15.2954  15.4149  15.5820
    15.6476  15.9445  16.2156  16.3138  16.3205  16.3528  16.5947  16.6786
    16.6986  16.7145  16.7855  16.9041  17.0112  17.1429  17.2940  17.3809
    17.4000  17.4067  17.4322  17.5120  17.5441  17.5923  17.6203  17.6442
    17.6654  17.7368  17.9242  17.9366  18.0059  18.1196  18.3022  18.5148
    18.8853  19.0078  19.0509  19.3143  19.3284  19.3951  19.4245  19.4633
    19.5655  19.5976  19.6553  19.7035  19.8220  19.8749  19.8865  19.9487
    19.9909  20.0732  20.1373  20.1595  20.2672  20.3037

          k = 0.0548 0.1643-0.4930 ( 13060 PWs)   bands (ev):

   -53.4662 -53.4661 -53.4451 -53.4449 -53.4428 -53.4427 -53.4306 -53.4305
   -52.3873 -52.3870 -52.3847 -52.3844 -52.3837 -52.3834 -52.3713 -52.3709
   -24.9272 -24.9271 -24.9251 -24.9250 -24.9187 -24.9186 -24.9090 -24.9088
   -24.8568 -24.8567 -24.8499 -24.8498 -24.8410 -24.8410 -24.7735 -24.7734
   -24.7585 -24.7584 -24.7499 -24.7498 -24.7174 -24.7173 -24.7095 -24.7094
   -23.7446 -23.7445 -23.7425 -23.7423 -23.7382 -23.7379 -23.7290 -23.7287
   -23.7234 -23.7232 -23.7053 -23.7053 -23.6861 -23.6860 -23.6658 -23.6658
   -23.6551 -23.6550 -23.6501 -23.6501 -23.6372 -23.6369 -23.6325 -23.6322
    12.3517  12.3520  14.3842  14.3843  14.7944  14.7945  15.0479  15.0480
    15.1501  15.1502  15.2705  15.2707  15.2916  15.2917  15.3596  15.3598
    15.5894  15.5897  16.2615  16.2616  16.3044  16.3045  16.8220  16.8221
    16.8976  16.8978  16.9099  16.9099  16.9427  16.9429  17.2388  17.2389
    17.3149  17.3149  17.5720  17.5721  17.5789  17.5789  17.5937  17.5937
    17.6348  17.6348  17.7018  17.7019  17.7508  17.7509  18.4336  18.4337
    19.1892  19.1894  19.2238  19.2239  19.3466  19.3468  19.4836  19.4837
    19.5064  19.5065  19.6606  19.6607  19.8543  19.8544  19.9046  19.9047
    19.9363  19.9365  20.1925  20.1926  20.2569  20.2571

          k = 0.0548 0.2739 0.2739 ( 13077 PWs)   bands (ev):

   -53.4733 -53.4535 -53.4535 -53.4457 -53.4420 -53.4366 -53.4366 -53.4277
   -52.3883 -52.3882 -52.3866 -52.3854 -52.3815 -52.3773 -52.3773 -52.3681
   -24.9532 -24.9505 -24.9504 -24.9254 -24.9254 -24.9021 -24.9015 -24.8876
   -24.8784 -24.8784 -24.8625 -24.8266 -24.8191 -24.7841 -24.7759 -24.7653
   -24.7653 -24.7627 -24.7355 -24.7287 -24.7287 -24.7238 -24.7238 -24.7063
   -23.7771 -23.7735 -23.7735 -23.7713 -23.7582 -23.7307 -23.7158 -23.7090
   -23.7090 -23.6983 -23.6982 -23.6909 -23.6810 -23.6605 -23.6604 -23.6589
   -23.6589 -23.6578 -23.6559 -23.6509 -23.6509 -23.6483 -23.6232 -23.6171
    11.7597  13.6380  13.6381  14.3266  14.8238  14.8238  14.8636  14.9682
    15.0056  15.0056  15.0149  15.0815  15.2571  15.4805  15.4805  15.7559
    16.0693  16.0840  16.0840  16.2035  16.4643  16.4643  16.5207  16.5308
    16.5308  16.6247  16.6901  16.7527  16.7761  16.9792  17.2195  17.3650
    17.3650  17.4802  17.4802  17.5026  17.5175  17.5565  17.6167  17.7227
    17.8654  17.8654  18.1061  18.1435  18.1436  18.2011  18.2011  18.3192
    18.8700  18.8700  18.9234  19.2694  19.2879  19.2879  19.4244  19.6247
    19.6247  19.6723  19.7273  19.7273  19.8230  19.8759  19.9004  19.9047
    19.9048  19.9469  20.0106  20.1289  20.1488  20.1736

          k = 0.0548 0.2739 0.3834 ( 13069 PWs)   bands (ev):

   -53.4687 -53.4582 -53.4508 -53.4447 -53.4436 -53.4387 -53.4345 -53.4298
   -52.3876 -52.3867 -52.3860 -52.3844 -52.3830 -52.3794 -52.3751 -52.3703
   -24.9384 -24.9372 -24.9356 -24.9124 -24.9095 -24.9022 -24.8969 -24.8916
   -24.8735 -24.8695 -24.8676 -24.8404 -24.8139 -24.8030 -24.7974 -24.7698
   -24.7644 -24.7552 -24.7523 -24.7392 -24.7343 -24.7328 -24.7197 -24.7104
   -23.7648 -23.7605 -23.7545 -23.7539 -23.7443 -23.7304 -23.7267 -23.7199
   -23.7140 -23.7095 -23.7057 -23.7034 -23.6988 -23.6724 -23.6590 -23.6575
   -23.6532 -23.6532 -23.6503 -23.6494 -23.6467 -23.6419 -23.6308 -23.6235
    12.1160  13.0836  13.8283  14.1924  14.9149  14.9581  15.0761  15.1174
    15.1328  15.1615  15.2833  15.2905  15.3017  15.4183  15.4503  15.5999
    15.7905  15.9396  16.2301  16.3267  16.3783  16.4546  16.4692  16.5468
    16.5643  16.6738  16.6983  16.7435  16.9843  17.0858  17.1301  17.2379
    17.3031  17.3522  17.3684  17.4034  17.4331  17.4636  17.5221  17.5452
    17.5882  17.6650  17.7690  17.7760  17.8506  17.8686  18.4009  18.4523
    19.0762  19.0920  19.1834  19.2881  19.3606  19.3974  19.4353  19.5268
    19.5429  19.6345  19.6943  19.7103  19.7228  19.7747  19.8567  19.9271
    19.9291  20.0075  20.0098  20.0508  20.0733  20.1787

          k = 0.0548 0.2739-0.4930 ( 13072 PWs)   bands (ev):

   -53.4635 -53.4634 -53.4478 -53.4477 -53.4412 -53.4411 -53.4322 -53.4321
   -52.3869 -52.3866 -52.3850 -52.3847 -52.3821 -52.3818 -52.3729 -52.3725
   -24.9253 -24.9251 -24.9189 -24.9188 -24.9175 -24.9175 -24.8913 -24.8912
   -24.8545 -24.8545 -24.8526 -24.8525 -24.8334 -24.8333 -24.7786 -24.7785
   -24.7656 -24.7656 -24.7455 -24.7454 -24.7369 -24.7368 -24.7151 -24.7150
   -23.7470 -23.7469 -23.7458 -23.7456 -23.7360 -23.7357 -23.7312 -23.7310
   -23.7292 -23.7289 -23.7033 -23.7033 -23.6894 -23.6894 -23.6585 -23.6584
   -23.6511 -23.6511 -23.6484 -23.6484 -23.6399 -23.6396 -23.6323 -23.6321
    12.5652  12.5654  14.0230  14.0232  14.9748  14.9750  15.2296  15.2297
    15.2910  15.2911  15.3228  15.3230  15.3532  15.3534  15.5224  15.5226
    15.6448  15.6451  16.2925  16.2926  16.4088  16.4089  16.6203  16.6204
    16.6755  16.6757  16.7252  16.7254  16.9167  16.9167  17.1761  17.1763
    17.2802  17.2803  17.3991  17.3991  17.5160  17.5161  17.5460  17.5461
    17.5502  17.5502  17.5743  17.5744  17.6054  17.6054  18.5025  18.5025
    19.1811  19.1811  19.3310  19.3311  19.4519  19.4520  19.4857  19.4857
    19.5319  19.5319  19.5467  19.5467  19.7568  19.7570  19.8210  19.8212
    19.9682  19.9683  20.1282  20.1283  20.1517  20.1520

          k = 0.0548 0.3834 0.3834 ( 13044 PWs)   bands (ev):

   -53.4645 -53.4550 -53.4550 -53.4478 -53.4415 -53.4366 -53.4366 -53.4319
   -52.3866 -52.3865 -52.3861 -52.3841 -52.3822 -52.3773 -52.3773 -52.3724
   -24.9294 -24.9293 -24.9231 -24.9170 -24.9101 -24.8857 -24.8857 -24.8806
   -24.8806 -24.8660 -24.8557 -24.8423 -24.8248 -24.7995 -24.7868 -24.7868
   -24.7717 -24.7571 -24.7571 -24.7550 -24.7481 -24.7289 -24.7288 -24.7161
   -23.7569 -23.7517 -23.7517 -23.7436 -23.7396 -23.7374 -23.7279 -23.7279
   -23.7228 -23.7206 -23.7205 -23.7111 -23.6907 -23.6609 -23.6609 -23.6541
   -23.6509 -23.6509 -23.6488 -23.6472 -23.6425 -23.6424 -23.6365 -23.6274
    12.4503  13.3372  13.3373  13.9233  15.1138  15.1584  15.1585  15.2638
    15.2667  15.3932  15.3932  15.4255  15.4321  15.4322  15.5045  15.5579
    15.8861  16.0448  16.0449  16.2459  16.4270  16.4270  16.4448  16.5686
    16.5686  16.5782  16.5943  16.7312  16.7689  16.8324  17.1520  17.1534
    17.1534  17.1947  17.1948  17.3257  17.3440  17.4718  17.4718  17.4771
    17.4992  17.5872  17.5905  17.5985  17.5986  18.1246  18.1246  18.5020
    19.2174  19.2188  19.2188  19.3843  19.4567  19.4567  19.4828  19.4989
    19.5844  19.7026  19.7027  19.7067  19.7067  19.7091  19.8078  19.8209
    19.8317  19.8318  19.9679  19.9814  20.0899  20.1010

          k = 0.0548 0.3834-0.4930 ( 13070 PWs)   bands (ev):

   -53.4598 -53.4597 -53.4515 -53.4514 -53.4391 -53.4390 -53.4343 -53.4342
   -52.3865 -52.3862 -52.3854 -52.3851 -52.3799 -52.3796 -52.3750 -52.3747
   -24.9230 -24.9228 -24.9196 -24.9195 -24.9051 -24.9051 -24.8715 -24.8715
   -24.8702 -24.8701 -24.8496 -24.8495 -24.8136 -24.8136 -24.7822 -24.7821
   -24.7778 -24.7777 -24.7599 -24.7598 -24.7389 -24.7388 -24.7226 -24.7225
   -23.7468 -23.7467 -23.7435 -23.7434 -23.7390 -23.7390 -23.7336 -23.7333
   -23.7300 -23.7297 -23.7200 -23.7200 -23.6741 -23.6741 -23.6525 -23.6522
   -23.6522 -23.6522 -23.6447 -23.6446 -23.6434 -23.6431 -23.6341 -23.6340
    12.8663  12.8666  13.6286  13.6288  15.1893  15.1894  15.3662  15.3664
    15.3691  15.3692  15.3987  15.3988  15.4583  15.4583  15.6892  15.6894
    15.7652  15.7654  16.3084  16.3084  16.3711  16.3713  16.4367  16.4368
    16.5229  16.5230  16.5861  16.5863  16.9555  16.9556  16.9702  16.9703
    17.0405  17.0406  17.2198  17.2198  17.4378  17.4379  17.4711  17.4712
    17.4820  17.4820  17.5202  17.5203  17.8055  17.8055  18.3687  18.3687
    19.2036  19.2036  19.3980  19.3980  19.5421  19.5422  19.6034  19.6035
    19.6073  19.6074  19.6108  19.6109  19.6132  19.6134  19.7673  19.7673
    19.9835  19.9835  19.9888  19.9890  20.0213  20.0213

          k = 0.0548-0.4930-0.4930 ( 13084 PWs)   bands (ev):

   -53.4557 -53.4556 -53.4556 -53.4555 -53.4367 -53.4367 -53.4366 -53.4366
   -52.3860 -52.3859 -52.3857 -52.3856 -52.3775 -52.3774 -52.3772 -52.3771
   -24.9211 -24.9209 -24.9209 -24.9209 -24.8892 -24.8892 -24.8892 -24.8892
   -24.8540 -24.8540 -24.8540 -24.8540 -24.7942 -24.7942 -24.7942 -24.7942
   -24.7774 -24.7774 -24.7773 -24.7773 -24.7310 -24.7309 -24.7308 -24.7308
   -23.7446 -23.7446 -23.7445 -23.7445 -23.7342 -23.7342 -23.7341 -23.7341
   -23.7315 -23.7314 -23.7312 -23.7311 -23.6612 -23.6612 -23.6611 -23.6611
   -23.6477 -23.6476 -23.6474 -23.6473 -23.6384 -23.6384 -23.6384 -23.6384
    13.2312  13.2314  13.2315  13.2316  15.3545  15.3546  15.3546  15.3547
    15.3886  15.3887  15.3888  15.3889  15.6440  15.6441  15.6442  15.6442
    16.0577  16.0577  16.0578  16.0579  16.3324  16.3325  16.3325  16.3326
    16.5402  16.5402  16.5403  16.5403  16.9001  16.9001  16.9002  16.9003
    17.0735  17.0735  17.0735  17.0736  17.4111  17.4112  17.4113  17.4113
    17.4747  17.4747  17.4747  17.4748  18.0989  18.0990  18.0990  18.0990
    19.2975  19.2975  19.2976  19.2976  19.6290  19.6291  19.6291  19.6291
    19.6931  19.6931  19.6931  19.6932  19.7340  19.7340  19.7340  19.7340
    19.8024  19.8025  19.8026  19.8027  20.0303  20.0303

          k = 0.1643 0.1643 0.1643 ( 13091 PWs)   bands (ev):

   -53.4785 -53.4508 -53.4508 -53.4508 -53.4374 -53.4374 -53.4374 -53.4255
   -52.3895 -52.3895 -52.3895 -52.3845 -52.3780 -52.3780 -52.3780 -52.3658
   -24.9681 -24.9681 -24.9681 -24.9494 -24.9494 -24.9494 -24.8781 -24.8781
   -24.8781 -24.8668 -24.8431 -24.8431 -24.8004 -24.8004 -24.7683 -24.7429
   -24.7429 -24.7428 -24.7264 -24.7263 -24.7263 -24.7103 -24.7103 -24.7103
   -23.7949 -23.7949 -23.7948 -23.7833 -23.7833 -23.7578 -23.6961 -23.6961
   -23.6960 -23.6716 -23.6716 -23.6716 -23.6711 -23.6710 -23.6710 -23.6599
   -23.6599 -23.6598 -23.6543 -23.6542 -23.6542 -23.6489 -23.6129 -23.6129
    11.3869  14.1494  14.1494  14.1495  14.5492  14.5492  14.5492  14.7850
    14.7850  14.7850  14.8577  14.8577  15.4059  15.4059  15.4059  15.9119
    16.1918  16.1918  16.3049  16.3050  16.3050  16.4507  16.4507  16.4507
    16.5650  16.5650  16.5651  16.7807  16.8898  16.8898  17.2672  17.2672
    17.2672  17.6523  17.6523  17.6523  17.7151  17.7151  18.1396  18.1396
    18.1396  18.1488  18.2961  18.2962  18.2962  18.5508  18.5508  18.5508
    18.6474  18.6474  18.6475  19.1781  19.1781  19.1781  19.6696  19.6696
    19.6697  19.7174  19.7174  19.7174  19.8545  19.8545  19.8816  19.8816
    19.9425  19.9425  19.9425  20.1478  20.1479  20.1479

          k = 0.1643 0.1643 0.2739 ( 13079 PWs)   bands (ev):

   -53.4750 -53.4544 -53.4491 -53.4491 -53.4392 -53.4392 -53.4359 -53.4270
   -52.3888 -52.3880 -52.3880 -52.3851 -52.3795 -52.3795 -52.3764 -52.3674
   -24.9566 -24.9565 -24.9532 -24.9389 -24.9237 -24.9237 -24.8893 -24.8893
   -24.8775 -24.8699 -24.8606 -24.8266 -24.8146 -24.7913 -24.7689 -24.7689
   -24.7605 -24.7436 -24.7363 -24.7278 -24.7274 -24.7274 -24.7131 -24.7131
   -23.7793 -23.7793 -23.7776 -23.7767 -23.7673 -23.7401 -23.7099 -23.7078
   -23.7078 -23.6843 -23.6766 -23.6766 -23.6725 -23.6725 -23.6698 -23.6694
   -23.6636 -23.6571 -23.6571 -23.6507 -23.6506 -23.6480 -23.6200 -23.6169
    11.6380  13.5738  14.2673  14.2674  14.5467  14.5467  14.7491  14.9157
    14.9157  14.9803  14.9892  14.9946  15.4438  15.4438  15.5228  15.8098
    15.9804  16.1543  16.2054  16.3384  16.3385  16.4048  16.4937  16.5347
    16.5347  16.5558  16.7192  16.7192  16.9328  17.0686  17.1105  17.1105
    17.4157  17.4921  17.4922  17.5676  17.6276  17.6806  17.8375  17.8376
    17.8598  17.8598  18.1092  18.2235  18.2235  18.2662  18.2811  18.2828
    18.7468  18.8165  18.8165  19.2595  19.2595  19.4016  19.5053  19.6043
    19.6043  19.7150  19.7523  19.8555  19.8555  19.8888  19.8918  19.9316
    19.9517  19.9517  20.0023  20.0243  20.0835  20.2156

          k = 0.1643 0.1643 0.3834 ( 13081 PWs)   bands (ev):

   -53.4702 -53.4593 -53.4468 -53.4468 -53.4415 -53.4415 -53.4338 -53.4291
   -52.3879 -52.3861 -52.3860 -52.3859 -52.3815 -52.3815 -52.3743 -52.3695
   -24.9406 -24.9406 -24.9327 -24.9248 -24.9047 -24.9047 -24.8920 -24.8890
   -24.8889 -24.8835 -24.8585 -24.8294 -24.8067 -24.8067 -24.8036 -24.7789
   -24.7541 -24.7511 -24.7498 -24.7457 -24.7247 -24.7247 -24.7168 -24.7168
   -23.7640 -23.7600 -23.7599 -23.7538 -23.7465 -23.7277 -23.7223 -23.7223
   -23.7202 -23.7024 -23.6965 -23.6835 -23.6796 -23.6796 -23.6770 -23.6770
   -23.6531 -23.6528 -23.6527 -23.6492 -23.6492 -23.6400 -23.6299 -23.6232
    12.0020  12.9975  14.3948  14.3948  14.5357  14.5357  15.0201  15.0779
    15.0779  15.1604  15.1719  15.2784  15.3896  15.3896  15.4899  15.6092
    15.6699  15.9695  16.2382  16.3470  16.3552  16.4115  16.5123  16.5124
    16.6690  16.6690  16.8976  16.8976  16.9935  16.9935  17.1576  17.3055
    17.3609  17.3610  17.3833  17.3834  17.5112  17.5226  17.5595  17.5810
    17.5811  17.6344  17.8032  17.8032  17.8575  17.8582  18.4060  18.4228
    19.0026  19.0943  19.0943  19.3618  19.3618  19.3984  19.4704  19.4704
    19.5158  19.6922  19.7025  19.7042  19.7042  19.8006  19.8778  19.9127
    20.0095  20.0368  20.1019  20.2012  20.2013  20.2916

          k = 0.1643 0.1643-0.4930 ( 13038 PWs)   bands (ev):

   -53.4648 -53.4647 -53.4442 -53.4442 -53.4441 -53.4441 -53.4315 -53.4314
   -52.3871 -52.3867 -52.3839 -52.3839 -52.3836 -52.3836 -52.3721 -52.3717
   -24.9226 -24.9226 -24.9225 -24.9225 -24.9086 -24.9085 -24.9085 -24.9084
   -24.8485 -24.8484 -24.8484 -24.8483 -24.8446 -24.8446 -24.7775 -24.7774
   -24.7645 -24.7644 -24.7491 -24.7490 -24.7209 -24.7209 -24.7207 -24.7207
   -23.7467 -23.7466 -23.7402 -23.7401 -23.7399 -23.7399 -23.7255 -23.7254
   -23.7240 -23.7237 -23.7009 -23.7009 -23.6798 -23.6797 -23.6797 -23.6797
   -23.6499 -23.6499 -23.6498 -23.6498 -23.6415 -23.6412 -23.6314 -23.6312
    12.4628  12.4631  14.4900  14.4900  14.4901  14.4901  15.2489  15.2489
    15.2490  15.2490  15.3246  15.3247  15.3535  15.3537  15.3927  15.3929
    15.6266  15.6269  16.2879  16.2880  16.3465  16.3466  16.7888  16.7888
    16.7889  16.7889  16.8643  16.8644  16.8645  16.8645  17.2654  17.2654
    17.2655  17.2655  17.4779  17.4779  17.5171  17.5171  17.5171  17.5171
    17.5216  17.5217  17.5778  17.5778  17.5791  17.5791  18.4749  18.4750
    19.2707  19.2709  19.3150  19.3150  19.3151  19.3151  19.4533  19.4534
    19.5164  19.5164  19.5164  19.5165  19.8462  19.8463  19.9503  19.9504
    20.0551  20.0552  20.1611  20.1613  20.2283  20.2285

          k = 0.1643 0.2739 0.2739 ( 13079 PWs)   bands (ev):

   -53.4717 -53.4525 -53.4525 -53.4474 -53.4411 -53.4376 -53.4376 -53.4286
   -52.3876 -52.3876 -52.3865 -52.3854 -52.3807 -52.3779 -52.3779 -52.3689
   -24.9460 -24.9434 -24.9434 -24.9159 -24.9159 -24.9002 -24.8962 -24.8833
   -24.8807 -24.8806 -24.8582 -24.8281 -24.8214 -24.7923 -24.7799 -24.7659
   -24.7658 -24.7546 -24.7413 -24.7361 -24.7360 -24.7316 -24.7316 -24.7169
   -23.7690 -23.7675 -23.7674 -23.7665 -23.7573 -23.7246 -23.7185 -23.7175
   -23.7175 -23.6866 -23.6866 -23.6865 -23.6861 -23.6682 -23.6682 -23.6643
   -23.6641 -23.6640 -23.6604 -23.6470 -23.6459 -23.6459 -23.6255 -23.6212
    11.8819  13.7307  13.7307  14.4072  14.4425  14.7572  14.7572  15.0673
    15.0932  15.1101  15.1102  15.1342  15.5448  15.5733  15.5734  15.7744
    16.0583  16.0583  16.1460  16.2210  16.2950  16.4787  16.4787  16.5937
    16.5988  16.6150  16.6150  16.7490  16.8903  16.9396  17.0694  17.2379
    17.2379  17.3921  17.4198  17.4198  17.4771  17.5271  17.6115  17.6668
    17.6991  17.6991  17.9130  17.9192  17.9193  17.9998  17.9998  18.4090
    18.9776  18.9776  19.0082  19.3630  19.4246  19.4246  19.5000  19.6821
    19.6822  19.6943  19.7233  19.7760  19.7760  19.8327  19.8904  19.8999
    19.9037  19.9037  19.9155  20.1067  20.1437  20.1519

          k = 0.1643 0.2739 0.3834 ( 13064 PWs)   bands (ev):

   -53.4672 -53.4570 -53.4498 -53.4451 -53.4438 -53.4399 -53.4355 -53.4307
   -52.3871 -52.3860 -52.3859 -52.3845 -52.3823 -52.3799 -52.3758 -52.3710
   -24.9314 -24.9307 -24.9261 -24.9062 -24.9048 -24.8957 -24.8937 -24.8837
   -24.8720 -24.8691 -24.8683 -24.8366 -24.8100 -24.8086 -24.7980 -24.7834
   -24.7653 -24.7562 -24.7512 -24.7452 -24.7444 -24.7365 -24.7323 -24.7218
   -23.7587 -23.7549 -23.7509 -23.7504 -23.7408 -23.7307 -23.7297 -23.7252
   -23.7075 -23.7074 -23.7035 -23.6933 -23.6931 -23.6755 -23.6706 -23.6667
   -23.6573 -23.6562 -23.6548 -23.6467 -23.6463 -23.6397 -23.6344 -23.6267
    12.2342  13.1873  13.9304  14.3091  14.5648  14.7474  15.0447  15.2325
    15.2447  15.2666  15.3272  15.3800  15.5213  15.5508  15.5526  15.6371
    15.7899  15.9864  16.2593  16.2875  16.3828  16.4058  16.4499  16.5012
    16.5835  16.7044  16.7342  16.8234  16.8836  17.0095  17.0539  17.1645
    17.2005  17.2453  17.2892  17.3097  17.3349  17.4175  17.4269  17.4651
    17.4865  17.5457  17.6004  17.6086  17.6250  17.6980  18.1807  18.4657
    19.1852  19.2034  19.2473  19.4022  19.4428  19.4596  19.4625  19.5576
    19.5948  19.5972  19.6951  19.7321  19.7423  19.7629  19.8726  19.9501
    19.9788  20.0005  20.0727  20.0842  20.1637  20.1989

          k = 0.1643 0.2739-0.4930 ( 13074 PWs)   bands (ev):

   -53.4622 -53.4621 -53.4469 -53.4467 -53.4426 -53.4424 -53.4331 -53.4330
   -52.3866 -52.3863 -52.3843 -52.3840 -52.3824 -52.3820 -52.3736 -52.3733
   -24.9185 -24.9184 -24.9131 -24.9131 -24.9083 -24.9082 -24.8901 -24.8900
   -24.8531 -24.8531 -24.8461 -24.8461 -24.8337 -24.8337 -24.7838 -24.7838
   -24.7723 -24.7722 -24.7496 -24.7495 -24.7414 -24.7413 -24.7273 -24.7272
   -23.7455 -23.7454 -23.7420 -23.7418 -23.7362 -23.7360 -23.7298 -23.7297
   -23.7224 -23.7221 -23.6961 -23.6961 -23.6907 -23.6907 -23.6700 -23.6699
   -23.6500 -23.6500 -23.6493 -23.6492 -23.6457 -23.6454 -23.6331 -23.6330
    12.6774  12.6777  14.1344  14.1346  14.6878  14.6879  15.3647  15.3648
    15.3929  15.3930  15.4161  15.4162  15.4323  15.4324  15.5476  15.5477
    15.6942  15.6945  16.3259  16.3259  16.4231  16.4232  16.5966  16.5968
    16.6275  16.6276  16.7479  16.7481  16.8726  16.8727  17.1423  17.1424
    17.1592  17.1593  17.3502  17.3502  17.3556  17.3556  17.3951  17.3952
    17.4298  17.4299  17.4493  17.4493  17.4760  17.4761  18.3712  18.3713
    19.3263  19.3264  19.3896  19.3897  19.4455  19.4455  19.4696  19.4698
    19.5665  19.5666  19.5667  19.5668  19.8286  19.8287  19.9942  19.9943
    20.0017  20.0018  20.1046  20.1047  20.1517  20.1519

          k = 0.1643 0.3834 0.3834 ( 13059 PWs)   bands (ev):

   -53.4632 -53.4539 -53.4539 -53.4469 -53.4429 -53.4377 -53.4377 -53.4328
   -52.3861 -52.3859 -52.3857 -52.3834 -52.3825 -52.3779 -52.3778 -52.3731
   -24.9198 -24.9198 -24.9162 -24.9092 -24.8996 -24.8825 -24.8825 -24.8760
   -24.8760 -24.8635 -24.8500 -24.8435 -24.8192 -24.8076 -24.7887 -24.7887
   -24.7827 -24.7621 -24.7621 -24.7617 -24.7506 -24.7412 -24.7411 -24.7283
   -23.7496 -23.7463 -23.7463 -23.7401 -23.7362 -23.7335 -23.7304 -23.7303
   -23.7211 -23.7097 -23.7097 -23.7057 -23.6925 -23.6649 -23.6648 -23.6597
   -23.6596 -23.6591 -23.6548 -23.6490 -23.6424 -23.6423 -23.6405 -23.6319
    12.5668  13.4462  13.4462  14.0409  14.7695  15.0343  15.0343  15.3514
    15.3678  15.5188  15.5188  15.5350  15.5350  15.5431  15.5764  15.6931
    15.9404  16.0443  16.0443  16.2745  16.3081  16.4617  16.4618  16.5911
    16.5911  16.6132  16.6238  16.6924  16.7111  16.8119  17.0841  17.0951
    17.0951  17.1067  17.1068  17.1912  17.2895  17.3149  17.3447  17.3447
    17.3866  17.4158  17.4159  17.4387  17.4649  17.8783  17.8783  18.3522
    19.3663  19.3663  19.3789  19.4382  19.4429  19.5676  19.5805  19.5805
    19.6346  19.7142  19.7143  19.7270  19.8473  19.8473  19.8488  19.8677
    19.8677  19.9577  19.9915  20.0892  20.0897  20.1285

          k = 0.1643 0.3834-0.4930 ( 13066 PWs)   bands (ev):

   -53.4586 -53.4585 -53.4505 -53.4503 -53.4404 -53.4402 -53.4353 -53.4352
   -52.3861 -52.3858 -52.3848 -52.3845 -52.3803 -52.3800 -52.3757 -52.3753
   -24.9140 -24.9139 -24.9086 -24.9085 -24.8993 -24.8993 -24.8675 -24.8674
   -24.8666 -24.8666 -24.8446 -24.8445 -24.8157 -24.8157 -24.7888 -24.7888
   -24.7829 -24.7828 -24.7659 -24.7658 -24.7482 -24.7481 -24.7352 -24.7351
   -23.7417 -23.7416 -23.7390 -23.7389 -23.7347 -23.7346 -23.7316 -23.7314
   -23.7238 -23.7235 -23.7128 -23.7127 -23.6776 -23.6776 -23.6599 -23.6597
   -23.6554 -23.6554 -23.6492 -23.6488 -23.6477 -23.6477 -23.6376 -23.6375
    12.9799  12.9802  13.7430  13.7432  14.9441  14.9443  15.3447  15.3449
    15.4613  15.4615  15.4714  15.4716  15.6589  15.6590  15.7784  15.7785
    15.7906  15.7908  16.3379  16.3380  16.3700  16.3702  16.4088  16.4089
    16.5248  16.5249  16.6295  16.6296  16.8487  16.8488  16.9328  16.9329
    16.9669  16.9670  17.1809  17.1809  17.2760  17.2761  17.3366  17.3367
    17.3407  17.3407  17.3928  17.3929  17.5831  17.5832  18.1154  18.1154
    19.4048  19.4049  19.5122  19.5123  19.6188  19.6188  19.6339  19.6339
    19.6510  19.6511  19.6539  19.6540  19.7960  19.7961  19.8331  19.8332
    20.0024  20.0026  20.0403  20.0405  20.0579  20.0580

          k = 0.1643-0.4930-0.4930 ( 13056 PWs)   bands (ev):

   -53.4546 -53.4545 -53.4545 -53.4544 -53.4379 -53.4378 -53.4378 -53.4377
   -52.3855 -52.3854 -52.3852 -52.3851 -52.3780 -52.3779 -52.3777 -52.3776
   -24.9105 -24.9104 -24.9103 -24.9103 -24.8830 -24.8830 -24.8829 -24.8829
   -24.8497 -24.8497 -24.8497 -24.8497 -24.7978 -24.7978 -24.7978 -24.7978
   -24.7847 -24.7847 -24.7846 -24.7846 -24.7430 -24.7429 -24.7429 -24.7428
   -23.7391 -23.7391 -23.7390 -23.7390 -23.7278 -23.7278 -23.7277 -23.7277
   -23.7271 -23.7270 -23.7268 -23.7267 -23.6651 -23.6650 -23.6650 -23.6650
   -23.6529 -23.6528 -23.6526 -23.6524 -23.6437 -23.6436 -23.6436 -23.6436
    13.3459  13.3461  13.3462  13.3463  15.1937  15.1938  15.1939  15.1939
    15.4878  15.4879  15.4880  15.4881  15.8100  15.8100  15.8101  15.8101
    16.0765  16.0766  16.0767  16.0768  16.3220  16.3221  16.3221  16.3222
    16.5651  16.5652  16.5652  16.5653  16.8034  16.8035  16.8035  16.8036
    17.0365  17.0365  17.0366  17.0366  17.2678  17.2679  17.2680  17.2680
    17.3414  17.3414  17.3414  17.3415  17.8297  17.8297  17.8297  17.8297
    19.5265  19.5265  19.5266  19.5266  19.6794  19.6795  19.6795  19.6796
    19.7367  19.7367  19.7368  19.7368  19.8402  19.8403  19.8404  19.8405
    19.9025  19.9025  19.9026  19.9026  20.0227  20.0228

          k = 0.2739 0.2739 0.2739 ( 13076 PWs)   bands (ev):

   -53.4686 -53.4506 -53.4506 -53.4506 -53.4395 -53.4395 -53.4395 -53.4302
   -52.3864 -52.3863 -52.3863 -52.3855 -52.3792 -52.3792 -52.3792 -52.3704
   -24.9319 -24.9319 -24.9319 -24.8966 -24.8966 -24.8966 -24.8858 -24.8858
   -24.8858 -24.8809 -24.8444 -24.8444 -24.8117 -24.8117 -24.7727 -24.7727
   -24.7726 -24.7523 -24.7522 -24.7522 -24.7510 -24.7367 -24.7367 -24.7367
   -23.7570 -23.7570 -23.7569 -23.7541 -23.7541 -23.7238 -23.7238 -23.7237
   -23.7148 -23.6971 -23.6773 -23.6772 -23.6772 -23.6767 -23.6766 -23.6766
   -23.6686 -23.6685 -23.6685 -23.6445 -23.6445 -23.6445 -23.6291 -23.6291
    12.1207  13.9017  13.9017  13.9018  14.6660  14.6660  14.6660  15.2379
    15.2379  15.2556  15.2556  15.2556  15.7092  15.7092  15.7092  15.7857
    16.0472  16.0473  16.0473  16.2581  16.2581  16.3450  16.5369  16.5369
    16.5369  16.7421  16.7421  16.7421  16.8559  16.8559  17.0809  17.0809
    17.0809  17.2940  17.2940  17.2940  17.3971  17.3972  17.3972  17.4718
    17.4718  17.6079  17.6079  17.6080  17.7312  17.7313  17.7313  18.4530
    19.1557  19.1558  19.1558  19.4607  19.5461  19.5461  19.5461  19.6252
    19.6252  19.6253  19.8082  19.8082  19.8800  19.8800  19.8800  19.9219
    19.9219  20.0112  20.0112  20.0112  20.1279  20.1280

          k = 0.2739 0.2739 0.3834 ( 13064 PWs)   bands (ev):

   -53.4644 -53.4548 -53.4480 -53.4480 -53.4421 -53.4421 -53.4373 -53.4324
   -52.3862 -52.3857 -52.3847 -52.3847 -52.3808 -52.3808 -52.3771 -52.3725
   -24.9186 -24.9186 -24.9125 -24.8942 -24.8942 -24.8920 -24.8830 -24.8710
   -24.8682 -24.8681 -24.8660 -24.8323 -24.8210 -24.7997 -24.7996 -24.7983
   -24.7667 -24.7642 -24.7629 -24.7539 -24.7539 -24.7519 -24.7430 -24.7430
   -23.7480 -23.7451 -23.7450 -23.7437 -23.7348 -23.7312 -23.7287 -23.7286
   -23.7116 -23.7032 -23.6937 -23.6836 -23.6836 -23.6802 -23.6801 -23.6791
   -23.6657 -23.6615 -23.6615 -23.6469 -23.6468 -23.6412 -23.6400 -23.6332
    12.4643  13.3846  14.1215  14.1216  14.5338  14.5338  14.9785  15.3885
    15.4212  15.4213  15.4232  15.5110  15.6689  15.7136  15.7136  15.7226
    15.8036  16.0411  16.2106  16.2107  16.3147  16.3808  16.4640  16.5766
    16.6317  16.6317  16.7759  16.8375  16.8375  16.9320  16.9320  16.9935
    17.0809  17.0810  17.1766  17.1766  17.2003  17.2496  17.2733  17.2822
    17.3505  17.3599  17.3599  17.3958  17.4692  17.4692  17.8678  18.3271
    19.3337  19.3646  19.3646  19.4352  19.5814  19.5814  19.5902  19.5903
    19.6767  19.7520  19.7770  19.7770  19.8085  19.8140  19.8999  19.9258
    19.9724  19.9799  20.0928  20.1458  20.1459  20.1705

          k = 0.2739 0.2739-0.4930 ( 13078 PWs)   bands (ev):

   -53.4597 -53.4595 -53.4451 -53.4451 -53.4450 -53.4450 -53.4349 -53.4348
   -52.3861 -52.3858 -52.3829 -52.3829 -52.3826 -52.3826 -52.3750 -52.3747
   -24.9056 -24.9056 -24.9055 -24.9055 -24.8896 -24.8895 -24.8872 -24.8871
   -24.8527 -24.8526 -24.8344 -24.8343 -24.8343 -24.8342 -24.7925 -24.7924
   -24.7828 -24.7827 -24.7568 -24.7567 -24.7494 -24.7494 -24.7493 -24.7493
   -23.7400 -23.7399 -23.7352 -23.7352 -23.7351 -23.7350 -23.7279 -23.7278
   -23.7140 -23.7137 -23.6911 -23.6910 -23.6848 -23.6847 -23.6847 -23.6846
   -23.6529 -23.6528 -23.6528 -23.6528 -23.6528 -23.6525 -23.6374 -23.6372
    12.8941  12.8944  14.3464  14.3465  14.3466  14.3467  15.3433  15.3435
    15.5799  15.5801  15.5860  15.5860  15.5861  15.5861  15.6057  15.6059
    15.7916  15.7918  16.3862  16.3863  16.4417  16.4417  16.5258  16.5259
    16.5260  16.5260  16.7944  16.7944  16.7945  16.7945  16.9679  16.9680
    17.1189  17.1189  17.1189  17.1190  17.1421  17.1422  17.2711  17.2712
    17.2843  17.2843  17.2844  17.2844  17.3045  17.3045  18.0879  18.0879
    19.5140  19.5141  19.5373  19.5373  19.5374  19.5374  19.5897  19.5897
    19.6302  19.6302  19.6302  19.6303  19.8439  19.8440  20.0356  20.0356
    20.0610  20.0612  20.1282  20.1284  20.1308  20.1309

          k = 0.2739 0.3834 0.3834 ( 13067 PWs)   bands (ev):

   -53.4606 -53.4518 -53.4518 -53.4455 -53.4451 -53.4398 -53.4398 -53.4346
   -52.3855 -52.3849 -52.3848 -52.3829 -52.3821 -52.3789 -52.3789 -52.3744
   -24.9032 -24.9029 -24.9029 -24.8944 -24.8811 -24.8775 -24.8775 -24.8666
   -24.8666 -24.8579 -24.8462 -24.8393 -24.8227 -24.8088 -24.8013 -24.7913
   -24.7913 -24.7738 -24.7707 -24.7707 -24.7636 -24.7635 -24.7570 -24.7510
   -23.7368 -23.7368 -23.7363 -23.7339 -23.7305 -23.7284 -23.7284 -23.7264
   -23.7185 -23.6961 -23.6960 -23.6956 -23.6954 -23.6721 -23.6720 -23.6712
   -23.6712 -23.6687 -23.6661 -23.6521 -23.6470 -23.6465 -23.6465 -23.6408
    12.7930  13.6542  13.6543  14.2680  14.3724  14.8472  14.8472  15.5145
    15.5405  15.5609  15.6180  15.6740  15.6740  15.7327  15.7327  15.9133
    16.0365  16.0366  16.0409  16.1585  16.3294  16.4498  16.5283  16.5283
    16.6424  16.6424  16.6460  16.6618  16.7841  16.8042  16.9375  16.9478
    16.9478  17.0095  17.0249  17.0249  17.0367  17.1317  17.1318  17.1543
    17.1543  17.1972  17.2218  17.2618  17.2926  17.5500  17.5501  18.0467
    19.5050  19.5050  19.5388  19.6000  19.6142  19.7127  19.7214  19.7521
    19.7522  19.7776  19.7942  19.7942  19.8786  19.8786  19.9043  19.9103
    20.0035  20.0810  20.0811  20.0847  20.1161  20.1162

          k = 0.2739 0.3834-0.4930 ( 13062 PWs)   bands (ev):

   -53.4563 -53.4561 -53.4485 -53.4484 -53.4427 -53.4426 -53.4373 -53.4372
   -52.3853 -52.3850 -52.3836 -52.3833 -52.3811 -52.3807 -52.3768 -52.3765
   -24.8971 -24.8970 -24.8887 -24.8886 -24.8882 -24.8881 -24.8629 -24.8629
   -24.8579 -24.8578 -24.8353 -24.8352 -24.8195 -24.8195 -24.8005 -24.8004
   -24.7933 -24.7932 -24.7766 -24.7765 -24.7638 -24.7637 -24.7585 -24.7584
   -23.7324 -23.7323 -23.7303 -23.7302 -23.7274 -23.7273 -23.7269 -23.7267
   -23.7127 -23.7125 -23.7009 -23.7008 -23.6844 -23.6843 -23.6720 -23.6718
   -23.6610 -23.6610 -23.6583 -23.6580 -23.6554 -23.6553 -23.6450 -23.6449
    13.1992  13.1995  13.9626  13.9628  14.6340  14.6342  15.2113  15.2115
    15.6404  15.6406  15.6679  15.6680  15.8387  15.8389  15.8418  15.8419
    15.9290  15.9292  16.3623  16.3624  16.3799  16.3800  16.3963  16.3964
    16.5185  16.5186  16.6975  16.6976  16.7355  16.7356  16.8657  16.8658
    16.8861  16.8862  17.0062  17.0063  17.1103  17.1104  17.1182  17.1183
    17.1289  17.1290  17.2059  17.2060  17.2746  17.2746  17.7576  17.7576
    19.6362  19.6364  19.6519  19.6521  19.7132  19.7134  19.7210  19.7211
    19.7604  19.7604  19.8496  19.8497  19.8527  19.8528  20.0125  20.0127
    20.0360  20.0361  20.0763  20.0764  20.0775  20.0776

          k = 0.2739-0.4930-0.4930 ( 13076 PWs)   bands (ev):

   -53.4524 -53.4524 -53.4523 -53.4522 -53.4400 -53.4400 -53.4399 -53.4399
   -52.3845 -52.3844 -52.3842 -52.3841 -52.3790 -52.3789 -52.3787 -52.3786
   -24.8908 -24.8907 -24.8907 -24.8907 -24.8711 -24.8711 -24.8711 -24.8711
   -24.8418 -24.8417 -24.8417 -24.8417 -24.8051 -24.8050 -24.8050 -24.8050
   -24.7982 -24.7982 -24.7982 -24.7982 -24.7650 -24.7648 -24.7648 -24.7648
   -23.7292 -23.7292 -23.7292 -23.7292 -23.7193 -23.7192 -23.7190 -23.7189
   -23.7161 -23.7161 -23.7160 -23.7160 -23.6725 -23.6725 -23.6724 -23.6724
   -23.6624 -23.6623 -23.6621 -23.6620 -23.6537 -23.6537 -23.6537 -23.6537
    13.5670  13.5671  13.5672  13.5673  14.9491  14.9492  14.9493  14.9494
    15.6771  15.6771  15.6772  15.6773  16.0311  16.0311  16.0312  16.0312
    16.1117  16.1118  16.1119  16.1120  16.2976  16.2976  16.2977  16.2978
    16.6167  16.6167  16.6168  16.6168  16.6944  16.6945  16.6945  16.6946
    16.9685  16.9685  16.9686  16.9686  17.0258  17.0259  17.0259  17.0260
    17.1391  17.1391  17.1392  17.1392  17.4639  17.4639  17.4639  17.4639
    19.7071  19.7072  19.7073  19.7073  19.8108  19.8108  19.8108  19.8109
    19.8769  19.8769  19.8770  19.8770  19.9263  19.9263  19.9264  19.9265
    20.0058  20.0059  20.0060  20.0061  20.0961  20.0962

          k = 0.3834 0.3834 0.3834 ( 13061 PWs)   bands (ev):

   -53.4570 -53.4490 -53.4490 -53.4490 -53.4426 -53.4426 -53.4426 -53.4371
   -52.3849 -52.3835 -52.3835 -52.3835 -52.3803 -52.3803 -52.3803 -52.3762
   -24.8854 -24.8853 -24.8853 -24.8738 -24.8738 -24.8738 -24.8636 -24.8501
   -24.8501 -24.8500 -24.8425 -24.8425 -24.8245 -24.8245 -24.7953 -24.7953
   -24.7952 -24.7898 -24.7897 -24.7897 -24.7807 -24.7807 -24.7807 -24.7676
   -23.7263 -23.7263 -23.7263 -23.7236 -23.7236 -23.7236 -23.7189 -23.7189
   -23.7175 -23.6974 -23.6822 -23.6822 -23.6822 -23.6816 -23.6816 -23.6816
   -23.6806 -23.6806 -23.6805 -23.6550 -23.6550 -23.6550 -23.6532 -23.6532
    13.1142  13.9398  13.9398  13.9399  14.5859  14.5859  14.5860  15.3205
    15.7248  15.7248  15.8249  15.8249  15.8249  16.0046  16.0046  16.0046
    16.0122  16.0122  16.0122  16.1703  16.4053  16.4053  16.5846  16.5847
    16.5847  16.6852  16.6852  16.7415  16.7415  16.7415  16.7557  16.7558
    16.7558  16.9157  16.9157  16.9157  16.9341  16.9341  16.9341  16.9789
    16.9789  16.9790  17.1309  17.1309  17.2297  17.2297  17.2297  17.6959
    19.6461  19.6462  19.6462  19.8178  19.8178  19.8179  19.8399  19.8399
    19.8662  19.8924  19.8924  19.8924  19.9363  19.9363  19.9363  19.9765
    19.9765  20.0704  20.0704  20.0704  20.0931  20.0931

          k = 0.3834 0.3834-0.4930 ( 13060 PWs)   bands (ev):

   -53.4531 -53.4530 -53.4459 -53.4459 -53.4458 -53.4458 -53.4399 -53.4398
   -52.3843 -52.3840 -52.3820 -52.3820 -52.3817 -52.3817 -52.3784 -52.3781
   -24.8754 -24.8753 -24.8753 -24.8753 -24.8643 -24.8642 -24.8554 -24.8553
   -24.8496 -24.8496 -24.8241 -24.8240 -24.8240 -24.8240 -24.8133 -24.8133
   -24.8074 -24.8073 -24.7885 -24.7885 -24.7884 -24.7884 -24.7808 -24.7808
   -23.7207 -23.7207 -23.7206 -23.7206 -23.7199 -23.7198 -23.7182 -23.7180
   -23.7001 -23.6998 -23.6922 -23.6920 -23.6867 -23.6866 -23.6865 -23.6865
   -23.6677 -23.6673 -23.6672 -23.6671 -23.6671 -23.6671 -23.6560 -23.6560
    13.5072  13.5075  14.2671  14.2671  14.2673  14.2673  14.9598  14.9601
    15.8565  15.8567  15.9249  15.9250  15.9408  15.9408  15.9409  15.9409
    16.1082  16.1084  16.3340  16.3340  16.3341  16.3342  16.4869  16.4870
    16.4942  16.4943  16.7111  16.7112  16.7231  16.7232  16.7809  16.7809
    16.7810  16.7810  16.8764  16.8764  16.8764  16.8765  16.9781  16.9781
    16.9781  16.9781  17.0179  17.0179  17.0262  17.0263  17.3928  17.3928
    19.7497  19.7498  19.7810  19.7811  19.7812  19.7812  19.9116  19.9117
    19.9291  19.9291  19.9291  19.9291  19.9730  19.9732  20.0368  20.0369
    20.0691  20.0692  20.0693  20.0693  20.1005  20.1007

          k = 0.3834-0.4930-0.4930 ( 13064 PWs)   bands (ev):

   -53.4495 -53.4495 -53.4494 -53.4493 -53.4429 -53.4429 -53.4428 -53.4428
   -52.3832 -52.3831 -52.3829 -52.3828 -52.3803 -52.3802 -52.3800 -52.3798
   -24.8642 -24.8641 -24.8641 -24.8641 -24.8547 -24.8547 -24.8547 -24.8547
   -24.8308 -24.8308 -24.8308 -24.8308 -24.8161 -24.8161 -24.8160 -24.8160
   -24.8160 -24.8160 -24.8160 -24.8160 -24.7924 -24.7923 -24.7923 -24.7923
   -23.7170 -23.7170 -23.7169 -23.7169 -23.7099 -23.7097 -23.7096 -23.7095
   -23.7008 -23.7008 -23.7007 -23.7007 -23.6815 -23.6815 -23.6814 -23.6814
   -23.6742 -23.6741 -23.6739 -23.6738 -23.6677 -23.6677 -23.6676 -23.6676
    13.8763  13.8764  13.8765  13.8766  14.6197  14.6198  14.6200  14.6201
    15.9352  15.9353  15.9354  15.9354  16.1585  16.1585  16.1586  16.1587
    16.2563  16.2564  16.2565  16.2565  16.2587  16.2588  16.2589  16.2589
    16.6479  16.6480  16.6480  16.6481  16.6923  16.6923  16.6923  16.6923
    16.7839  16.7840  16.7841  16.7842  16.8801  16.8801  16.8801  16.8801
    16.9352  16.9352  16.9352  16.9352  17.0894  17.0894  17.0894  17.0894
    19.8189  19.8190  19.8191  19.8191  19.8809  19.8809  19.8810  19.8811
    19.9775  19.9775  19.9776  19.9777  20.0396  20.0397  20.0398  20.0398
    20.0883  20.0883  20.0884  20.0884  20.1320  20.1320

          k =-0.4930-0.4930-0.4930 ( 13096 PWs)   bands (ev):

   -53.4463 -53.4462 -53.4462 -53.4462 -53.4461 -53.4461 -53.4461 -53.4460
   -52.3818 -52.3817 -52.3817 -52.3816 -52.3815 -52.3814 -52.3814 -52.3813
   -24.8358 -24.8358 -24.8358 -24.8357 -24.8357 -24.8357 -24.8357 -24.8357
   -24.8356 -24.8356 -24.8356 -24.8356 -24.8356 -24.8356 -24.8356 -24.8355
   -24.8163 -24.8163 -24.8163 -24.8162 -24.8162 -24.8162 -24.8162 -24.8162
   -23.7071 -23.7071 -23.7070 -23.7070 -23.7070 -23.7069 -23.7069 -23.7069
   -23.6842 -23.6842 -23.6842 -23.6842 -23.6841 -23.6841 -23.6841 -23.6840
   -23.6840 -23.6840 -23.6839 -23.6839 -23.6839 -23.6839 -23.6838 -23.6838
    14.2428  14.2429  14.2429  14.2430  14.2431  14.2431  14.2432  14.2432
    16.2099  16.2099  16.2100  16.2100  16.2100  16.2100  16.2101  16.2101
    16.2101  16.2101  16.2101  16.2102  16.2102  16.2102  16.2102  16.2102
    16.7615  16.7616  16.7616  16.7616  16.7616  16.7616  16.7616  16.7616
    16.7837  16.7837  16.7837  16.7837  16.7837  16.7837  16.7837  16.7838
    16.7838  16.7838  16.7838  16.7838  16.7838  16.7838  16.7839  16.7839
    19.9359  19.9359  19.9360  19.9360  19.9360  19.9360  19.9361  19.9361
    19.9361  19.9361  19.9361  19.9362  19.9362  19.9362  19.9362  19.9363
    20.3249  20.3249  20.3250  20.3250  20.3250  20.3250

 ------ SPIN DOWN ----------


          k = 0.0548 0.0548 0.0548 ( 13112 PWs)   bands (ev):

   -53.4843 -53.4506 -53.4506 -53.4506 -53.4365 -53.4365 -53.4365 -53.4230
   -52.3916 -52.3916 -52.3916 -52.3833 -52.3772 -52.3772 -52.3772 -52.3633
   -24.9880 -24.9879 -24.9879 -24.9855 -24.9855 -24.9855 -24.8692 -24.8692
   -24.8692 -24.8446 -24.8413 -24.8413 -24.7939 -24.7939 -24.7895 -24.7160
   -24.7160 -24.7160 -24.7133 -24.7133 -24.7133 -24.6990 -24.6990 -24.6989
   -23.8262 -23.8262 -23.8262 -23.7999 -23.7999 -23.7961 -23.6705 -23.6705
   -23.6705 -23.6682 -23.6681 -23.6681 -23.6676 -23.6676 -23.6676 -23.6659
   -23.6659 -23.6658 -23.6540 -23.6540 -23.6540 -23.6092 -23.6044 -23.6044
    10.9977  14.4170  14.4170  14.4170  14.5442  14.5442  14.5442  14.5598
    14.5598  14.5598  14.6515  14.6515  15.0655  15.0655  15.0656  16.1426
    16.1897  16.1897  16.3983  16.3983  16.3983  16.4129  16.4129  16.4129
    16.6461  16.6461  16.6461  16.8565  16.8565  16.8590  17.4090  17.4091
    17.4091  17.8301  17.8301  17.8792  17.9003  17.9003  17.9004  18.0250
    18.0250  18.0250  18.5992  18.5992  18.5992  18.9250  18.9250  18.9250
    19.2176  19.2176  19.2176  19.3187  19.3187  19.3187  19.5600  19.5600
    19.5601  19.8253  19.8253  19.8253  19.8630  19.8630  19.9167  19.9167
    20.0115  20.0115  20.0116  20.0543  20.0543  20.0543

          k = 0.0548 0.0548 0.1643 ( 13092 PWs)   bands (ev):

   -53.4823 -53.4527 -53.4498 -53.4498 -53.4373 -53.4373 -53.4357 -53.4238
   -52.3910 -52.3907 -52.3907 -52.3838 -52.3781 -52.3781 -52.3764 -52.3641
   -24.9810 -24.9809 -24.9800 -24.9777 -24.9707 -24.9706 -24.8763 -24.8763
   -24.8649 -24.8539 -24.8510 -24.8325 -24.7998 -24.7894 -24.7841 -24.7342
   -24.7342 -24.7205 -24.7184 -24.7131 -24.7131 -24.7076 -24.6998 -24.6998
   -23.8143 -23.8143 -23.8131 -23.7943 -23.7907 -23.7840 -23.6786 -23.6786
   -23.6784 -23.6747 -23.6699 -23.6698 -23.6676 -23.6676 -23.6640 -23.6635
   -23.6634 -23.6619 -23.6617 -23.6542 -23.6542 -23.6233 -23.6083 -23.6076
    11.1292  14.0163  14.4592  14.4592  14.5138  14.5929  14.5929  14.6091
    14.6091  14.6573  14.7182  14.7238  15.0933  15.0934  15.3237  16.0374
    16.1788  16.1809  16.3199  16.3760  16.3891  16.4514  16.4514  16.4961
    16.4961  16.6275  16.6275  16.6822  16.9692  16.9794  17.2358  17.2359
    17.6573  17.7631  17.7632  17.8000  17.8200  17.8553  17.9412  18.0937
    18.2289  18.2289  18.3045  18.3046  18.6411  18.7702  18.7702  19.0034
    19.0034  19.0667  19.1033  19.1326  19.1327  19.1879  19.2331  19.5944
    19.5945  19.7566  19.7566  19.8052  19.8285  19.8606  19.8750  19.9465
    19.9466  19.9483  19.9518  20.0421  20.2037  20.2193

          k = 0.0548 0.0548 0.2739 ( 13077 PWs)   bands (ev):

   -53.4785 -53.4566 -53.4482 -53.4482 -53.4389 -53.4389 -53.4341 -53.4253
   -52.3901 -52.3891 -52.3891 -52.3847 -52.3797 -52.3797 -52.3748 -52.3657
   -24.9674 -24.9674 -24.9647 -24.9630 -24.9429 -24.9429 -24.8896 -24.8896
   -24.8713 -24.8691 -24.8569 -24.8167 -24.8089 -24.7806 -24.7758 -24.7683
   -24.7683 -24.7288 -24.7279 -24.7238 -24.7113 -24.7113 -24.7015 -24.7015
   -23.7931 -23.7931 -23.7886 -23.7808 -23.7741 -23.7658 -23.6935 -23.6934
   -23.6934 -23.6882 -23.6762 -23.6710 -23.6709 -23.6688 -23.6687 -23.6610
   -23.6609 -23.6564 -23.6547 -23.6547 -23.6544 -23.6478 -23.6150 -23.6141
    11.3876  13.4061  14.5344  14.5344  14.6776  14.6776  14.6860  14.6860
    14.6988  14.8504  14.8582  14.8760  15.1086  15.1087  15.4164  15.8372
    15.9507  16.1568  16.1808  16.3360  16.3468  16.3848  16.5685  16.5686
    16.6465  16.6465  16.6534  16.6534  17.1387  17.1388  17.1844  17.2024
    17.5337  17.5338  17.7593  17.7748  17.8025  17.8033  17.8379  17.8379
    18.0324  18.1700  18.1700  18.3655  18.5554  18.5555  18.5972  18.6537
    18.6538  18.7209  18.7659  19.1399  19.1399  19.2913  19.3168  19.6560
    19.6628  19.6628  19.8182  19.8182  19.8199  19.8563  19.8802  19.8862
    19.9908  19.9908  20.0192  20.1040  20.4052  20.4620

          k = 0.0548 0.0548 0.3834 ( 13088 PWs)   bands (ev):

   -53.4734 -53.4617 -53.4460 -53.4460 -53.4411 -53.4411 -53.4321 -53.4274
   -52.3888 -52.3869 -52.3869 -52.3859 -52.3819 -52.3819 -52.3727 -52.3678
   -24.9491 -24.9491 -24.9435 -24.9427 -24.9077 -24.9077 -24.9046 -24.9046
   -24.8940 -24.8928 -24.8463 -24.8206 -24.8121 -24.8121 -24.7951 -24.7687
   -24.7649 -24.7457 -24.7407 -24.7399 -24.7090 -24.7090 -24.7038 -24.7038
   -23.7668 -23.7668 -23.7609 -23.7558 -23.7527 -23.7432 -23.7142 -23.7141
   -23.7141 -23.7071 -23.6960 -23.6809 -23.6714 -23.6713 -23.6701 -23.6700
   -23.6588 -23.6587 -23.6556 -23.6556 -23.6464 -23.6447 -23.6245 -23.6232
    11.7633  12.7994  14.6230  14.6230  14.7166  14.7166  14.8125  14.8125
    14.9542  15.0335  15.0453  15.0620  15.0620  15.1843  15.3629  15.5619
    15.6038  15.9481  16.2001  16.2220  16.2865  16.2952  16.7423  16.7424
    16.8064  16.8064  16.8592  16.8593  17.1414  17.1414  17.3491  17.3491
    17.4767  17.4767  17.4867  17.5050  17.6083  17.6083  17.7570  17.7661
    17.7694  17.7858  18.0064  18.0065  18.1534  18.2875  18.2937  18.4589
    18.7346  18.9971  18.9971  19.3006  19.3006  19.4069  19.5251  19.5251
    19.5528  19.6412  19.6422  19.6422  19.8455  19.8518  19.8556  19.8854
    20.1133  20.1931  20.2686  20.3538  20.3538  20.3563

          k = 0.0548 0.0548-0.4930 ( 13062 PWs)   bands (ev):

   -53.4678 -53.4674 -53.4437 -53.4437 -53.4434 -53.4434 -53.4299 -53.4296
   -52.3874 -52.3872 -52.3845 -52.3845 -52.3843 -52.3843 -52.3704 -52.3702
   -24.9285 -24.9285 -24.9282 -24.9282 -24.9189 -24.9188 -24.9185 -24.9185
   -24.8595 -24.8595 -24.8592 -24.8592 -24.8337 -24.8334 -24.7705 -24.7702
   -24.7549 -24.7546 -24.7526 -24.7523 -24.7066 -24.7066 -24.7063 -24.7062
   -23.7395 -23.7395 -23.7393 -23.7393 -23.7376 -23.7376 -23.7294 -23.7293
   -23.7190 -23.7189 -23.7184 -23.7182 -23.6711 -23.6710 -23.6710 -23.6709
   -23.6570 -23.6570 -23.6569 -23.6569 -23.6354 -23.6352 -23.6338 -23.6336
    12.2412  12.2415  14.6947  14.6948  14.6949  14.6949  14.9502  14.9502
    14.9503  14.9504  15.2168  15.2170  15.2535  15.2539  15.2985  15.2988
    15.5562  15.5564  16.2377  16.2379  16.2469  16.2471  16.9578  16.9578
    16.9580  16.9580  17.0724  17.0724  17.0725  17.0725  17.2014  17.2014
    17.2014  17.2014  17.5669  17.5670  17.5671  17.5672  17.7520  17.7521
    17.7735  17.7737  17.8609  17.8610  17.8721  17.8722  18.2997  18.2999
    19.0935  19.0937  19.3003  19.3003  19.3004  19.3004  19.4662  19.4662
    19.4663  19.4663  19.8497  19.8500  19.8700  19.8703  19.8955  19.8956
    20.0120  20.0121  20.2275  20.2277  20.3032  20.3033

          k = 0.0548 0.1643 0.1643 ( 13096 PWs)   bands (ev):

   -53.4804 -53.4518 -53.4518 -53.4489 -53.4382 -53.4365 -53.4365 -53.4246
   -52.3903 -52.3903 -52.3898 -52.3842 -52.3789 -52.3772 -52.3772 -52.3650
   -24.9759 -24.9736 -24.9736 -24.9636 -24.9636 -24.9550 -24.8823 -24.8722
   -24.8721 -24.8618 -24.8508 -24.8335 -24.8052 -24.7880 -24.7773 -24.7426
   -24.7366 -24.7365 -24.7210 -24.7179 -24.7179 -24.7089 -24.7089 -24.7010
   -23.8039 -23.8036 -23.8036 -23.7919 -23.7834 -23.7702 -23.6886 -23.6862
   -23.6861 -23.6768 -23.6767 -23.6760 -23.6657 -23.6657 -23.6643 -23.6595
   -23.6595 -23.6587 -23.6587 -23.6576 -23.6549 -23.6371 -23.6114 -23.6092
    11.2588  14.0801  14.0801  14.4437  14.5574  14.5574  14.6664  14.6796
    14.7046  14.7046  14.7838  14.7956  15.1334  15.3570  15.3570  15.9648
    16.1598  16.1906  16.3216  16.3217  16.4256  16.4256  16.4660  16.4660
    16.4760  16.5929  16.6062  16.7911  16.8080  17.0334  17.0747  17.4438
    17.4438  17.7015  17.7015  17.7336  17.7442  17.7989  18.0319  18.0419
    18.3444  18.3444  18.3903  18.3903  18.3938  18.4503  18.6277  18.6278
    18.8919  18.8920  18.8966  19.0567  19.1069  19.1069  19.4748  19.4748
    19.7076  19.7656  19.7656  19.8003  19.8135  19.8700  19.8776  19.9261
    19.9269  19.9746  19.9746  20.1814  20.1885  20.1885

          k = 0.0548 0.1643 0.2739 ( 13086 PWs)   bands (ev):

   -53.4767 -53.4555 -53.4500 -53.4473 -53.4400 -53.4381 -53.4350 -53.4262
   -52.3894 -52.3888 -52.3882 -52.3849 -52.3803 -52.3789 -52.3757 -52.3666
   -24.9635 -24.9616 -24.9596 -24.9501 -24.9369 -24.9277 -24.8937 -24.8858
   -24.8768 -24.8644 -24.8644 -24.8203 -24.8154 -24.7805 -24.7711 -24.7694
   -24.7670 -24.7413 -24.7268 -24.7256 -24.7226 -24.7157 -24.7111 -24.7031
   -23.7865 -23.7853 -23.7834 -23.7822 -23.7688 -23.7507 -23.7027 -23.7012
   -23.6984 -23.6911 -23.6816 -23.6813 -23.6690 -23.6666 -23.6632 -23.6604
   -23.6580 -23.6574 -23.6552 -23.6547 -23.6532 -23.6524 -23.6178 -23.6142
    11.5133  13.4881  14.1871  14.4363  14.6350  14.7438  14.7498  14.7947
    14.8142  14.9081  14.9210  14.9340  15.1713  15.3679  15.4599  15.8185
    15.9752  16.1178  16.1931  16.3790  16.3888  16.4135  16.5163  16.5317
    16.5654  16.5882  16.6031  16.7811  16.9466  17.0102  17.1852  17.2986
    17.4707  17.5775  17.5948  17.6475  17.6689  17.7458  17.7707  17.9042
    17.9940  18.0672  18.1660  18.3573  18.4016  18.4192  18.4760  18.5178
[...]
    19.6510  19.6511  19.6539  19.6540  19.7960  19.7962  19.8331  19.8331
    20.0024  20.0025  20.0403  20.0405  20.0578  20.0581

          k = 0.1643-0.4930-0.4930 ( 13056 PWs)   bands (ev):

   -53.4547 -53.4546 -53.4544 -53.4542 -53.4380 -53.4379 -53.4377 -53.4376
   -52.3854 -52.3854 -52.3852 -52.3852 -52.3779 -52.3779 -52.3778 -52.3777
   -24.9106 -24.9105 -24.9103 -24.9102 -24.8830 -24.8830 -24.8829 -24.8829
   -24.8497 -24.8497 -24.8497 -24.8497 -24.7978 -24.7978 -24.7978 -24.7978
   -24.7847 -24.7847 -24.7846 -24.7846 -24.7431 -24.7430 -24.7428 -24.7427
   -23.7391 -23.7391 -23.7391 -23.7391 -23.7278 -23.7278 -23.7278 -23.7278
   -23.7271 -23.7270 -23.7269 -23.7268 -23.6650 -23.6650 -23.6650 -23.6650
   -23.6528 -23.6527 -23.6526 -23.6526 -23.6436 -23.6436 -23.6436 -23.6436
    13.3459  13.3460  13.3462  13.3463  15.1937  15.1938  15.1939  15.1939
    15.4878  15.4879  15.4880  15.4881  15.8100  15.8100  15.8101  15.8101
    16.0765  16.0766  16.0767  16.0768  16.3220  16.3221  16.3221  16.3222
    16.5651  16.5651  16.5652  16.5653  16.8034  16.8034  16.8036  16.8036
    17.0365  17.0365  17.0366  17.0366  17.2678  17.2678  17.2679  17.2680
    17.3414  17.3414  17.3415  17.3415  17.8297  17.8297  17.8297  17.8297
    19.5265  19.5265  19.5266  19.5266  19.6794  19.6795  19.6795  19.6796
    19.7366  19.7367  19.7368  19.7368  19.8403  19.8403  19.8404  19.8404
    19.9025  19.9025  19.9026  19.9026  20.0228  20.0228

          k = 0.2739 0.2739 0.2739 ( 13076 PWs)   bands (ev):

   -53.4686 -53.4506 -53.4506 -53.4506 -53.4395 -53.4395 -53.4395 -53.4302
   -52.3864 -52.3864 -52.3863 -52.3856 -52.3792 -52.3792 -52.3792 -52.3705
   -24.9319 -24.9319 -24.9319 -24.8966 -24.8966 -24.8966 -24.8859 -24.8859
   -24.8858 -24.8809 -24.8444 -24.8444 -24.8117 -24.8117 -24.7727 -24.7727
   -24.7726 -24.7523 -24.7522 -24.7522 -24.7510 -24.7367 -24.7367 -24.7366
   -23.7570 -23.7570 -23.7570 -23.7541 -23.7541 -23.7238 -23.7238 -23.7238
   -23.7148 -23.6972 -23.6773 -23.6772 -23.6772 -23.6767 -23.6766 -23.6766
   -23.6685 -23.6685 -23.6685 -23.6446 -23.6446 -23.6445 -23.6291 -23.6291
    12.1207  13.9017  13.9017  13.9018  14.6660  14.6660  14.6660  15.2379
    15.2379  15.2556  15.2556  15.2556  15.7092  15.7092  15.7092  15.7857
    16.0473  16.0473  16.0473  16.2581  16.2581  16.3449  16.5369  16.5369
    16.5369  16.7421  16.7421  16.7421  16.8558  16.8558  17.0809  17.0809
    17.0809  17.2940  17.2940  17.2940  17.3972  17.3972  17.3972  17.4718
    17.4718  17.6079  17.6079  17.6080  17.7313  17.7313  17.7313  18.4530
    19.1557  19.1558  19.1558  19.4607  19.5461  19.5461  19.5461  19.6252
    19.6252  19.6252  19.8082  19.8082  19.8800  19.8800  19.8800  19.9219
    19.9219  20.0112  20.0112  20.0112  20.1279  20.1280

          k = 0.2739 0.2739 0.3834 ( 13064 PWs)   bands (ev):

   -53.4644 -53.4548 -53.4480 -53.4480 -53.4421 -53.4421 -53.4373 -53.4324
   -52.3862 -52.3857 -52.3847 -52.3847 -52.3809 -52.3808 -52.3771 -52.3725
   -24.9186 -24.9186 -24.9125 -24.8942 -24.8942 -24.8920 -24.8830 -24.8710
   -24.8682 -24.8682 -24.8660 -24.8323 -24.8210 -24.7996 -24.7996 -24.7983
   -24.7667 -24.7642 -24.7629 -24.7539 -24.7538 -24.7519 -24.7430 -24.7430
   -23.7480 -23.7451 -23.7450 -23.7437 -23.7348 -23.7313 -23.7287 -23.7286
   -23.7116 -23.7032 -23.6938 -23.6836 -23.6836 -23.6802 -23.6802 -23.6791
   -23.6657 -23.6616 -23.6615 -23.6469 -23.6468 -23.6412 -23.6401 -23.6332
    12.4643  13.3846  14.1215  14.1216  14.5337  14.5338  14.9785  15.3885
    15.4212  15.4212  15.4232  15.5110  15.6689  15.7136  15.7136  15.7225
    15.8036  16.0411  16.2106  16.2107  16.3147  16.3808  16.4640  16.5766
    16.6317  16.6317  16.7759  16.8375  16.8375  16.9320  16.9320  16.9935
    17.0810  17.0810  17.1766  17.1766  17.2003  17.2496  17.2733  17.2821
    17.3505  17.3599  17.3599  17.3958  17.4692  17.4692  17.8678  18.3271
    19.3337  19.3645  19.3646  19.4352  19.5814  19.5814  19.5902  19.5902
    19.6767  19.7519  19.7770  19.7770  19.8085  19.8140  19.8999  19.9258
    19.9723  19.9799  20.0928  20.1458  20.1458  20.1705

          k = 0.2739 0.2739-0.4930 ( 13078 PWs)   bands (ev):

   -53.4598 -53.4594 -53.4452 -53.4452 -53.4449 -53.4449 -53.4350 -53.4347
   -52.3860 -52.3858 -52.3829 -52.3828 -52.3827 -52.3827 -52.3749 -52.3747
   -24.9057 -24.9057 -24.9055 -24.9054 -24.8897 -24.8894 -24.8873 -24.8870
   -24.8527 -24.8525 -24.8344 -24.8344 -24.8342 -24.8342 -24.7926 -24.7923
   -24.7829 -24.7825 -24.7568 -24.7566 -24.7495 -24.7495 -24.7492 -24.7492
   -23.7400 -23.7400 -23.7352 -23.7352 -23.7351 -23.7351 -23.7279 -23.7279
   -23.7139 -23.7137 -23.6911 -23.6910 -23.6848 -23.6847 -23.6847 -23.6847
   -23.6529 -23.6528 -23.6528 -23.6528 -23.6527 -23.6526 -23.6373 -23.6373
    12.8941  12.8944  14.3464  14.3465  14.3466  14.3466  15.3432  15.3435
    15.5799  15.5801  15.5860  15.5860  15.5861  15.5861  15.6057  15.6059
    15.7916  15.7918  16.3861  16.3864  16.4416  16.4418  16.5258  16.5258
    16.5260  16.5260  16.7944  16.7944  16.7945  16.7945  16.9679  16.9681
    17.1188  17.1189  17.1189  17.1190  17.1420  17.1422  17.2711  17.2712
    17.2843  17.2843  17.2843  17.2844  17.3044  17.3046  18.0879  18.0879
    19.5140  19.5141  19.5373  19.5374  19.5374  19.5374  19.5897  19.5897
    19.6301  19.6301  19.6302  19.6303  19.8439  19.8441  20.0355  20.0357
    20.0610  20.0612  20.1282  20.1284  20.1308  20.1309

          k = 0.2739 0.3834 0.3834 ( 13067 PWs)   bands (ev):

   -53.4606 -53.4518 -53.4518 -53.4455 -53.4451 -53.4398 -53.4398 -53.4346
   -52.3855 -52.3849 -52.3849 -52.3829 -52.3821 -52.3789 -52.3789 -52.3745
   -24.9032 -24.9029 -24.9029 -24.8944 -24.8811 -24.8775 -24.8775 -24.8666
   -24.8666 -24.8579 -24.8462 -24.8392 -24.8227 -24.8088 -24.8013 -24.7913
   -24.7913 -24.7738 -24.7707 -24.7707 -24.7635 -24.7635 -24.7570 -24.7510
   -23.7368 -23.7368 -23.7363 -23.7339 -23.7305 -23.7285 -23.7284 -23.7264
   -23.7185 -23.6961 -23.6960 -23.6956 -23.6954 -23.6721 -23.6721 -23.6712
   -23.6712 -23.6687 -23.6661 -23.6522 -23.6470 -23.6466 -23.6465 -23.6408
    12.7930  13.6542  13.6542  14.2680  14.3724  14.8472  14.8472  15.5145
    15.5405  15.5609  15.6180  15.6740  15.6740  15.7326  15.7327  15.9133
    16.0365  16.0366  16.0409  16.1585  16.3294  16.4498  16.5282  16.5283
    16.6424  16.6424  16.6460  16.6618  16.7841  16.8042  16.9374  16.9477
    16.9478  17.0095  17.0249  17.0249  17.0367  17.1318  17.1318  17.1543
    17.1543  17.1972  17.2218  17.2618  17.2926  17.5500  17.5500  18.0467
    19.5049  19.5050  19.5388  19.5999  19.6142  19.7126  19.7214  19.7521
    19.7521  19.7776  19.7942  19.7942  19.8785  19.8786  19.9043  19.9103
    20.0035  20.0810  20.0810  20.0847  20.1161  20.1161

          k = 0.2739 0.3834-0.4930 ( 13062 PWs)   bands (ev):

   -53.4564 -53.4560 -53.4486 -53.4483 -53.4428 -53.4425 -53.4374 -53.4371
   -52.3853 -52.3851 -52.3836 -52.3834 -52.3810 -52.3808 -52.3768 -52.3766
   -24.8972 -24.8969 -24.8887 -24.8886 -24.8883 -24.8880 -24.8630 -24.8628
   -24.8579 -24.8578 -24.8354 -24.8352 -24.8196 -24.8195 -24.8006 -24.8004
   -24.7934 -24.7931 -24.7767 -24.7764 -24.7639 -24.7637 -24.7586 -24.7583
   -23.7324 -23.7323 -23.7303 -23.7302 -23.7274 -23.7273 -23.7268 -23.7267
   -23.7127 -23.7125 -23.7009 -23.7009 -23.6844 -23.6844 -23.6720 -23.6719
   -23.6610 -23.6610 -23.6582 -23.6581 -23.6554 -23.6554 -23.6450 -23.6450
    13.1992  13.1995  13.9625  13.9628  14.6340  14.6342  15.2113  15.2115
    15.6404  15.6406  15.6679  15.6680  15.8387  15.8389  15.8418  15.8419
    15.9290  15.9292  16.3622  16.3624  16.3798  16.3800  16.3962  16.3964
    16.5185  16.5186  16.6975  16.6976  16.7354  16.7356  16.8657  16.8658
    16.8861  16.8862  17.0061  17.0063  17.1103  17.1104  17.1182  17.1183
    17.1288  17.1290  17.2059  17.2060  17.2745  17.2746  17.7576  17.7576
    19.6362  19.6363  19.6520  19.6520  19.7132  19.7133  19.7209  19.7211
    19.7603  19.7604  19.8496  19.8497  19.8527  19.8528  20.0125  20.0127
    20.0359  20.0361  20.0763  20.0764  20.0775  20.0775

          k = 0.2739-0.4930-0.4930 ( 13076 PWs)   bands (ev):

   -53.4526 -53.4524 -53.4522 -53.4521 -53.4402 -53.4400 -53.4399 -53.4397
   -52.3844 -52.3844 -52.3843 -52.3842 -52.3789 -52.3789 -52.3787 -52.3787
   -24.8909 -24.8908 -24.8906 -24.8905 -24.8711 -24.8711 -24.8711 -24.8711
   -24.8418 -24.8418 -24.8417 -24.8417 -24.8051 -24.8050 -24.8050 -24.8050
   -24.7982 -24.7982 -24.7982 -24.7982 -24.7650 -24.7649 -24.7647 -24.7646
   -23.7292 -23.7292 -23.7292 -23.7292 -23.7193 -23.7192 -23.7191 -23.7190
   -23.7161 -23.7161 -23.7161 -23.7161 -23.6725 -23.6725 -23.6724 -23.6724
   -23.6623 -23.6622 -23.6622 -23.6621 -23.6537 -23.6537 -23.6537 -23.6537
    13.5670  13.5671  13.5672  13.5673  14.9491  14.9492  14.9493  14.9494
    15.6770  15.6771  15.6772  15.6773  16.0310  16.0311  16.0311  16.0312
    16.1117  16.1118  16.1119  16.1120  16.2976  16.2976  16.2977  16.2977
    16.6167  16.6167  16.6168  16.6168  16.6943  16.6944  16.6945  16.6946
    16.9685  16.9685  16.9686  16.9686  17.0258  17.0258  17.0259  17.0260
    17.1391  17.1391  17.1392  17.1392  17.4639  17.4639  17.4639  17.4639
    19.7071  19.7072  19.7072  19.7073  19.8107  19.8108  19.8109  19.8109
    19.8769  19.8769  19.8770  19.8770  19.9263  19.9263  19.9264  19.9264
    20.0058  20.0059  20.0060  20.0060  20.0961  20.0962

          k = 0.3834 0.3834 0.3834 ( 13061 PWs)   bands (ev):

   -53.4571 -53.4490 -53.4490 -53.4490 -53.4426 -53.4426 -53.4426 -53.4371
   -52.3849 -52.3835 -52.3835 -52.3835 -52.3803 -52.3803 -52.3803 -52.3762
   -24.8853 -24.8853 -24.8853 -24.8738 -24.8738 -24.8737 -24.8636 -24.8501
   -24.8501 -24.8501 -24.8424 -24.8424 -24.8245 -24.8245 -24.7953 -24.7953
   -24.7952 -24.7898 -24.7897 -24.7897 -24.7807 -24.7807 -24.7806 -24.7676
   -23.7263 -23.7263 -23.7263 -23.7236 -23.7236 -23.7236 -23.7189 -23.7189
   -23.7175 -23.6974 -23.6823 -23.6822 -23.6822 -23.6816 -23.6816 -23.6816
   -23.6806 -23.6806 -23.6806 -23.6550 -23.6550 -23.6550 -23.6533 -23.6533
    13.1142  13.9398  13.9398  13.9399  14.5859  14.5859  14.5860  15.3205
    15.7248  15.7248  15.8249  15.8249  15.8249  16.0046  16.0046  16.0046
    16.0122  16.0122  16.0122  16.1703  16.4053  16.4053  16.5846  16.5847
    16.5847  16.6852  16.6852  16.7415  16.7415  16.7415  16.7558  16.7558
    16.7558  16.9157  16.9157  16.9157  16.9340  16.9340  16.9341  16.9789
    16.9789  16.9790  17.1309  17.1309  17.2297  17.2297  17.2297  17.6959
    19.6461  19.6462  19.6462  19.8178  19.8178  19.8179  19.8399  19.8399
    19.8662  19.8923  19.8923  19.8924  19.9363  19.9363  19.9363  19.9765
    19.9765  20.0704  20.0704  20.0704  20.0931  20.0931

          k = 0.3834 0.3834-0.4930 ( 13060 PWs)   bands (ev):

   -53.4532 -53.4529 -53.4460 -53.4460 -53.4457 -53.4457 -53.4400 -53.4397
   -52.3843 -52.3841 -52.3820 -52.3820 -52.3818 -52.3818 -52.3784 -52.3782
   -24.8754 -24.8754 -24.8752 -24.8752 -24.8644 -24.8641 -24.8555 -24.8552
   -24.8497 -24.8495 -24.8241 -24.8241 -24.8239 -24.8239 -24.8134 -24.8132
   -24.8075 -24.8072 -24.7887 -24.7886 -24.7884 -24.7883 -24.7809 -24.7807
   -23.7207 -23.7207 -23.7206 -23.7206 -23.7199 -23.7199 -23.7182 -23.7181
   -23.7000 -23.6999 -23.6922 -23.6921 -23.6867 -23.6866 -23.6866 -23.6866
   -23.6676 -23.6674 -23.6672 -23.6671 -23.6671 -23.6671 -23.6560 -23.6560
    13.5072  13.5075  14.2671  14.2671  14.2673  14.2673  14.9598  14.9600
    15.8565  15.8567  15.9248  15.9250  15.9408  15.9408  15.9409  15.9409
    16.1082  16.1084  16.3339  16.3340  16.3341  16.3342  16.4869  16.4871
    16.4941  16.4943  16.7110  16.7112  16.7231  16.7233  16.7809  16.7809
    16.7810  16.7810  16.8764  16.8764  16.8765  16.8765  16.9781  16.9781
    16.9781  16.9781  17.0179  17.0179  17.0261  17.0263  17.3928  17.3928
    19.7497  19.7498  19.7810  19.7811  19.7812  19.7812  19.9115  19.9117
    19.9290  19.9291  19.9291  19.9291  19.9730  19.9731  20.0368  20.0370
    20.0691  20.0691  20.0693  20.0693  20.1005  20.1006

          k = 0.3834-0.4930-0.4930 ( 13064 PWs)   bands (ev):

   -53.4497 -53.4495 -53.4493 -53.4492 -53.4431 -53.4429 -53.4428 -53.4426
   -52.3831 -52.3831 -52.3829 -52.3829 -52.3802 -52.3802 -52.3800 -52.3800
   -24.8643 -24.8642 -24.8640 -24.8639 -24.8547 -24.8547 -24.8547 -24.8547
   -24.8308 -24.8308 -24.8308 -24.8308 -24.8161 -24.8161 -24.8161 -24.8160
   -24.8160 -24.8160 -24.8160 -24.8160 -24.7925 -24.7924 -24.7922 -24.7921
   -23.7170 -23.7169 -23.7169 -23.7169 -23.7098 -23.7097 -23.7096 -23.7096
   -23.7008 -23.7008 -23.7008 -23.7008 -23.6815 -23.6815 -23.6814 -23.6814
   -23.6741 -23.6740 -23.6740 -23.6739 -23.6677 -23.6677 -23.6677 -23.6677
    13.8763  13.8764  13.8765  13.8766  14.6197  14.6198  14.6200  14.6200
    15.9352  15.9353  15.9354  15.9354  16.1584  16.1585  16.1586  16.1587
    16.2563  16.2564  16.2565  16.2565  16.2587  16.2588  16.2589  16.2589
    16.6478  16.6479  16.6480  16.6481  16.6922  16.6923  16.6923  16.6924
    16.7839  16.7840  16.7841  16.7841  16.8800  16.8801  16.8801  16.8801
    16.9352  16.9352  16.9352  16.9353  17.0894  17.0894  17.0894  17.0894
    19.8189  19.8190  19.8191  19.8191  19.8808  19.8809  19.8810  19.8811
    19.9775  19.9775  19.9776  19.9777  20.0396  20.0397  20.0398  20.0398
    20.0883  20.0883  20.0883  20.0884  20.1320  20.1320

          k =-0.4930-0.4930-0.4930 ( 13096 PWs)   bands (ev):

   -53.4464 -53.4463 -53.4463 -53.4462 -53.4461 -53.4460 -53.4460 -53.4459
   -52.3817 -52.3817 -52.3817 -52.3816 -52.3815 -52.3815 -52.3815 -52.3815
   -24.8359 -24.8358 -24.8358 -24.8358 -24.8358 -24.8357 -24.8357 -24.8357
   -24.8356 -24.8356 -24.8356 -24.8355 -24.8355 -24.8355 -24.8355 -24.8355
   -24.8163 -24.8163 -24.8163 -24.8162 -24.8162 -24.8162 -24.8161 -24.8161
   -23.7071 -23.7071 -23.7071 -23.7070 -23.7070 -23.7070 -23.7070 -23.7069
   -23.6842 -23.6841 -23.6841 -23.6841 -23.6841 -23.6841 -23.6840 -23.6840
   -23.6840 -23.6840 -23.6840 -23.6840 -23.6840 -23.6840 -23.6839 -23.6839
    14.2428  14.2429  14.2429  14.2430  14.2430  14.2431  14.2432  14.2432
    16.2099  16.2099  16.2100  16.2100  16.2100  16.2100  16.2101  16.2101
    16.2101  16.2101  16.2101  16.2102  16.2102  16.2102  16.2102  16.2102
    16.7615  16.7616  16.7616  16.7616  16.7616  16.7616  16.7616  16.7616
    16.7836  16.7837  16.7837  16.7837  16.7837  16.7837  16.7837  16.7837
    16.7838  16.7838  16.7838  16.7838  16.7838  16.7838  16.7839  16.7839
    19.9359  19.9359  19.9360  19.9360  19.9360  19.9360  19.9361  19.9361
    19.9361  19.9361  19.9361  19.9362  19.9362  19.9362  19.9362  19.9362
    20.3249  20.3249  20.3249  20.3250  20.3250  20.3250

     the Fermi energy is    18.6331 ev

!    total energy              =   -3971.53851927 Ry
     Harris-Foulkes estimate   =   -3971.53850710 Ry
     estimated scf accuracy    <       0.00000017 Ry

     total all-electron energy =    -33628.061399 Ry

     The total energy is the sum of the following terms:

     one-electron contribution =    -926.98564323 Ry
     hartree contribution      =     594.28194123 Ry
     xc contribution           =    -356.45367210 Ry
     ewald contribution        =   -2094.51212744 Ry
     one-center paw contrib.   =   -1187.92656632 Ry
     smearing contrib. (-TS)   =       0.05754858 Ry

     total magnetization       =    -0.00 Bohr mag/cell
     absolute magnetization    =    16.95 Bohr mag/cell

     convergence has been achieved in  25 iterations

     Forces acting on atoms (cartesian axes, Ry/au):

     atom    1 type  1   force =     0.00000000    0.00000000    0.00000000
     atom    2 type  2   force =    -0.00000812   -0.00000812   -0.00000812
     atom    3 type  1   force =     0.00000000    0.00000000   -0.00000000
     atom    4 type  2   force =    -0.00000812   -0.00000812    0.00000812
     atom    5 type  1   force =     0.00000000    0.00000000    0.00000000
     atom    6 type  2   force =    -0.00000812    0.00000812   -0.00000812
     atom    7 type  1   force =     0.00000000   -0.00000000   -0.00000000
     atom    8 type  2   force =    -0.00000812    0.00000812    0.00000812
     atom    9 type  1   force =     0.00000000    0.00000000    0.00000000
     atom   10 type  2   force =     0.00000812   -0.00000812   -0.00000812
     atom   11 type  1   force =     0.00000000    0.00000000    0.00000000
     atom   12 type  2   force =     0.00000812   -0.00000812    0.00000812
     atom   13 type  1   force =     0.00000000    0.00000000    0.00000000
     atom   14 type  2   force =     0.00000812    0.00000812   -0.00000812
     atom   15 type  1   force =     0.00000000    0.00000000    0.00000000
     atom   16 type  2   force =     0.00000812    0.00000812    0.00000812

     Total force =     0.000040     Total SCF correction =     0.000176
     SCF correction compared to forces is large: reduce conv_thr to get better values


     Computing stress (Cartesian axis) and pressure

          total   stress  (Ry/bohr**3)                   (kbar)     P=  -61.20
  -0.00041604   0.00000000   0.00000000        -61.20      0.00      0.00
   0.00000000  -0.00041604   0.00000000          0.00    -61.20      0.00
   0.00000000   0.00000000  -0.00041604          0.00      0.00    -61.20


     Writing output data file tCrSGsrVueuNsVHt.save/
 
     init_run     :      7.46s CPU      7.77s WALL (       1 calls)
     electrons    :    807.60s CPU    824.73s WALL (       1 calls)
     forces       :      2.26s CPU      2.42s WALL (       1 calls)
     stress       :      9.55s CPU      9.63s WALL (       1 calls)

     Called by init_run:
     wfcinit      :      6.81s CPU      7.07s WALL (       1 calls)
     potinit      :      0.30s CPU      0.31s WALL (       1 calls)
     hinit0       :      0.15s CPU      0.16s WALL (       1 calls)

     Called by electrons:
     c_bands      :    743.47s CPU    757.52s WALL (      26 calls)
     sum_band     :     55.61s CPU     57.96s WALL (      26 calls)
     v_of_rho     :      0.65s CPU      0.70s WALL (      26 calls)
     newd         :      1.43s CPU      1.75s WALL (      26 calls)
     PAW_pot      :      6.44s CPU      6.75s WALL (      26 calls)
     mix_rho      :      0.19s CPU      0.21s WALL (      26 calls)

     Called by c_bands:
     init_us_2    :      4.25s CPU      4.31s WALL (    3850 calls)
     cegterg      :    720.72s CPU    734.56s WALL (    1820 calls)

     Called by sum_band:
     sum_band:bec :      0.56s CPU      0.57s WALL (    1820 calls)
     addusdens    :      3.06s CPU      3.41s WALL (      26 calls)

     Called by *egterg:
     h_psi        :    261.77s CPU    270.28s WALL (    9596 calls)
     s_psi        :     21.15s CPU     21.26s WALL (    9596 calls)
     g_psi        :      1.09s CPU      1.10s WALL (    7706 calls)
     cdiaghg      :    357.24s CPU    358.18s WALL (    9456 calls)

     Called by h_psi:
     h_psi:pot    :    259.99s CPU    268.47s WALL (    9596 calls)
     h_psi:calbec :     23.67s CPU     26.15s WALL (    9596 calls)
     vloc_psi     :    214.22s CPU    220.13s WALL (    9596 calls)
     add_vuspsi   :     22.03s CPU     22.14s WALL (    9596 calls)

     General routines
     calbec       :     33.37s CPU     36.88s WALL (   11766 calls)
     fft          :      0.50s CPU      0.56s WALL (     692 calls)
     ffts         :      0.05s CPU      0.05s WALL (     104 calls)
     fftw         :    237.51s CPU    244.00s WALL ( 1574940 calls)
     interpolate  :      0.06s CPU      0.07s WALL (      52 calls)
 
     Parallel routines
     fft_scatt_xy :     19.17s CPU     19.69s WALL ( 1575736 calls)
     fft_scatt_yz :    137.85s CPU    141.85s WALL ( 1575736 calls)
 
     PWSCF        : 13m50.28s CPU    14m14.57s WALL

 
   This run was terminated on:   4:33:24  16Jun2020            

=------------------------------------------------------------------------------=
   JOB DONE.
=------------------------------------------------------------------------------=
