--------------------------------------------------------------------------
WARNING: No preset parameters were found for the device that Open MPI
detected:

  Local host:            bear-pg0206u20b
  Device name:           mlx5_0
  Device vendor ID:      0x02c9
  Device vendor part ID: 4123

Default device parameters will be used, which may result in lower
performance.  You can edit any of the files specified by the
btl_openib_device_param_files MCA parameter to set values for your
device.

NOTE: You can turn off this warning by setting the MCA parameter
      btl_openib_warn_no_device_params_found to 0.
--------------------------------------------------------------------------
--------------------------------------------------------------------------
WARNING: There was an error initializing an OpenFabrics device.

  Local host:   bear-pg0206u20b
  Local device: mlx5_0
--------------------------------------------------------------------------

     Program PWSCF v.6.3 starts on 16Jun2020 at  3:46:37 

     This program is part of the open-source Quantum ESPRESSO suite
     for quantum simulation of materials; please cite
         "P. Giannozzi et al., J. Phys.:Condens. Matter 21 395502 (2009);
         "P. Giannozzi et al., J. Phys.:Condens. Matter 29 465901 (2017);
          URL http://www.quantum-espresso.org", 
     in publications or presentations arising from this work. More details at
     http://www.quantum-espresso.org/quote

     Parallel version (MPI & OpenMP), running on      20 processor cores
     Number of MPI processes:                20
     Threads/MPI process:                     1

     MPI processes distributed on     1 nodes
     R & G space division:  proc/nbgrp/npool/nimage =      20
     Reading input from wd/eos/eos_011.in
Warning: card &IONS ignored
Warning: card ION_DYNAMICS = 'BFGS', ignored
Warning: card / ignored
Warning: card &CELL ignored
Warning: card CELL_DYNAMICS = 'BFGS', ignored
Warning: card CELL_FACTOR = 2.0, ignored
Warning: card PRESS = 0.0, ignored
Warning: card / ignored

     Current dimensions of program PWSCF are:
     Max number of different atomic species (ntypx) = 10
     Max number of k-points (npk) =  40000
     Max angular momentum in pseudopotentials (lmaxx) =  3
     Message from routine read_upf::
     Pseudo file /rds/homes/b/bxp912/pp/Cr.pbe-spn-kjpaw_psl.1.0.0.UPF has been successfully fixed on the fly.
To avoid this message in the future you can permanently fix 
 your pseudo files following instructions given in: 
https://gitlab.com/QEF/q-e/blob/master/upftools/how_to_fix_upf.md
               file Cr.pbe-spn-kjpaw_psl.1.0.0.UPF: wavefunction(s)  3S 3P 3D renormalized
     Message from routine read_upf::
     Pseudo file /rds/homes/b/bxp912/pp/Cr.pbe-spn-kjpaw_psl.1.0.0.UPF has been successfully fixed on the fly.
To avoid this message in the future you can permanently fix 
 your pseudo files following instructions given in: 
https://gitlab.com/QEF/q-e/blob/master/upftools/how_to_fix_upf.md
               file Cr.pbe-spn-kjpaw_psl.1.0.0.UPF: wavefunction(s)  3S 3P 3D renormalized

     Subspace diagonalization in iterative solution of the eigenvalue problem:
     a serial algorithm will be used

     Found symmetry operation: I + (  0.0000  0.0000  0.5000)
     This is a supercell, fractional translations are disabled
 
     Parallelization info
     --------------------
     sticks:   dense  smooth     PW     G-vecs:    dense   smooth      PW
     Min         200     131     37                 9584     5122     769
     Max         201     132     38                 9587     5124     774
     Sum        4009    2637    749               191711   102471   15419
 


     bravais-lattice index     =            0
     lattice parameter (alat)  =      10.7442  a.u.
     unit-cell volume          =    1272.4429 (a.u.)^3
     number of atoms/cell      =           16
     number of atomic types    =            2
     number of electrons       =       224.00
     number of Kohn-Sham states=          134
     kinetic-energy cutoff     =      71.0000  Ry
     charge density cutoff     =     430.0000  Ry
     convergence threshold     =      1.0E-06
     mixing beta               =       0.1000
     number of iterations used =           10  plain     mixing
     Exchange-correlation      = SLA PW PBX PBC ( 1  4  3  4 0 0)

     celldm(1)=  10.744168  celldm(2)=   0.000000  celldm(3)=   0.000000
     celldm(4)=   0.000000  celldm(5)=   0.000000  celldm(6)=   0.000000

     crystal axes: (cart. coord. in units of alat)
               a(1) = (   1.008571   0.000000   0.000000 )  
               a(2) = (   0.000000   1.008571   0.000000 )  
               a(3) = (   0.000000   0.000000   1.008571 )  

     reciprocal axes: (cart. coord. in units 2 pi/alat)
               b(1) = (  0.991501  0.000000  0.000000 )  
               b(2) = (  0.000000  0.991501  0.000000 )  
               b(3) = (  0.000000  0.000000  0.991501 )  


     PseudoPot. # 1 for Cr read from file:
     /rds/homes/b/bxp912/pp/Cr.pbe-spn-kjpaw_psl.1.0.0.UPF
     MD5 check sum: cb1c17117da000fe5e03c4f1a6841d9c
     Pseudo is Projector augmented-wave + core cor, Zval = 14.0
     Generated using "atomic" code by A. Dal Corso v.5.1
     Shape of augmentation charge: PSQ
     Using radial grid of 1183 points,  6 beta functions with: 
                l(1) =   0
                l(2) =   0
                l(3) =   1
                l(4) =   1
                l(5) =   2
                l(6) =   2
     Q(r) pseudized with 0 coefficients 


     PseudoPot. # 2 for Cr read from file:
     /rds/homes/b/bxp912/pp/Cr.pbe-spn-kjpaw_psl.1.0.0.UPF
     MD5 check sum: cb1c17117da000fe5e03c4f1a6841d9c
     Pseudo is Projector augmented-wave + core cor, Zval = 14.0
     Generated using "atomic" code by A. Dal Corso v.5.1
     Shape of augmentation charge: PSQ
     Using radial grid of 1183 points,  6 beta functions with: 
                l(1) =   0
                l(2) =   0
                l(3) =   1
                l(4) =   1
                l(5) =   2
                l(6) =   2
     Q(r) pseudized with 0 coefficients 


     atomic species   valence    mass     pseudopotential
        Cr1           14.00    55.84500     Cr( 1.00)
        Cr2           14.00    55.84500     Cr( 1.00)

     Starting magnetic structure 
     atomic species   magnetization
        Cr1          0.300
        Cr2         -0.300

     48 Sym. Ops., with inversion, found



   Cartesian axes

     site n.     atom                  positions (alat units)
         1           Cr1 tau(   1) = (   0.0000000   0.0000000   0.0000000  )
         2           Cr2 tau(   2) = (   0.2521429   0.2521429   0.2521426  )
         3           Cr1 tau(   3) = (   0.0000000   0.0000000   0.5042852  )
         4           Cr2 tau(   4) = (   0.2521429   0.2521429   0.7564288  )
         5           Cr1 tau(   5) = (   0.0000000   0.5042859   0.0000000  )
         6           Cr2 tau(   6) = (   0.2521429   0.7564288   0.2521426  )
         7           Cr1 tau(   7) = (   0.0000000   0.5042859   0.5042852  )
         8           Cr2 tau(   8) = (   0.2521429   0.7564288   0.7564288  )
         9           Cr1 tau(   9) = (   0.5042859   0.0000000   0.0000000  )
        10           Cr2 tau(  10) = (   0.7564288   0.2521429   0.2521426  )
        11           Cr1 tau(  11) = (   0.5042859   0.0000000   0.5042852  )
        12           Cr2 tau(  12) = (   0.7564288   0.2521429   0.7564288  )
        13           Cr1 tau(  13) = (   0.5042859   0.5042859   0.0000000  )
        14           Cr2 tau(  14) = (   0.7564288   0.7564288   0.2521426  )
        15           Cr1 tau(  15) = (   0.5042859   0.5042859   0.5042852  )
        16           Cr2 tau(  16) = (   0.7564288   0.7564288   0.7564288  )

     number of k points=    35  Marzari-Vanderbilt smearing, width (Ry)=  0.0400
                       cart. coord. in units 2pi/alat
        k(    1) = (   0.0550834   0.0550834   0.0550834), wk =   0.0109739
        k(    2) = (   0.0550834   0.0550834   0.1652502), wk =   0.0329218
        k(    3) = (   0.0550834   0.0550834   0.2754171), wk =   0.0329218
        k(    4) = (   0.0550834   0.0550834   0.3855839), wk =   0.0329218
        k(    5) = (   0.0550834   0.0550834  -0.4957507), wk =   0.0164609
        k(    6) = (   0.0550834   0.1652502   0.1652502), wk =   0.0329218
        k(    7) = (   0.0550834   0.1652502   0.2754171), wk =   0.0658436
        k(    8) = (   0.0550834   0.1652502   0.3855839), wk =   0.0658436
        k(    9) = (   0.0550834   0.1652502  -0.4957507), wk =   0.0329218
        k(   10) = (   0.0550834   0.2754171   0.2754171), wk =   0.0329218
        k(   11) = (   0.0550834   0.2754171   0.3855839), wk =   0.0658436
        k(   12) = (   0.0550834   0.2754171  -0.4957507), wk =   0.0329218
        k(   13) = (   0.0550834   0.3855839   0.3855839), wk =   0.0329218
        k(   14) = (   0.0550834   0.3855839  -0.4957507), wk =   0.0329218
        k(   15) = (   0.0550834  -0.4957507  -0.4957507), wk =   0.0082305
        k(   16) = (   0.1652502   0.1652502   0.1652502), wk =   0.0109739
        k(   17) = (   0.1652502   0.1652502   0.2754171), wk =   0.0329218
        k(   18) = (   0.1652502   0.1652502   0.3855839), wk =   0.0329218
        k(   19) = (   0.1652502   0.1652502  -0.4957507), wk =   0.0164609
        k(   20) = (   0.1652502   0.2754171   0.2754171), wk =   0.0329218
        k(   21) = (   0.1652502   0.2754171   0.3855839), wk =   0.0658436
        k(   22) = (   0.1652502   0.2754171  -0.4957507), wk =   0.0329218
        k(   23) = (   0.1652502   0.3855839   0.3855839), wk =   0.0329218
        k(   24) = (   0.1652502   0.3855839  -0.4957507), wk =   0.0329218
        k(   25) = (   0.1652502  -0.4957507  -0.4957507), wk =   0.0082305
        k(   26) = (   0.2754171   0.2754171   0.2754171), wk =   0.0109739
        k(   27) = (   0.2754171   0.2754171   0.3855839), wk =   0.0329218
        k(   28) = (   0.2754171   0.2754171  -0.4957507), wk =   0.0164609
        k(   29) = (   0.2754171   0.3855839   0.3855839), wk =   0.0329218
        k(   30) = (   0.2754171   0.3855839  -0.4957507), wk =   0.0329218
        k(   31) = (   0.2754171  -0.4957507  -0.4957507), wk =   0.0082305
        k(   32) = (   0.3855839   0.3855839   0.3855839), wk =   0.0109739
        k(   33) = (   0.3855839   0.3855839  -0.4957507), wk =   0.0164609
        k(   34) = (   0.3855839  -0.4957507  -0.4957507), wk =   0.0082305
        k(   35) = (  -0.4957507  -0.4957507  -0.4957507), wk =   0.0013717

     Dense  grid:   191711 G-vectors     FFT dimensions: (  72,  72,  72)

     Smooth grid:   102471 G-vectors     FFT dimensions: (  60,  60,  60)

     Estimated max dynamical RAM per process >     146.47 MB

     Estimated total dynamical RAM >       2.86 GB
     Generating pointlists ...
     new r_m :   0.1801 (alat units)  1.9355 (a.u.) for type    1
     new r_m :   0.1801 (alat units)  1.9355 (a.u.) for type    2

     Check: negative/imaginary core charge=   -0.000009    0.000000

     Initial potential from superposition of free atoms

     starting charge  223.98764, renormalised to  224.00000
     Starting wfcs are  160 randomized atomic wfcs
     Checking if some PAW data can be deallocated... 

     total cpu time spent up to now is        9.3 secs

     Self-consistent Calculation

     iteration #  1     ecut=    71.00 Ry     beta= 0.10
     Davidson diagonalization with overlap
     ethr =  1.00E-02,  avg # of iterations =  3.3

     Threshold (ethr) on eigenvalues was too large:
     Diagonalizing with lowered threshold

     Davidson diagonalization with overlap
     ethr =  7.38E-04,  avg # of iterations =  3.6

     total cpu time spent up to now is       57.2 secs

     total energy              =   -3970.63881182 Ry
     Harris-Foulkes estimate   =   -3970.54609887 Ry
     estimated scf accuracy    <       1.73120278 Ry

     total magnetization       =    -0.00 Bohr mag/cell
     absolute magnetization    =    39.67 Bohr mag/cell

     iteration #  2     ecut=    71.00 Ry     beta= 0.10
     Davidson diagonalization with overlap
     ethr =  7.73E-04,  avg # of iterations =  1.0

     total cpu time spent up to now is       72.9 secs

     total energy              =   -3971.06634908 Ry
     Harris-Foulkes estimate   =   -3970.64890460 Ry
     estimated scf accuracy    <       1.30752234 Ry

     total magnetization       =     0.00 Bohr mag/cell
     absolute magnetization    =    39.73 Bohr mag/cell

     iteration #  3     ecut=    71.00 Ry     beta= 0.10
     Davidson diagonalization with overlap
     ethr =  5.84E-04,  avg # of iterations =  2.9

     total cpu time spent up to now is       97.7 secs

     total energy              =   -3971.29495904 Ry
     Harris-Foulkes estimate   =   -3971.25703909 Ry
     estimated scf accuracy    <       0.30686534 Ry

     total magnetization       =    -0.00 Bohr mag/cell
     absolute magnetization    =    38.61 Bohr mag/cell

     iteration #  4     ecut=    71.00 Ry     beta= 0.10
     Davidson diagonalization with overlap
     ethr =  1.37E-04,  avg # of iterations =  2.3

     total cpu time spent up to now is      116.5 secs

     total energy              =   -3971.30977182 Ry
     Harris-Foulkes estimate   =   -3971.30483996 Ry
     estimated scf accuracy    <       0.44626123 Ry

     total magnetization       =    -0.00 Bohr mag/cell
     absolute magnetization    =    39.00 Bohr mag/cell

     iteration #  5     ecut=    71.00 Ry     beta= 0.10
     Davidson diagonalization with overlap
     ethr =  1.37E-04,  avg # of iterations =  4.8

     total cpu time spent up to now is      147.9 secs

     total energy              =   -3971.43423176 Ry
     Harris-Foulkes estimate   =   -3971.42934723 Ry
     estimated scf accuracy    <       0.03920448 Ry

     total magnetization       =     0.00 Bohr mag/cell
     absolute magnetization    =    32.33 Bohr mag/cell

     iteration #  6     ecut=    71.00 Ry     beta= 0.10
     Davidson diagonalization with overlap
     ethr =  1.75E-05,  avg # of iterations =  3.4

     total cpu time spent up to now is      170.3 secs

     total energy              =   -3971.43229568 Ry
     Harris-Foulkes estimate   =   -3971.43581179 Ry
     estimated scf accuracy    <       0.03529497 Ry

     total magnetization       =     0.00 Bohr mag/cell
     absolute magnetization    =    32.09 Bohr mag/cell

     iteration #  7     ecut=    71.00 Ry     beta= 0.10
     Davidson diagonalization with overlap
     ethr =  1.58E-05,  avg # of iterations =  1.0

     total cpu time spent up to now is      185.9 secs

     total energy              =   -3971.45762156 Ry
     Harris-Foulkes estimate   =   -3971.43257561 Ry
     estimated scf accuracy    <       0.03919167 Ry

     total magnetization       =     0.00 Bohr mag/cell
     absolute magnetization    =    32.24 Bohr mag/cell

     iteration #  8     ecut=    71.00 Ry     beta= 0.10
     Davidson diagonalization with overlap
     ethr =  1.58E-05,  avg # of iterations =  6.4

     total cpu time spent up to now is      225.9 secs

     total energy              =   -3971.49925196 Ry
     Harris-Foulkes estimate   =   -3971.48879516 Ry
     estimated scf accuracy    <       0.02356370 Ry

     total magnetization       =     0.00 Bohr mag/cell
     absolute magnetization    =    27.93 Bohr mag/cell

     iteration #  9     ecut=    71.00 Ry     beta= 0.10
     Davidson diagonalization with overlap
     ethr =  1.05E-05,  avg # of iterations =  4.5

     total cpu time spent up to now is      255.6 secs

     total energy              =   -3971.51273866 Ry
     Harris-Foulkes estimate   =   -3971.50486110 Ry
     estimated scf accuracy    <       0.00831456 Ry

     total magnetization       =     0.00 Bohr mag/cell
     absolute magnetization    =    26.32 Bohr mag/cell

     iteration # 10     ecut=    71.00 Ry     beta= 0.10
     Davidson diagonalization with overlap
     ethr =  3.71E-06,  avg # of iterations =  5.9

     total cpu time spent up to now is      293.7 secs

     total energy              =   -3971.51782292 Ry
     Harris-Foulkes estimate   =   -3971.51920864 Ry
     estimated scf accuracy    <       0.00907166 Ry

     total magnetization       =     0.00 Bohr mag/cell
     absolute magnetization    =    24.23 Bohr mag/cell

     iteration # 11     ecut=    71.00 Ry     beta= 0.10
     Davidson diagonalization with overlap
     ethr =  3.71E-06,  avg # of iterations =  1.0

     total cpu time spent up to now is      309.3 secs

     total energy              =   -3971.51915268 Ry
     Harris-Foulkes estimate   =   -3971.51789581 Ry
     estimated scf accuracy    <       0.00996056 Ry

     total magnetization       =     0.00 Bohr mag/cell
     absolute magnetization    =    24.40 Bohr mag/cell

     iteration # 12     ecut=    71.00 Ry     beta= 0.10
     Davidson diagonalization with overlap
     ethr =  3.71E-06,  avg # of iterations =  5.5

     total cpu time spent up to now is      349.2 secs

     total energy              =   -3971.53449694 Ry
     Harris-Foulkes estimate   =   -3971.53303199 Ry
     estimated scf accuracy    <       0.00271450 Ry

     total magnetization       =    -0.00 Bohr mag/cell
     absolute magnetization    =    21.30 Bohr mag/cell

     iteration # 13     ecut=    71.00 Ry     beta= 0.10
     Davidson diagonalization with overlap
     ethr =  1.21E-06,  avg # of iterations =  4.0

     total cpu time spent up to now is      374.3 secs

     total energy              =   -3971.53153674 Ry
     Harris-Foulkes estimate   =   -3971.53499338 Ry
     estimated scf accuracy    <       0.00241272 Ry

     total magnetization       =     0.00 Bohr mag/cell
     absolute magnetization    =    20.72 Bohr mag/cell

     iteration # 14     ecut=    71.00 Ry     beta= 0.10
     Davidson diagonalization with overlap
     ethr =  1.08E-06,  avg # of iterations =  4.1

     total cpu time spent up to now is      401.3 secs

     total energy              =   -3971.53352740 Ry
     Harris-Foulkes estimate   =   -3971.53250637 Ry
     estimated scf accuracy    <       0.00361414 Ry

     total magnetization       =    -0.00 Bohr mag/cell
     absolute magnetization    =    21.53 Bohr mag/cell

     iteration # 15     ecut=    71.00 Ry     beta= 0.10
     Davidson diagonalization with overlap
     ethr =  1.08E-06,  avg # of iterations =  5.3

     total cpu time spent up to now is      437.4 secs

     total energy              =   -3971.53785676 Ry
     Harris-Foulkes estimate   =   -3971.53698133 Ry
     estimated scf accuracy    <       0.00107352 Ry

     total magnetization       =     0.00 Bohr mag/cell
     absolute magnetization    =    20.02 Bohr mag/cell

     iteration # 16     ecut=    71.00 Ry     beta= 0.10
     Davidson diagonalization with overlap
     ethr =  4.79E-07,  avg # of iterations =  4.6

     total cpu time spent up to now is      469.1 secs

     total energy              =   -3971.53795319 Ry
     Harris-Foulkes estimate   =   -3971.53884898 Ry
     estimated scf accuracy    <       0.00068236 Ry

     total magnetization       =     0.00 Bohr mag/cell
     absolute magnetization    =    19.16 Bohr mag/cell

     iteration # 17     ecut=    71.00 Ry     beta= 0.10
     Davidson diagonalization with overlap
     ethr =  3.05E-07,  avg # of iterations =  4.0

     total cpu time spent up to now is      494.9 secs

     total energy              =   -3971.53851427 Ry
     Harris-Foulkes estimate   =   -3971.53813139 Ry
     estimated scf accuracy    <       0.00083563 Ry

     total magnetization       =     0.00 Bohr mag/cell
     absolute magnetization    =    19.52 Bohr mag/cell

     iteration # 18     ecut=    71.00 Ry     beta= 0.10
     Davidson diagonalization with overlap
     ethr =  3.05E-07,  avg # of iterations =  2.1

     total cpu time spent up to now is      513.2 secs

     total energy              =   -3971.53892387 Ry
     Harris-Foulkes estimate   =   -3971.53857325 Ry
     estimated scf accuracy    <       0.00063660 Ry

     total magnetization       =    -0.00 Bohr mag/cell
     absolute magnetization    =    19.36 Bohr mag/cell

     iteration # 19     ecut=    71.00 Ry     beta= 0.10
     Davidson diagonalization with overlap
     ethr =  2.84E-07,  avg # of iterations =  5.3

     total cpu time spent up to now is      548.6 secs

     total energy              =   -3971.53419257 Ry
     Harris-Foulkes estimate   =   -3971.54031732 Ry
     estimated scf accuracy    <       0.00041890 Ry

     total magnetization       =     0.00 Bohr mag/cell
     absolute magnetization    =    18.33 Bohr mag/cell

     iteration # 20     ecut=    71.00 Ry     beta= 0.10
     Davidson diagonalization with overlap
     ethr =  1.87E-07,  avg # of iterations =  6.0

     total cpu time spent up to now is      600.0 secs

     total energy              =   -3971.54265621 Ry
     Harris-Foulkes estimate   =   -3971.54271548 Ry
     estimated scf accuracy    <       0.00005585 Ry

     total magnetization       =     0.00 Bohr mag/cell
     absolute magnetization    =    15.72 Bohr mag/cell

     iteration # 21     ecut=    71.00 Ry     beta= 0.10
     Davidson diagonalization with overlap
     ethr =  2.49E-08,  avg # of iterations =  5.2

     total cpu time spent up to now is      636.2 secs

     total energy              =   -3971.54273248 Ry
     Harris-Foulkes estimate   =   -3971.54287909 Ry
     estimated scf accuracy    <       0.00002810 Ry

     total magnetization       =     0.00 Bohr mag/cell
     absolute magnetization    =    15.30 Bohr mag/cell

     iteration # 22     ecut=    71.00 Ry     beta= 0.10
     Davidson diagonalization with overlap
     ethr =  1.25E-08,  avg # of iterations =  5.5

     total cpu time spent up to now is      678.4 secs

     total energy              =   -3971.54293346 Ry
     Harris-Foulkes estimate   =   -3971.54299873 Ry
     estimated scf accuracy    <       0.00001620 Ry

     total magnetization       =     0.00 Bohr mag/cell
     absolute magnetization    =    14.83 Bohr mag/cell

     iteration # 23     ecut=    71.00 Ry     beta= 0.10
     Davidson diagonalization with overlap
     ethr =  7.23E-09,  avg # of iterations =  4.9

     total cpu time spent up to now is      712.4 secs

     total energy              =   -3971.54291899 Ry
     Harris-Foulkes estimate   =   -3971.54296864 Ry
     estimated scf accuracy    <       0.00002105 Ry

     total magnetization       =     0.00 Bohr mag/cell
     absolute magnetization    =    15.00 Bohr mag/cell

     iteration # 24     ecut=    71.00 Ry     beta= 0.10
     Davidson diagonalization with overlap
     ethr =  7.23E-09,  avg # of iterations =  5.5

     total cpu time spent up to now is      751.1 secs

     total energy              =   -3971.54303569 Ry
     Harris-Foulkes estimate   =   -3971.54302897 Ry
     estimated scf accuracy    <       0.00001025 Ry

     total magnetization       =     0.00 Bohr mag/cell
     absolute magnetization    =    14.70 Bohr mag/cell

     iteration # 25     ecut=    71.00 Ry     beta= 0.10
     Davidson diagonalization with overlap
     ethr =  4.58E-09,  avg # of iterations =  4.0

     total cpu time spent up to now is      778.6 secs

     total energy              =   -3971.54303565 Ry
     Harris-Foulkes estimate   =   -3971.54304117 Ry
     estimated scf accuracy    <       0.00000677 Ry

     total magnetization       =     0.00 Bohr mag/cell
     absolute magnetization    =    14.64 Bohr mag/cell

     iteration # 26     ecut=    71.00 Ry     beta= 0.10
     Davidson diagonalization with overlap
     ethr =  3.02E-09,  avg # of iterations =  5.1

     total cpu time spent up to now is      815.3 secs

     total energy              =   -3971.54304206 Ry
     Harris-Foulkes estimate   =   -3971.54306007 Ry
     estimated scf accuracy    <       0.00000844 Ry

     total magnetization       =     0.00 Bohr mag/cell
     absolute magnetization    =    14.50 Bohr mag/cell

     iteration # 27     ecut=    71.00 Ry     beta= 0.10
     Davidson diagonalization with overlap
     ethr =  3.02E-09,  avg # of iterations =  4.9

     total cpu time spent up to now is      848.8 secs

     total energy              =   -3971.54269863 Ry
     Harris-Foulkes estimate   =   -3971.54305244 Ry
     estimated scf accuracy    <       0.00000806 Ry

     total magnetization       =     0.00 Bohr mag/cell
     absolute magnetization    =    14.59 Bohr mag/cell

     iteration # 28     ecut=    71.00 Ry     beta= 0.10
     Davidson diagonalization with overlap
     ethr =  3.02E-09,  avg # of iterations =  6.1
 
     Magnetic moment per site:
     atom:    1    charge:   12.2395    magn:    0.8171    constr:    0.0000
     atom:    2    charge:   12.2395    magn:   -0.8173    constr:    0.0000
     atom:    3    charge:   12.2395    magn:    0.8173    constr:    0.0000
     atom:    4    charge:   12.2395    magn:   -0.8173    constr:    0.0000
     atom:    5    charge:   12.2395    magn:    0.8173    constr:    0.0000
     atom:    6    charge:   12.2395    magn:   -0.8173    constr:    0.0000
     atom:    7    charge:   12.2394    magn:    0.8173    constr:    0.0000
     atom:    8    charge:   12.2395    magn:   -0.8173    constr:    0.0000
     atom:    9    charge:   12.2395    magn:    0.8173    constr:    0.0000
     atom:   10    charge:   12.2395    magn:   -0.8173    constr:    0.0000
     atom:   11    charge:   12.2394    magn:    0.8173    constr:    0.0000
     atom:   12    charge:   12.2395    magn:   -0.8173    constr:    0.0000
     atom:   13    charge:   12.2394    magn:    0.8173    constr:    0.0000
     atom:   14    charge:   12.2395    magn:   -0.8173    constr:    0.0000
     atom:   15    charge:   12.2397    magn:    0.8173    constr:    0.0000
     atom:   16    charge:   12.2395    magn:   -0.8173    constr:    0.0000

     total cpu time spent up to now is      903.6 secs

     End of self-consistent calculation

 ------ SPIN UP ------------


          k = 0.0551 0.0551 0.0551 ( 12923 PWs)   bands (ev):

   -53.0528 -53.0107 -53.0106 -53.0106 -52.9953 -52.9952 -52.9952 -52.9807
   -52.1322 -52.1322 -52.1322 -52.1173 -52.1168 -52.1168 -52.1168 -52.1018
   -24.5921 -24.5920 -24.5920 -24.5890 -24.5890 -24.5890 -24.4390 -24.4390
   -24.4390 -24.4133 -24.4088 -24.4088 -24.3735 -24.3735 -24.3685 -24.2761
   -24.2761 -24.2760 -24.2723 -24.2723 -24.2723 -24.2568 -24.2568 -24.2568
   -23.5713 -23.5713 -23.5712 -23.5442 -23.5442 -23.5392 -23.4049 -23.4049
   -23.4049 -23.4020 -23.4020 -23.4020 -23.3905 -23.3905 -23.3905 -23.3789
   -23.3789 -23.3789 -23.3758 -23.3758 -23.3758 -23.3269 -23.3209 -23.3209
    11.3094  14.7142  14.7142  14.7142  14.8235  14.8235  14.8236  14.9078
    14.9078  14.9079  14.9203  14.9203  15.3909  15.3909  15.3910  16.5078
    16.5614  16.5614  16.7133  16.7133  16.7133  16.7284  16.7284  16.7284
    17.0004  17.0005  17.0005  17.1261  17.1261  17.1348  17.6872  17.6872
    17.6872  18.1886  18.1886  18.2400  18.3152  18.3152  18.3152  18.4260
    18.4260  18.4260  18.9436  18.9436  18.9436  19.1951  19.1951  19.1951
    19.5915  19.5915  19.5915  19.7316  19.7317  19.7317  19.9715  19.9715
    19.9716  20.2177  20.2177  20.2177  20.2831  20.2831  20.3228  20.3228
    20.3508  20.3508  20.3508  20.3629  20.3629  20.3629

          k = 0.0551 0.0551 0.1653 ( 12908 PWs)   bands (ev):

   -53.0503 -53.0132 -53.0097 -53.0097 -52.9962 -52.9961 -52.9943 -52.9815
   -52.1313 -52.1313 -52.1312 -52.1182 -52.1177 -52.1177 -52.1159 -52.1027
   -24.5836 -24.5836 -24.5825 -24.5799 -24.5724 -24.5724 -24.4484 -24.4484
   -24.4357 -24.4258 -24.4218 -24.3995 -24.3800 -24.3680 -24.3614 -24.2986
   -24.2986 -24.2815 -24.2789 -24.2719 -24.2719 -24.2661 -24.2578 -24.2578
   -23.5565 -23.5552 -23.5552 -23.5382 -23.5319 -23.5244 -23.4061 -23.4061
   -23.4017 -23.3992 -23.3978 -23.3978 -23.3963 -23.3932 -23.3932 -23.3872
   -23.3871 -23.3856 -23.3845 -23.3760 -23.3760 -23.3428 -23.3255 -23.3243
    11.4429  14.3599  14.7571  14.7571  14.8146  14.8765  14.8765  14.9374
    14.9548  14.9548  14.9885  14.9953  15.4195  15.4195  15.6462  16.3971
    16.5386  16.5387  16.6411  16.6918  16.7054  16.7681  16.7682  16.8140
    16.8140  16.9591  16.9773  16.9774  17.2556  17.2654  17.5354  17.5354
    17.9930  18.1577  18.1580  18.1580  18.1792  18.2535  18.3054  18.4561
    18.5764  18.5764  18.6845  18.6845  19.0306  19.1752  19.1753  19.2857
    19.2857  19.3543  19.4988  19.5113  19.5178  19.5178  19.6273  19.9660
    19.9660  20.1445  20.1445  20.1922  20.2018  20.3020  20.3020  20.3194
    20.3201  20.3267  20.3905  20.3937  20.5128  20.5240

          k = 0.0551 0.0551 0.2754 ( 12849 PWs)   bands (ev):

   -53.0456 -53.0181 -53.0080 -53.0079 -52.9979 -52.9979 -52.9927 -52.9832
   -52.1295 -52.1295 -52.1294 -52.1197 -52.1194 -52.1194 -52.1142 -52.1044
   -24.5664 -24.5664 -24.5640 -24.5621 -24.5412 -24.5412 -24.4660 -24.4660
   -24.4482 -24.4454 -24.4293 -24.3885 -24.3823 -24.3573 -24.3510 -24.3400
   -24.3400 -24.2919 -24.2912 -24.2831 -24.2700 -24.2700 -24.2595 -24.2595
   -23.5288 -23.5276 -23.5275 -23.5229 -23.5100 -23.5018 -23.4208 -23.4064
   -23.4064 -23.4058 -23.4058 -23.4010 -23.3994 -23.3938 -23.3938 -23.3931
   -23.3931 -23.3888 -23.3860 -23.3774 -23.3774 -23.3708 -23.3342 -23.3325
    11.7050  13.7461  14.8347  14.8347  14.9771  14.9772  15.0065  15.0170
    15.0171  15.1237  15.1349  15.1572  15.4337  15.4337  15.7298  16.1916
    16.2545  16.4862  16.5242  16.6536  16.6648  16.6788  16.8896  16.8896
    16.9682  16.9682  17.0022  17.0023  17.4494  17.4494  17.4891  17.5080
    17.9033  17.9033  18.1330  18.1331  18.1640  18.1823  18.1823  18.1850
    18.4016  18.5674  18.5675  18.6937  18.9143  18.9143  19.0124  19.0249
    19.0249  19.0967  19.1412  19.4432  19.4432  19.5875  19.6246  20.0145
    20.0397  20.0397  20.1797  20.1797  20.2217  20.3155  20.3258  20.3336
    20.3656  20.3656  20.3890  20.4494  20.7364  20.7918

          k = 0.0551 0.0551 0.3856 ( 12857 PWs)   bands (ev):

   -53.0392 -53.0246 -53.0056 -53.0056 -53.0003 -53.0002 -52.9905 -52.9854
   -52.1272 -52.1272 -52.1271 -52.1219 -52.1218 -52.1218 -52.1119 -52.1067
   -24.5430 -24.5430 -24.5384 -24.5373 -24.4982 -24.4982 -24.4897 -24.4897
   -24.4770 -24.4755 -24.4206 -24.3990 -24.3920 -24.3920 -24.3592 -24.3426
   -24.3372 -24.3074 -24.3065 -24.3059 -24.2676 -24.2676 -24.2620 -24.2620
   -23.5004 -23.4943 -23.4943 -23.4919 -23.4821 -23.4743 -23.4459 -23.4305
   -23.4305 -23.4244 -23.4204 -23.4078 -23.4042 -23.4042 -23.3978 -23.3978
   -23.3884 -23.3884 -23.3801 -23.3801 -23.3754 -23.3729 -23.3465 -23.3444
    12.0859  13.1341  14.9290  14.9290  15.0452  15.0452  15.1131  15.1131
    15.2719  15.3175  15.3231  15.3813  15.3814  15.4664  15.6660  15.8962
    15.9051  16.2295  16.5328  16.5552  16.6071  16.6164  17.0707  17.0707
    17.1628  17.1628  17.1855  17.1855  17.4765  17.4765  17.6824  17.6825
    17.8098  17.8165  17.8165  17.8288  17.9950  17.9951  18.1175  18.1378
    18.1420  18.1490  18.3459  18.3460  18.5296  18.6456  18.6514  18.8597
    19.0670  19.3628  19.3628  19.6282  19.6283  19.7581  19.8652  19.8870
    19.8870  19.9667  20.0078  20.0078  20.2537  20.3105  20.3120  20.3127
    20.4867  20.5341  20.6137  20.7353  20.7353  20.7435

          k = 0.0551 0.0551-0.4958 ( 12880 PWs)   bands (ev):

   -53.0320 -53.0319 -53.0030 -53.0030 -53.0029 -53.0028 -52.9880 -52.9879
   -52.1247 -52.1246 -52.1246 -52.1244 -52.1243 -52.1242 -52.1094 -52.1091
   -24.5165 -24.5165 -24.5164 -24.5164 -24.5080 -24.5079 -24.5079 -24.5078
   -24.4469 -24.4468 -24.4468 -24.4468 -24.4101 -24.4101 -24.3329 -24.3328
   -24.3254 -24.3253 -24.3217 -24.3217 -24.2649 -24.2649 -24.2649 -24.2649
   -23.4736 -23.4734 -23.4609 -23.4608 -23.4606 -23.4606 -23.4525 -23.4522
   -23.4499 -23.4497 -23.4464 -23.4462 -23.4016 -23.4016 -23.4014 -23.4014
   -23.3839 -23.3839 -23.3838 -23.3838 -23.3609 -23.3606 -23.3584 -23.3582
    12.5697  12.5700  15.0107  15.0107  15.0108  15.0108  15.2607  15.2607
    15.2608  15.2608  15.5098  15.5100  15.5825  15.5827  15.5836  15.5837
    15.8381  15.8385  16.5632  16.5633  16.5733  16.5734  17.2969  17.2969
    17.2970  17.2970  17.4149  17.4149  17.4150  17.4151  17.5635  17.5636
    17.5637  17.5638  17.8919  17.8919  17.8920  17.8920  18.1167  18.1167
    18.1408  18.1409  18.2014  18.2015  18.2132  18.2133  18.6862  18.6863
    19.4356  19.4358  19.6604  19.6604  19.6606  19.6606  19.8180  19.8180
    19.8181  19.8182  20.2259  20.2260  20.2868  20.2869  20.3077  20.3077
    20.3523  20.3525  20.6063  20.6065  20.6383  20.6386

          k = 0.0551 0.1653 0.1653 ( 12881 PWs)   bands (ev):

   -53.0479 -53.0122 -53.0122 -53.0088 -52.9972 -52.9953 -52.9952 -52.9824
   -52.1304 -52.1304 -52.1303 -52.1189 -52.1185 -52.1168 -52.1168 -52.1036
   -24.5785 -24.5746 -24.5746 -24.5638 -24.5638 -24.5529 -24.4563 -24.4455
   -24.4455 -24.4363 -24.4233 -24.4004 -24.3867 -24.3660 -24.3521 -24.3105
   -24.3009 -24.3009 -24.2804 -24.2782 -24.2782 -24.2673 -24.2673 -24.2590
   -23.5442 -23.5441 -23.5414 -23.5358 -23.5225 -23.5070 -23.4132 -23.4077
   -23.4077 -23.4031 -23.4004 -23.4004 -23.3923 -23.3923 -23.3922 -23.3922
   -23.3898 -23.3896 -23.3804 -23.3804 -23.3731 -23.3602 -23.3296 -23.3250
    11.5744  14.4225  14.4225  14.7418  14.8590  14.8590  14.9679  14.9887
    14.9887  15.0104  15.0561  15.0692  15.4610  15.6798  15.6799  16.3141
    16.5004  16.5580  16.6426  16.6426  16.7432  16.7432  16.7844  16.7845
    16.7931  16.9279  16.9366  17.0664  17.1199  17.3192  17.3863  17.7815
    17.7815  18.0791  18.0792  18.0886  18.1227  18.1581  18.3842  18.4125
    18.7213  18.7214  18.7526  18.7526  18.7760  18.8191  19.0240  19.0240
    19.2692  19.2693  19.3055  19.3431  19.4006  19.4006  19.8107  19.8108
    20.0687  20.1570  20.1570  20.1770  20.1817  20.2928  20.2929  20.3247
    20.3255  20.3255  20.3255  20.5691  20.6153  20.6153

          k = 0.0551 0.1653 0.2754 ( 12851 PWs)   bands (ev):

   -53.0434 -53.0169 -53.0103 -53.0070 -52.9991 -52.9970 -52.9936 -52.9841
   -52.1289 -52.1288 -52.1286 -52.1203 -52.1200 -52.1185 -52.1151 -52.1053
   -24.5641 -24.5592 -24.5576 -24.5477 -24.5341 -24.5214 -24.4713 -24.4638
   -24.4552 -24.4413 -24.4397 -24.3972 -24.3866 -24.3564 -24.3447 -24.3413
   -24.3369 -24.3058 -24.2896 -24.2851 -24.2823 -24.2758 -24.2698 -24.2615
   -23.5251 -23.5229 -23.5226 -23.5174 -23.5031 -23.4834 -23.4293 -23.4205
   -23.4182 -23.4170 -23.4062 -23.4047 -23.4002 -23.3917 -23.3909 -23.3901
   -23.3876 -23.3873 -23.3826 -23.3817 -23.3763 -23.3722 -23.3378 -23.3305
    11.8325  13.8278  14.5262  14.7393  14.9387  15.0525  15.0865  15.0888
    15.1074  15.1837  15.2057  15.2122  15.4989  15.6882  15.7738  16.1661
    16.2805  16.4322  16.5473  16.6986  16.7138  16.7332  16.8243  16.8537
    16.8851  16.9245  16.9276  17.1082  17.2670  17.3246  17.4821  17.6382
    17.8257  17.9371  17.9504  18.0133  18.0221  18.0981  18.1309  18.2758
    18.3600  18.4606  18.5457  18.7396  18.7551  18.8093  18.8805  18.8894
    18.9419  19.0828  19.0966  19.4801  19.4891  19.6073  19.6848  19.9119
    20.0410  20.0665  20.1637  20.1851  20.1967  20.2166  20.3180  20.3303
    20.3452  20.3852  20.4510  20.4772  20.6551  20.6894

          k = 0.0551 0.1653 0.3856 ( 12847 PWs)   bands (ev):

   -53.0372 -53.0231 -53.0076 -53.0047 -53.0017 -52.9993 -52.9914 -52.9863
   -52.1268 -52.1268 -52.1262 -52.1222 -52.1221 -52.1209 -52.1128 -52.1076
   -24.5419 -24.5384 -24.5344 -24.5250 -24.4929 -24.4917 -24.4882 -24.4802
   -24.4800 -24.4683 -24.4314 -24.4092 -24.3923 -24.3828 -24.3635 -24.3427
   -24.3299 -24.3142 -24.3093 -24.3040 -24.2801 -24.2731 -24.2725 -24.2649
   -23.5063 -23.4960 -23.4931 -23.4884 -23.4781 -23.4570 -23.4552 -23.4426
   -23.4337 -23.4266 -23.4213 -23.4204 -23.4150 -23.4082 -23.3989 -23.3942
   -23.3821 -23.3773 -23.3770 -23.3742 -23.3739 -23.3684 -23.3493 -23.3408
    12.2068  13.2325  14.6329  14.7360  15.0340  15.1350  15.2186  15.2772
    15.3174  15.3641  15.4068  15.4690  15.5108  15.6089  15.7182  15.9240
    15.9426  16.2289  16.5547  16.6437  16.6449  16.6751  16.9305  17.0085
    17.0393  17.0403  17.1089  17.2369  17.3454  17.4854  17.6246  17.7219
    17.7457  17.7464  17.7694  17.8500  17.9308  17.9508  17.9732  17.9984
    18.0309  18.0987  18.2584  18.3030  18.3718  18.4660  18.6949  18.9438
    19.2281  19.3683  19.4115  19.6412  19.6539  19.7103  19.7459  19.8172
    19.9197  19.9269  20.0171  20.0681  20.2244  20.2989  20.3178  20.3373
    20.3947  20.4452  20.4788  20.5178  20.6539  20.6766

          k = 0.0551 0.1653-0.4958 ( 12868 PWs)   bands (ev):

   -53.0302 -53.0302 -53.0047 -53.0047 -53.0020 -53.0020 -52.9889 -52.9888
   -52.1247 -52.1246 -52.1244 -52.1242 -52.1237 -52.1234 -52.1104 -52.1100
   -24.5154 -24.5154 -24.5150 -24.5150 -24.5075 -24.5075 -24.4976 -24.4976
   -24.4440 -24.4440 -24.4325 -24.4325 -24.4210 -24.4210 -24.3366 -24.3365
   -24.3273 -24.3273 -24.3177 -24.3177 -24.2768 -24.2767 -24.2688 -24.2687
   -23.4820 -23.4819 -23.4686 -23.4683 -23.4593 -23.4590 -23.4581 -23.4579
   -23.4518 -23.4515 -23.4310 -23.4309 -23.4196 -23.4195 -23.3970 -23.3967
   -23.3776 -23.3774 -23.3744 -23.3744 -23.3630 -23.3627 -23.3542 -23.3539
    12.6812  12.6815  14.7063  14.7064  15.1122  15.1123  15.3604  15.3605
    15.4559  15.4560  15.5627  15.5628  15.6225  15.6226  15.6478  15.6480
    15.8730  15.8734  16.5909  16.5909  16.6313  16.6314  17.1606  17.1606
    17.2278  17.2280  17.2446  17.2446  17.2885  17.2886  17.6098  17.6100
    17.6613  17.6614  17.9013  17.9014  17.9205  17.9206  17.9482  17.9482
    17.9827  17.9827  18.0662  18.0662  18.0818  18.0818  18.8448  18.8448
    19.5366  19.5368  19.5749  19.5749  19.7037  19.7038  19.8327  19.8328
    19.8583  19.8584  19.9657  19.9658  20.2656  20.2657  20.2738  20.2739
    20.3548  20.3549  20.5697  20.5698  20.5924  20.5927

          k = 0.0551 0.2754 0.2754 ( 12854 PWs)   bands (ev):

   -53.0392 -53.0146 -53.0146 -53.0053 -53.0014 -52.9954 -52.9953 -52.9857
   -52.1277 -52.1277 -52.1268 -52.1213 -52.1212 -52.1168 -52.1168 -52.1070
   -24.5533 -24.5458 -24.5457 -24.5205 -24.5205 -24.4900 -24.4815 -24.4685
   -24.4589 -24.4589 -24.4424 -24.4109 -24.3850 -24.3616 -24.3490 -24.3324
   -24.3324 -24.3319 -24.2957 -24.2888 -24.2888 -24.2862 -24.2862 -24.2653
   -23.5200 -23.5115 -23.5115 -23.4996 -23.4889 -23.4601 -23.4384 -23.4375
   -23.4375 -23.4289 -23.4172 -23.4172 -23.4128 -23.3912 -23.3906 -23.3906
   -23.3817 -23.3817 -23.3765 -23.3765 -23.3748 -23.3675 -23.3449 -23.3322
    12.0820  13.9763  13.9763  14.6364  15.1347  15.1347  15.2003  15.2634
    15.2936  15.2976  15.2976  15.3643  15.5871  15.7916  15.7916  16.0994
    16.3685  16.3960  16.3960  16.5634  16.7892  16.7892  16.8503  16.8516
    16.8516  16.9457  16.9746  17.1009  17.1153  17.3133  17.5107  17.7149
    17.7149  17.8346  17.8346  17.8529  17.8734  17.9053  17.9654  18.0832
    18.2503  18.2504  18.4860  18.4861  18.4994  18.5911  18.5911  18.7146
    19.2278  19.2278  19.2810  19.5811  19.6000  19.6000  19.7658  19.9443
    19.9443  20.0327  20.1115  20.1116  20.1905  20.2537  20.2537  20.3012
    20.3142  20.3355  20.3493  20.5263  20.5460  20.6040

          k = 0.0551 0.2754 0.3856 ( 12852 PWs)   bands (ev):

   -53.0335 -53.0204 -53.0115 -53.0045 -53.0030 -52.9977 -52.9931 -52.9880
   -52.1262 -52.1262 -52.1245 -52.1228 -52.1227 -52.1192 -52.1145 -52.1093
   -24.5345 -24.5300 -24.5275 -24.5014 -24.4958 -24.4865 -24.4836 -24.4830
   -24.4572 -24.4514 -24.4507 -24.4254 -24.3960 -24.3682 -24.3681 -24.3387
   -24.3295 -24.3232 -24.3143 -24.3000 -24.2995 -24.2935 -24.2815 -24.2703
   -23.5065 -23.4959 -23.4937 -23.4780 -23.4706 -23.4622 -23.4580 -23.4439
   -23.4414 -23.4366 -23.4355 -23.4326 -23.4317 -23.3942 -23.3911 -23.3908
   -23.3790 -23.3746 -23.3713 -23.3708 -23.3658 -23.3631 -23.3549 -23.3388
    12.4425  13.4189  14.1629  14.5113  15.2297  15.2887  15.3973  15.4201
    15.4309  15.4449  15.5725  15.5926  15.6166  15.7242  15.7507  15.9411
    16.0939  16.2253  16.5795  16.6496  16.7082  16.7758  16.7926  16.8743
    16.8973  16.9926  17.0286  17.0682  17.3320  17.4301  17.4689  17.5819
    17.6516  17.6605  17.7148  17.7873  17.7884  17.8097  17.8515  17.9065
    17.9606  18.0264  18.1006  18.1475  18.1796  18.2387  18.8214  18.8704
    19.4284  19.4465  19.5381  19.6253  19.6899  19.7263  19.7447  19.8287
    19.9002  19.9946  20.0005  20.0637  20.0866  20.1655  20.2683  20.2689
    20.3553  20.3734  20.3794  20.4161  20.4843  20.5563

          k = 0.0551 0.2754-0.4958 ( 12840 PWs)   bands (ev):

   -53.0270 -53.0269 -53.0080 -53.0080 -53.0003 -53.0003 -52.9906 -52.9905
   -52.1247 -52.1245 -52.1243 -52.1242 -52.1220 -52.1217 -52.1121 -52.1118
   -24.5126 -24.5125 -24.5101 -24.5100 -24.5069 -24.5069 -24.4791 -24.4791
   -24.4395 -24.4395 -24.4392 -24.4392 -24.4094 -24.4094 -24.3423 -24.3422
   -24.3310 -24.3309 -24.3129 -24.3129 -24.2979 -24.2979 -24.2759 -24.2759
   -23.4863 -23.4863 -23.4777 -23.4776 -23.4696 -23.4695 -23.4570 -23.4567
   -23.4511 -23.4508 -23.4395 -23.4394 -23.4128 -23.4127 -23.3911 -23.3908
   -23.3708 -23.3708 -23.3673 -23.3672 -23.3667 -23.3664 -23.3498 -23.3496
    12.8963  12.8966  14.3509  14.3511  15.2966  15.2967  15.5448  15.5449
    15.5926  15.5927  15.6135  15.6136  15.6860  15.6861  15.8187  15.8188
    15.9320  15.9323  16.6303  16.6303  16.7328  16.7329  16.9556  16.9556
    17.0098  17.0100  17.0470  17.0472  17.2469  17.2469  17.5510  17.5511
    17.6386  17.6387  17.7444  17.7444  17.8632  17.8633  17.8784  17.8784
    17.8886  17.8887  17.9068  17.9068  17.9678  17.9678  18.9401  18.9401
    19.5200  19.5200  19.6827  19.6828  19.7679  19.7679  19.8041  19.8043
    19.8817  19.8817  19.8998  19.8999  20.0863  20.0864  20.2212  20.2213
    20.4111  20.4112  20.4893  20.4895  20.5028  20.5029

          k = 0.0551 0.3856 0.3856 ( 12834 PWs)   bands (ev):

   -53.0284 -53.0167 -53.0167 -53.0082 -53.0007 -52.9954 -52.9954 -52.9902
   -52.1254 -52.1253 -52.1235 -52.1235 -52.1222 -52.1169 -52.1169 -52.1116
   -24.5195 -24.5190 -24.5189 -24.5020 -24.4958 -24.4743 -24.4743 -24.4701
   -24.4701 -24.4515 -24.4437 -24.4176 -24.4097 -24.3641 -24.3530 -24.3530
   -24.3364 -24.3196 -24.3196 -24.3167 -24.3161 -24.2931 -24.2931 -24.2774
   -23.4987 -23.4909 -23.4909 -23.4723 -23.4655 -23.4641 -23.4640 -23.4622
   -23.4609 -23.4503 -23.4414 -23.4414 -23.4142 -23.3878 -23.3819 -23.3819
   -23.3815 -23.3815 -23.3695 -23.3626 -23.3600 -23.3589 -23.3589 -23.3412
    12.7800  13.6719  13.6719  14.2495  15.4443  15.4828  15.4828  15.5507
    15.5645  15.6940  15.6940  15.7305  15.7306  15.7510  15.8006  15.8984
    16.1727  16.3579  16.3579  16.5961  16.7640  16.7640  16.7687  16.8842
    16.8842  16.8896  16.9045  17.0647  17.1549  17.1586  17.4908  17.4909
    17.5161  17.5725  17.5725  17.6377  17.6671  17.7952  17.8337  17.8337
    17.8542  17.9115  17.9116  17.9491  17.9652  18.5159  18.5159  18.9419
    19.5478  19.5663  19.5663  19.7350  19.7673  19.7924  19.7924  19.8391
    19.9382  20.0232  20.0233  20.0722  20.0774  20.0775  20.1403  20.1772
    20.1772  20.2195  20.3498  20.4112  20.4629  20.4903

          k = 0.0551 0.3856-0.4958 ( 12816 PWs)   bands (ev):

   -53.0226 -53.0225 -53.0125 -53.0124 -52.9980 -52.9980 -52.9928 -52.9928
   -52.1246 -52.1245 -52.1243 -52.1242 -52.1197 -52.1194 -52.1144 -52.1141
   -24.5100 -24.5100 -24.5070 -24.5069 -24.4986 -24.4986 -24.4606 -24.4606
   -24.4576 -24.4576 -24.4366 -24.4366 -24.3835 -24.3835 -24.3457 -24.3457
   -24.3413 -24.3413 -24.3222 -24.3222 -24.3055 -24.3054 -24.2854 -24.2854
   -23.4839 -23.4838 -23.4837 -23.4837 -23.4794 -23.4794 -23.4602 -23.4602
   -23.4525 -23.4522 -23.4509 -23.4506 -23.3957 -23.3957 -23.3847 -23.3844
   -23.3734 -23.3734 -23.3719 -23.3716 -23.3576 -23.3575 -23.3482 -23.3482
    13.1990  13.1993  13.9604  13.9606  15.5173  15.5174  15.6581  15.6583
    15.6669  15.6670  15.7336  15.7337  15.7728  15.7729  15.9830  15.9832
    16.0695  16.0697  16.6512  16.6513  16.6940  16.6942  16.7705  16.7706
    16.8356  16.8357  16.9019  16.9021  17.3011  17.3011  17.3296  17.3297
    17.4157  17.4158  17.5582  17.5582  17.7388  17.7390  17.7801  17.7802
    17.8492  17.8492  17.8831  17.8831  18.1753  18.1754  18.7895  18.7896
    19.5355  19.5355  19.7374  19.7374  19.8556  19.8556  19.9368  19.9368
    19.9594  19.9596  19.9596  19.9596  19.9658  19.9658  20.1525  20.1526
    20.3217  20.3217  20.3308  20.3311  20.4266  20.4268

          k = 0.0551-0.4958-0.4958 ( 12808 PWs)   bands (ev):

   -53.0176 -53.0176 -53.0175 -53.0174 -52.9955 -52.9955 -52.9954 -52.9953
   -52.1246 -52.1245 -52.1243 -52.1242 -52.1171 -52.1170 -52.1168 -52.1166
   -24.5081 -24.5081 -24.5080 -24.5079 -24.4814 -24.4814 -24.4814 -24.4814
   -24.4414 -24.4413 -24.4413 -24.4413 -24.3596 -24.3596 -24.3595 -24.3595
   -24.3404 -24.3403 -24.3403 -24.3403 -24.2959 -24.2958 -24.2957 -24.2957
   -23.4846 -23.4846 -23.4846 -23.4846 -23.4745 -23.4745 -23.4744 -23.4744
   -23.4516 -23.4515 -23.4513 -23.4512 -23.3820 -23.3820 -23.3820 -23.3820
   -23.3782 -23.3781 -23.3779 -23.3778 -23.3508 -23.3508 -23.3508 -23.3508
    13.5645  13.5646  13.5647  13.5648  15.6831  15.6832  15.6833  15.6833
    15.6885  15.6885  15.6886  15.6887  15.9495  15.9496  15.9496  15.9497
    16.3707  16.3708  16.3709  16.3710  16.6708  16.6708  16.6709  16.6709
    16.8489  16.8490  16.8490  16.8491  17.2795  17.2796  17.2796  17.2797
    17.4071  17.4071  17.4071  17.4071  17.7119  17.7120  17.7121  17.7121
    17.8399  17.8400  17.8400  17.8400  18.4899  18.4899  18.4899  18.4899
    19.6319  19.6319  19.6319  19.6320  19.9843  19.9844  19.9844  19.9844
    20.0511  20.0511  20.0511  20.0511  20.0627  20.0628  20.0628  20.0628
    20.1461  20.1462  20.1463  20.1464  20.4006  20.4007

          k = 0.1653 0.1653 0.1653 ( 12875 PWs)   bands (ev):

   -53.0456 -53.0112 -53.0111 -53.0111 -52.9963 -52.9963 -52.9963 -52.9833
   -52.1296 -52.1296 -52.1296 -52.1195 -52.1176 -52.1176 -52.1176 -52.1045
   -24.5692 -24.5692 -24.5692 -24.5463 -24.5463 -24.5463 -24.4533 -24.4533
   -24.4533 -24.4442 -24.4131 -24.4131 -24.3807 -24.3807 -24.3398 -24.3096
   -24.3096 -24.3095 -24.2875 -24.2874 -24.2874 -24.2691 -24.2690 -24.2690
   -23.5328 -23.5328 -23.5327 -23.5240 -23.5240 -23.4909 -23.4172 -23.4172
   -23.4172 -23.4073 -23.4073 -23.4073 -23.3895 -23.3895 -23.3894 -23.3846
   -23.3846 -23.3846 -23.3815 -23.3814 -23.3814 -23.3753 -23.3298 -23.3298
    11.7042  14.4911  14.4911  14.4912  14.8505  14.8505  14.8506  15.0741
    15.0741  15.0741  15.1326  15.1326  15.7302  15.7302  15.7302  16.2510
    16.5478  16.5478  16.6241  16.6242  16.6242  16.7684  16.7685  16.7685
    16.8871  16.8871  16.8871  17.0852  17.1790  17.1790  17.6057  17.6057
    17.6057  18.0190  18.0190  18.0191  18.0702  18.0702  18.5098  18.5098
    18.5098  18.5280  18.6729  18.6730  18.6730  18.9086  18.9086  18.9086
    19.0405  19.0405  19.0405  19.4765  19.4765  19.4765  20.0212  20.0212
    20.0212  20.0890  20.0890  20.0890  20.2192  20.2192  20.3006  20.3006
    20.3007  20.3281  20.3281  20.5470  20.5471  20.5471

          k = 0.1653 0.1653 0.2754 ( 12866 PWs)   bands (ev):

   -53.0412 -53.0157 -53.0093 -53.0092 -52.9982 -52.9982 -52.9946 -52.9850
   -52.1282 -52.1280 -52.1280 -52.1208 -52.1191 -52.1191 -52.1159 -52.1062
   -24.5556 -24.5556 -24.5514 -24.5337 -24.5167 -24.5166 -24.4683 -24.4683
   -24.4580 -24.4474 -24.4360 -24.3962 -24.3946 -24.3695 -24.3402 -24.3402
   -24.3289 -24.3089 -24.3004 -24.2888 -24.2888 -24.2877 -24.2723 -24.2723
   -23.5178 -23.5161 -23.5131 -23.5131 -23.5028 -23.4697 -23.4373 -23.4297
   -23.4297 -23.4119 -23.4119 -23.4001 -23.3975 -23.3965 -23.3960 -23.3960
   -23.3955 -23.3783 -23.3783 -23.3771 -23.3771 -23.3754 -23.3390 -23.3335
    11.9588  13.9133  14.6066  14.6066  14.8524  14.8524  15.0574  15.2103
    15.2103  15.2580  15.2746  15.2791  15.7671  15.7671  15.8387  16.1498
    16.2855  16.4853  16.5488  16.6593  16.6593  16.7242  16.8170  16.8551
    16.8551  16.8783  17.0459  17.0459  17.2287  17.3754  17.4487  17.4487
    17.7676  17.8431  17.8431  17.9271  17.9797  18.0363  18.2071  18.2071
    18.2217  18.2217  18.4762  18.6012  18.6013  18.6395  18.6738  18.6756
    19.0952  19.1759  19.1759  19.5684  19.5685  19.7162  19.8266  19.9644
    19.9644  20.0758  20.1366  20.2186  20.2186  20.2986  20.3194  20.3194
    20.3220  20.3372  20.3513  20.3523  20.5009  20.6068

          k = 0.1653 0.1653 0.3856 ( 12863 PWs)   bands (ev):

   -53.0353 -53.0217 -53.0067 -53.0066 -53.0008 -53.0008 -52.9924 -52.9872
   -52.1264 -52.1260 -52.1260 -52.1224 -52.1212 -52.1212 -52.1137 -52.1085
   -24.5355 -24.5355 -24.5264 -24.5165 -24.4888 -24.4888 -24.4773 -24.4773
   -24.4763 -24.4652 -24.4380 -24.4117 -24.3838 -24.3837 -24.3698 -24.3541
   -24.3199 -24.3173 -24.3130 -24.3098 -24.2857 -24.2857 -24.2767 -24.2767
   -23.5037 -23.4917 -23.4893 -23.4893 -23.4760 -23.4606 -23.4470 -23.4455
   -23.4455 -23.4302 -23.4201 -23.4134 -23.4134 -23.4080 -23.4049 -23.4048
   -23.3822 -23.3739 -23.3739 -23.3735 -23.3735 -23.3639 -23.3517 -23.3413
    12.3274  13.3331  14.7282  14.7282  14.8495  14.8495  15.3392  15.3787
    15.3788  15.4423  15.4591  15.5676  15.7061  15.7061  15.7959  15.9511
    15.9651  16.2569  16.5718  16.6692  16.6988  16.7383  16.8424  16.8425
    16.9949  16.9949  17.2283  17.2283  17.3319  17.3319  17.4731  17.6292
    17.7053  17.7053  17.7490  17.7491  17.8678  17.8771  17.9104  17.9304
    17.9305  17.9908  18.1584  18.1584  18.2116  18.2124  18.8185  18.8454
    19.3494  19.4535  19.4535  19.6873  19.6873  19.6879  19.8227  19.8227
    19.8715  19.9956  20.0326  20.0659  20.0660  20.1967  20.2974  20.3560
    20.4076  20.4415  20.4448  20.5859  20.5859  20.6839

          k = 0.1653 0.1653-0.4958 ( 12848 PWs)   bands (ev):

   -53.0286 -53.0285 -53.0038 -53.0038 -53.0037 -53.0036 -52.9898 -52.9898
   -52.1246 -52.1243 -52.1238 -52.1237 -52.1234 -52.1234 -52.1112 -52.1109
   -24.5122 -24.5122 -24.5122 -24.5122 -24.4967 -24.4967 -24.4966 -24.4965
   -24.4315 -24.4315 -24.4314 -24.4314 -24.4260 -24.4259 -24.3415 -24.3414
   -24.3360 -24.3359 -24.3134 -24.3134 -24.2814 -24.2814 -24.2813 -24.2813
   -23.4837 -23.4837 -23.4658 -23.4658 -23.4656 -23.4656 -23.4621 -23.4620
   -23.4474 -23.4471 -23.4257 -23.4257 -23.4112 -23.4111 -23.4110 -23.4110
   -23.3723 -23.3723 -23.3723 -23.3723 -23.3669 -23.3665 -23.3520 -23.3518
    12.7934  12.7936  14.8140  14.8140  14.8142  14.8142  15.5571  15.5571
    15.5571  15.5572  15.6496  15.6498  15.6570  15.6571  15.6803  15.6805
    15.9123  15.9126  16.6147  16.6148  16.6807  16.6808  17.1290  17.1291
    17.1291  17.1291  17.1933  17.1933  17.1934  17.1934  17.6254  17.6254
    17.6255  17.6255  17.8132  17.8132  17.8533  17.8533  17.8533  17.8533
    17.8733  17.8733  17.9172  17.9173  17.9361  17.9361  18.9078  18.9078
    19.6211  19.6212  19.6666  19.6666  19.6667  19.6667  19.7336  19.7337
    19.8655  19.8655  19.8655  19.8655  20.2536  20.2537  20.3899  20.3900
    20.3990  20.3992  20.5372  20.5373  20.5648  20.5650

          k = 0.1653 0.2754 0.2754 ( 12838 PWs)   bands (ev):

   -53.0372 -53.0135 -53.0134 -53.0074 -53.0005 -52.9965 -52.9965 -52.9867
   -52.1271 -52.1270 -52.1265 -52.1216 -52.1203 -52.1175 -52.1175 -52.1079
   -24.5445 -24.5394 -24.5394 -24.5076 -24.5075 -24.4878 -24.4773 -24.4658
   -24.4618 -24.4618 -24.4356 -24.4045 -24.3968 -24.3696 -24.3547 -24.3339
   -24.3339 -24.3197 -24.3034 -24.3001 -24.3000 -24.2924 -24.2923 -24.2770
   -23.5091 -23.5037 -23.5037 -23.4966 -23.4904 -23.4514 -23.4452 -23.4452
   -23.4433 -23.4224 -23.4204 -23.4064 -23.4064 -23.4006 -23.4006 -23.3934
   -23.3861 -23.3861 -23.3755 -23.3720 -23.3705 -23.3705 -23.3456 -23.3375
    12.2058  14.0695  14.0695  14.7458  14.7548  15.0687  15.0687  15.3644
    15.3745  15.4067  15.4067  15.4182  15.8712  15.8880  15.8880  16.1133
    16.3684  16.3685  16.4597  16.5741  16.6120  16.8010  16.8010  16.9154
    16.9416  16.9416  16.9431  17.0423  17.2231  17.2752  17.3710  17.5836
    17.5836  17.7375  17.7700  17.7700  17.8307  17.8757  17.9656  18.0210
    18.0659  18.0660  18.2764  18.2765  18.2931  18.3741  18.3741  18.8237
    19.3327  19.3327  19.3644  19.6807  19.7448  19.7448  19.8475  19.9984
    20.0532  20.0532  20.0825  20.1171  20.1172  20.1976  20.2595  20.2595
    20.2660  20.3149  20.3538  20.5025  20.5243  20.5558

          k = 0.1653 0.2754 0.3856 ( 12860 PWs)   bands (ev):

   -53.0317 -53.0190 -53.0104 -53.0048 -53.0035 -52.9990 -52.9942 -52.9890
   -52.1257 -52.1255 -52.1244 -52.1229 -52.1219 -52.1196 -52.1152 -52.1101
   -24.5266 -24.5237 -24.5178 -24.4947 -24.4907 -24.4819 -24.4781 -24.4716
   -24.4544 -24.4515 -24.4512 -24.4208 -24.3877 -24.3774 -24.3699 -24.3579
   -24.3319 -24.3193 -24.3149 -24.3111 -24.3072 -24.2982 -24.2956 -24.2831
   -23.4981 -23.4887 -23.4886 -23.4777 -23.4689 -23.4640 -23.4576 -23.4520
   -23.4446 -23.4322 -23.4291 -23.4235 -23.4191 -23.4020 -23.3987 -23.3965
   -23.3865 -23.3774 -23.3713 -23.3699 -23.3679 -23.3610 -23.3572 -23.3431
    12.5622  13.5236  14.2664  14.6303  14.8998  15.0659  15.3658  15.5306
    15.5328  15.5704  15.6176  15.6764  15.8304  15.8545  15.8744  15.9811
    16.0929  16.2745  16.6029  16.6089  16.7050  16.7322  16.7928  16.8293
    16.9130  17.0304  17.0589  17.1575  17.2038  17.3468  17.3915  17.5111
    17.5124  17.5931  17.6550  17.6600  17.6843  17.7704  17.7725  17.8258
    17.8259  17.8998  17.9349  17.9605  17.9748  18.0577  18.5751  18.9026
    19.5387  19.5615  19.6028  19.7402  19.7444  19.7707  19.7908  19.8806
    19.9524  19.9550  20.0207  20.0946  20.1007  20.1481  20.2838  20.3476
    20.3510  20.3847  20.4325  20.4990  20.5428  20.6082

          k = 0.1653 0.2754-0.4958 ( 12854 PWs)   bands (ev):

   -53.0254 -53.0253 -53.0070 -53.0069 -53.0020 -53.0019 -52.9916 -52.9916
   -52.1245 -52.1241 -52.1238 -52.1235 -52.1221 -52.1218 -52.1128 -52.1125
   -24.5067 -24.5067 -24.5045 -24.5045 -24.4955 -24.4954 -24.4771 -24.4771
   -24.4374 -24.4374 -24.4298 -24.4298 -24.4106 -24.4105 -24.3491 -24.3491
   -24.3426 -24.3426 -24.3136 -24.3136 -24.3040 -24.3039 -24.2896 -24.2896
   -23.4826 -23.4826 -23.4728 -23.4727 -23.4684 -23.4683 -23.4615 -23.4613
   -23.4453 -23.4450 -23.4289 -23.4288 -23.4142 -23.4142 -23.4005 -23.4002
   -23.3717 -23.3717 -23.3715 -23.3711 -23.3684 -23.3683 -23.3513 -23.3511
    13.0098  13.0101  14.4643  14.4645  15.0154  15.0155  15.6971  15.6972
    15.6995  15.6996  15.7091  15.7093  15.7445  15.7446  15.8448  15.8450
    15.9850  15.9852  16.6597  16.6597  16.7563  16.7564  16.9301  16.9303
    16.9609  16.9611  17.0722  17.0723  17.2013  17.2013  17.4998  17.4998
    17.5092  17.5093  17.7000  17.7000  17.7101  17.7101  17.7202  17.7202
    17.7531  17.7532  17.7948  17.7948  17.8302  17.8302  18.7950  18.7950
    19.6707  19.6707  19.7092  19.7092  19.7700  19.7701  19.8211  19.8213
    19.9172  19.9172  19.9179  19.9179  20.2269  20.2270  20.3364  20.3366
    20.4284  20.4284  20.4782  20.4784  20.4930  20.4932

          k = 0.1653 0.3856 0.3856 ( 12839 PWs)   bands (ev):

   -53.0267 -53.0154 -53.0154 -53.0071 -53.0023 -52.9967 -52.9967 -52.9913
   -52.1249 -52.1248 -52.1234 -52.1228 -52.1222 -52.1174 -52.1174 -52.1123
   -24.5112 -24.5091 -24.5091 -24.4945 -24.4846 -24.4702 -24.4702 -24.4634
   -24.4634 -24.4479 -24.4367 -24.4195 -24.4012 -24.3749 -24.3561 -24.3561
   -24.3535 -24.3262 -24.3262 -24.3252 -24.3145 -24.3070 -24.3070 -24.2913
   -23.4890 -23.4839 -23.4838 -23.4682 -23.4639 -23.4631 -23.4631 -23.4604
   -23.4583 -23.4427 -23.4333 -23.4332 -23.4159 -23.3922 -23.3891 -23.3891
   -23.3866 -23.3866 -23.3708 -23.3671 -23.3656 -23.3606 -23.3606 -23.3470
    12.8980  13.7823  13.7824  14.3695  15.1049  15.3603  15.3603  15.6410
    15.6681  15.8242  15.8242  15.8361  15.8362  15.8401  15.9223  16.0174
    16.2292  16.3575  16.3575  16.6234  16.6267  16.7978  16.7978  16.9095
    16.9095  16.9111  16.9936  17.0227  17.0471  17.1351  17.4361  17.4434
    17.4434  17.4621  17.4621  17.4960  17.6303  17.6644  17.6982  17.6983
    17.7133  17.7342  17.7343  17.8009  17.8188  18.2508  18.2508  18.7756
    19.7164  19.7258  19.7258  19.7295  19.7955  19.9097  19.9157  19.9157
    19.9940  20.0856  20.0856  20.0895  20.1971  20.1971  20.2025  20.2026
    20.2469  20.3254  20.4218  20.4352  20.4628  20.5091

          k = 0.1653 0.3856-0.4958 ( 12846 PWs)   bands (ev):

   -53.0211 -53.0211 -53.0113 -53.0113 -52.9995 -52.9995 -52.9940 -52.9940
   -52.1243 -52.1240 -52.1239 -52.1236 -52.1200 -52.1196 -52.1150 -52.1147
   -24.5010 -24.5010 -24.4952 -24.4952 -24.4914 -24.4914 -24.4545 -24.4545
   -24.4537 -24.4537 -24.4292 -24.4292 -24.3865 -24.3865 -24.3547 -24.3547
   -24.3497 -24.3497 -24.3303 -24.3303 -24.3143 -24.3143 -24.2998 -24.2998
   -23.4771 -23.4770 -23.4764 -23.4764 -23.4743 -23.4742 -23.4583 -23.4582
   -23.4463 -23.4460 -23.4449 -23.4447 -23.3999 -23.3999 -23.3906 -23.3903
   -23.3767 -23.3767 -23.3766 -23.3763 -23.3630 -23.3630 -23.3532 -23.3531
    13.3142  13.3144  14.0768  14.0770  15.2762  15.2764  15.6812  15.6813
    15.7558  15.7560  15.7719  15.7720  15.9745  15.9745  16.0784  16.0786
    16.0956  16.0958  16.6799  16.6800  16.6933  16.6935  16.7374  16.7375
    16.8428  16.8428  16.9507  16.9508  17.2045  17.2046  17.2628  17.2629
    17.3308  17.3309  17.5186  17.5186  17.5862  17.5863  17.6524  17.6525
    17.6989  17.6989  17.7472  17.7472  17.9405  17.9405  18.5083  18.5083
    19.7470  19.7471  19.8625  19.8626  19.9537  19.9537  19.9885  19.9885
    20.0025  20.0027  20.0096  20.0096  20.1643  20.1644  20.1809  20.1810
    20.3503  20.3505  20.4113  20.4114  20.4633  20.4635

          k = 0.1653-0.4958-0.4958 ( 12808 PWs)   bands (ev):

   -53.0163 -53.0163 -53.0162 -53.0161 -52.9968 -52.9968 -52.9967 -52.9966
   -52.1242 -52.1240 -52.1238 -52.1237 -52.1176 -52.1174 -52.1172 -52.1171
   -24.4970 -24.4969 -24.4968 -24.4968 -24.4739 -24.4739 -24.4738 -24.4738
   -24.4355 -24.4355 -24.4354 -24.4354 -24.3646 -24.3646 -24.3645 -24.3645
   -24.3500 -24.3500 -24.3499 -24.3499 -24.3094 -24.3094 -24.3093 -24.3092
   -23.4776 -23.4775 -23.4775 -23.4775 -23.4659 -23.4659 -23.4659 -23.4659
   -23.4485 -23.4483 -23.4482 -23.4480 -23.3866 -23.3866 -23.3866 -23.3865
   -23.3828 -23.3826 -23.3824 -23.3823 -23.3573 -23.3573 -23.3573 -23.3573
    13.6810  13.6811  13.6813  13.6814  15.5295  15.5296  15.5297  15.5297
    15.7850  15.7851  15.7851  15.7852  16.1212  16.1213  16.1213  16.1214
    16.3902  16.3903  16.3904  16.3905  16.6554  16.6554  16.6555  16.6556
    16.8789  16.8789  16.8789  16.8790  17.1682  17.1683  17.1683  17.1684
    17.3695  17.3695  17.3695  17.3695  17.5774  17.5775  17.5775  17.5776
    17.6976  17.6976  17.6977  17.6977  18.2010  18.2010  18.2010  18.2010
    19.8782  19.8783  19.8783  19.8783  20.0316  20.0316  20.0316  20.0316
    20.1069  20.1070  20.1070  20.1071  20.1854  20.1855  20.1856  20.1857
    20.2353  20.2353  20.2353  20.2353  20.3926  20.3928

          k = 0.2754 0.2754 0.2754 ( 12857 PWs)   bands (ev):

   -53.0334 -53.0113 -53.0112 -53.0112 -52.9987 -52.9987 -52.9987 -52.9885
   -52.1258 -52.1258 -52.1258 -52.1222 -52.1187 -52.1187 -52.1187 -52.1095
   -24.5275 -24.5274 -24.5274 -24.4836 -24.4836 -24.4836 -24.4687 -24.4686
   -24.4686 -24.4653 -24.4182 -24.4182 -24.3925 -24.3925 -24.3431 -24.3431
   -24.3431 -24.3176 -24.3176 -24.3176 -24.3136 -24.2989 -24.2989 -24.2989
   -23.4904 -23.4904 -23.4904 -23.4894 -23.4894 -23.4522 -23.4522 -23.4522
   -23.4390 -23.4341 -23.4105 -23.4105 -23.4104 -23.3982 -23.3982 -23.3982
   -23.3907 -23.3907 -23.3907 -23.3673 -23.3673 -23.3672 -23.3475 -23.3475
    12.4475  14.2410  14.2410  14.2410  14.9834  14.9834  14.9835  15.5242
    15.5242  15.5558  15.5558  15.5559  16.0293  16.0293  16.0293  16.1263
    16.3554  16.3555  16.3555  16.6022  16.6022  16.6539  16.8603  16.8603
    16.8603  17.0740  17.0740  17.0740  17.1620  17.1620  17.4222  17.4222
    17.4222  17.6373  17.6373  17.6374  17.7459  17.7459  17.7459  17.8198
    17.8198  17.9695  17.9695  17.9696  18.0913  18.0913  18.0913  18.8910
    19.5105  19.5105  19.5105  19.7361  19.8740  19.8740  19.8740  19.9843
    19.9843  19.9843  20.1719  20.1719  20.2398  20.2398  20.2399  20.3449
    20.3449  20.3790  20.3790  20.3791  20.5159  20.5159

          k = 0.2754 0.2754 0.3856 ( 12848 PWs)   bands (ev):

   -53.0282 -53.0165 -53.0083 -53.0083 -53.0017 -53.0016 -52.9963 -52.9909
   -52.1249 -52.1242 -52.1242 -52.1230 -52.1204 -52.1204 -52.1166 -52.1116
   -24.5117 -24.5117 -24.5037 -24.4798 -24.4798 -24.4783 -24.4681 -24.4550
   -24.4508 -24.4508 -24.4459 -24.4154 -24.3918 -24.3757 -24.3737 -24.3737
   -24.3360 -24.3303 -24.3279 -24.3198 -24.3198 -24.3137 -24.3068 -24.3068
   -23.4841 -23.4802 -23.4757 -23.4756 -23.4643 -23.4635 -23.4577 -23.4577
   -23.4504 -23.4265 -23.4163 -23.4163 -23.4120 -23.4068 -23.4067 -23.4054
   -23.3947 -23.3816 -23.3816 -23.3681 -23.3681 -23.3613 -23.3613 -23.3508
    12.7949  13.7224  14.4596  14.4597  14.8597  14.8598  15.3042  15.6784
    15.7166  15.7256  15.7256  15.8134  16.0217  16.0288  16.0288  16.0340
    16.1044  16.3307  16.5286  16.5287  16.6510  16.7414  16.7901  16.9106
    16.9608  16.9608  17.0728  17.1672  17.1672  17.2679  17.2679  17.3128
    17.4298  17.4298  17.5184  17.5184  17.5448  17.5920  17.6149  17.6233
    17.6945  17.7060  17.7061  17.7431  17.8168  17.8168  18.2395  18.7503
    19.6887  19.7212  19.7212  19.7233  19.9267  19.9268  19.9321  19.9321
    20.0371  20.1287  20.1381  20.1381  20.1482  20.1566  20.2929  20.3077
    20.3296  20.3921  20.4926  20.5293  20.5293  20.5581

          k = 0.2754 0.2754-0.4958 ( 12848 PWs)   bands (ev):

   -53.0224 -53.0224 -53.0050 -53.0050 -53.0050 -53.0049 -52.9936 -52.9936
   -52.1241 -52.1238 -52.1224 -52.1224 -52.1221 -52.1221 -52.1143 -52.1139
   -24.4949 -24.4949 -24.4949 -24.4949 -24.4756 -24.4756 -24.4728 -24.4727
   -24.4369 -24.4369 -24.4126 -24.4126 -24.4125 -24.4125 -24.3602 -24.3602
   -24.3562 -24.3562 -24.3197 -24.3197 -24.3145 -24.3145 -24.3144 -24.3144
   -23.4749 -23.4749 -23.4667 -23.4666 -23.4643 -23.4643 -23.4642 -23.4642
   -23.4376 -23.4373 -23.4152 -23.4151 -23.4149 -23.4149 -23.4148 -23.4148
   -23.3779 -23.3775 -23.3732 -23.3732 -23.3731 -23.3731 -23.3556 -23.3555
    13.2288  13.2290  14.6801  14.6802  14.6803  14.6804  15.6822  15.6824
    15.8747  15.8748  15.8951  15.8951  15.8952  15.8952  15.9077  15.9079
    16.0897  16.0899  16.7165  16.7166  16.7860  16.7860  16.8568  16.8568
    16.8569  16.8570  17.1208  17.1208  17.1209  17.1209  17.2871  17.2871
    17.4733  17.4734  17.4742  17.4743  17.4743  17.4743  17.6134  17.6135
    17.6165  17.6165  17.6165  17.6165  17.6506  17.6507  18.4804  18.4804
    19.8711  19.8712  19.8879  19.8879  19.8880  19.8880  19.9079  19.9080
    19.9827  19.9827  19.9827  19.9828  20.2375  20.2376  20.4330  20.4332
    20.4480  20.4480  20.4687  20.4689  20.4818  20.4819

          k = 0.2754 0.3856 0.3856 ( 12853 PWs)   bands (ev):

   -53.0236 -53.0130 -53.0130 -53.0055 -53.0051 -52.9991 -52.9991 -52.9934
   -52.1239 -52.1239 -52.1232 -52.1224 -52.1214 -52.1183 -52.1183 -52.1137
   -24.4954 -24.4920 -24.4920 -24.4799 -24.4651 -24.4638 -24.4637 -24.4500
   -24.4500 -24.4395 -24.4235 -24.4232 -24.3944 -24.3863 -24.3777 -24.3611
   -24.3610 -24.3409 -24.3377 -24.3377 -24.3323 -24.3323 -24.3194 -24.3170
   -23.4716 -23.4715 -23.4711 -23.4612 -23.4611 -23.4594 -23.4594 -23.4579
   -23.4534 -23.4291 -23.4204 -23.4204 -23.4185 -23.4005 -23.4004 -23.4002
   -23.3949 -23.3949 -23.3812 -23.3731 -23.3700 -23.3657 -23.3657 -23.3583
    13.1269  13.9929  13.9930  14.6012  14.7121  15.1803  15.1803  15.8091
    15.8660  15.8958  15.9169  15.9825  15.9825  16.0390  16.0391  16.2366
    16.3352  16.3501  16.3501  16.4722  16.6760  16.7985  16.8633  16.8633
    16.9483  16.9667  16.9667  17.0009  17.1031  17.1373  17.2500  17.2970
    17.2970  17.3487  17.3608  17.3608  17.3791  17.4543  17.4544  17.4969
    17.4969  17.5428  17.5616  17.5970  17.6376  17.9057  17.9057  18.4381
    19.8628  19.8629  19.8940  19.9191  19.9613  20.0591  20.0829  20.1202
    20.1202  20.1396  20.1396  20.1403  20.2312  20.2312  20.2765  20.3015
    20.4148  20.4485  20.4485  20.4598  20.5073  20.5073

          k = 0.2754 0.3856-0.4958 ( 12862 PWs)   bands (ev):

   -53.0183 -53.0183 -53.0091 -53.0090 -53.0023 -53.0023 -52.9963 -52.9962
   -52.1237 -52.1234 -52.1228 -52.1225 -52.1205 -52.1202 -52.1162 -52.1158
   -24.4839 -24.4838 -24.4781 -24.4781 -24.4729 -24.4729 -24.4470 -24.4470
   -24.4437 -24.4437 -24.4158 -24.4157 -24.3921 -24.3921 -24.3703 -24.3702
   -24.3656 -24.3656 -24.3446 -24.3445 -24.3295 -24.3295 -24.3265 -24.3264
   -23.4654 -23.4654 -23.4652 -23.4651 -23.4637 -23.4636 -23.4544 -23.4543
   -23.4367 -23.4364 -23.4317 -23.4315 -23.4080 -23.4080 -23.4015 -23.4012
   -23.3843 -23.3840 -23.3826 -23.3825 -23.3734 -23.3734 -23.3628 -23.3627
    13.5362  13.5364  14.3001  14.3003  14.9726  14.9728  15.5545  15.5547
    15.9398  15.9399  15.9735  15.9736  16.1452  16.1454  16.1571  16.1572
    16.2363  16.2364  16.6863  16.6864  16.7062  16.7064  16.7366  16.7367
    16.8481  16.8481  17.0223  17.0224  17.0637  17.0637  17.1942  17.1942
    17.2354  17.2354  17.3226  17.3227  17.4470  17.4470  17.4509  17.4510
    17.4651  17.4651  17.5502  17.5502  17.6179  17.6179  18.1269  18.1269
    19.9960  19.9961  20.0073  20.0074  20.0707  20.0709  20.0730  20.0731
    20.1144  20.1144  20.1936  20.1936  20.2372  20.2373  20.3820  20.3822
    20.3905  20.3907  20.4268  20.4269  20.4686  20.4686

          k = 0.2754-0.4958-0.4958 ( 12832 PWs)   bands (ev):

   -53.0138 -53.0138 -53.0137 -53.0136 -52.9994 -52.9994 -52.9992 -52.9992
   -52.1233 -52.1232 -52.1230 -52.1229 -52.1184 -52.1183 -52.1181 -52.1179
   -24.4756 -24.4756 -24.4755 -24.4755 -24.4593 -24.4593 -24.4593 -24.4593
   -24.4246 -24.4246 -24.4245 -24.4245 -24.3747 -24.3747 -24.3746 -24.3746
   -24.3676 -24.3676 -24.3675 -24.3675 -24.3340 -24.3339 -24.3338 -24.3338
   -23.4650 -23.4650 -23.4650 -23.4650 -23.4502 -23.4502 -23.4501 -23.4501
   -23.4425 -23.4424 -23.4422 -23.4421 -23.3952 -23.3951 -23.3951 -23.3951
   -23.3911 -23.3910 -23.3908 -23.3906 -23.3699 -23.3699 -23.3699 -23.3699
    13.9054  13.9055  13.9056  13.9057  15.2919  15.2920  15.2921  15.2922
    15.9793  15.9794  15.9795  15.9795  16.3473  16.3473  16.3474  16.3474
    16.4266  16.4267  16.4268  16.4269  16.6249  16.6249  16.6250  16.6251
    16.9365  16.9365  16.9366  16.9366  17.0420  17.0421  17.0421  17.0421
    17.3003  17.3003  17.3003  17.3003  17.3411  17.3412  17.3413  17.3413
    17.4840  17.4840  17.4840  17.4840  17.8178  17.8178  17.8178  17.8178
    20.0685  20.0686  20.0687  20.0688  20.1804  20.1804  20.1804  20.1805
    20.2297  20.2297  20.2298  20.2299  20.2763  20.2764  20.2764  20.2765
    20.3752  20.3753  20.3754  20.3755  20.4958  20.4959

          k = 0.3856 0.3856 0.3856 ( 12851 PWs)   bands (ev):

   -53.0194 -53.0098 -53.0097 -53.0097 -53.0024 -53.0024 -53.0024 -52.9961
   -52.1231 -52.1226 -52.1226 -52.1225 -52.1196 -52.1196 -52.1196 -52.1155
   -24.4734 -24.4734 -24.4734 -24.4589 -24.4589 -24.4589 -24.4470 -24.4288
   -24.4288 -24.4288 -24.4199 -24.4199 -24.4053 -24.4053 -24.3674 -24.3674
   -24.3673 -24.3614 -24.3613 -24.3613 -24.3507 -24.3507 -24.3507 -24.3310
   -23.4579 -23.4579 -23.4579 -23.4558 -23.4535 -23.4535 -23.4535 -23.4485
   -23.4485 -23.4207 -23.4113 -23.4113 -23.4113 -23.4101 -23.4101 -23.4101
   -23.4008 -23.4008 -23.4008 -23.3752 -23.3752 -23.3752 -23.3738 -23.3738
    13.4515  14.2812  14.2812  14.2813  14.9257  14.9257  14.9258  15.6767
    16.0263  16.0263  16.1362  16.1362  16.1362  16.3137  16.3137  16.3137
    16.3308  16.3308  16.3308  16.4736  16.7496  16.7496  16.9254  16.9254
    16.9254  16.9925  16.9925  17.0713  17.0714  17.0714  17.0771  17.0771
    17.0771  17.2509  17.2509  17.2509  17.2638  17.2638  17.2639  17.3125
    17.3125  17.3125  17.4694  17.4694  17.5720  17.5720  17.5720  18.0641
    20.0042  20.0042  20.0042  20.1868  20.1868  20.1869  20.2039  20.2039
    20.2078  20.2431  20.2431  20.2431  20.2890  20.2890  20.2890  20.3697
    20.3697  20.4487  20.4488  20.4488  20.4708  20.4708

          k = 0.3856 0.3856-0.4958 ( 12834 PWs)   bands (ev):

   -53.0146 -53.0146 -53.0061 -53.0061 -53.0061 -53.0060 -52.9993 -52.9992
   -52.1230 -52.1226 -52.1212 -52.1212 -52.1209 -52.1209 -52.1177 -52.1174
   -24.4612 -24.4612 -24.4612 -24.4612 -24.4473 -24.4472 -24.4363 -24.4363
   -24.4333 -24.4333 -24.3993 -24.3992 -24.3992 -24.3992 -24.3870 -24.3870
   -24.3837 -24.3837 -24.3605 -24.3605 -24.3605 -24.3605 -24.3479 -24.3479
   -23.4559 -23.4559 -23.4504 -23.4503 -23.4503 -23.4502 -23.4481 -23.4479
   -23.4241 -23.4238 -23.4181 -23.4180 -23.4155 -23.4155 -23.4153 -23.4152
   -23.3923 -23.3920 -23.3881 -23.3881 -23.3880 -23.3880 -23.3757 -23.3757
    13.8474  13.8477  14.6095  14.6096  14.6097  14.6098  15.3080  15.3082
    16.1615  16.1617  16.2348  16.2350  16.2537  16.2537  16.2538  16.2539
    16.4238  16.4239  16.6586  16.6587  16.6588  16.6589  16.8203  16.8204
    16.8364  16.8365  17.0260  17.0261  17.0350  17.0351  17.1077  17.1077
    17.1078  17.1078  17.2147  17.2147  17.2148  17.2148  17.3072  17.3072
    17.3072  17.3073  17.3526  17.3526  17.3631  17.3632  17.7452  17.7452
    20.1108  20.1110  20.1419  20.1419  20.1420  20.1421  20.2860  20.2860
    20.2860  20.2860  20.2916  20.2917  20.3415  20.3417  20.4217  20.4218
    20.4444  20.4444  20.4446  20.4446  20.4499  20.4501

          k = 0.3856-0.4958-0.4958 ( 12840 PWs)   bands (ev):

   -53.0104 -53.0104 -53.0103 -53.0102 -53.0027 -53.0027 -53.0026 -53.0025
   -52.1222 -52.1220 -52.1218 -52.1217 -52.1195 -52.1194 -52.1192 -52.1191
   -24.4469 -24.4468 -24.4467 -24.4467 -24.4393 -24.4392 -24.4392 -24.4392
   -24.4094 -24.4094 -24.4093 -24.4093 -24.3905 -24.3905 -24.3905 -24.3904
   -24.3904 -24.3904 -24.3904 -24.3904 -24.3641 -24.3640 -24.3639 -24.3639
   -23.4500 -23.4500 -23.4499 -23.4499 -23.4361 -23.4360 -23.4359 -23.4358
   -23.4301 -23.4301 -23.4300 -23.4300 -23.4051 -23.4051 -23.4051 -23.4050
   -23.4009 -23.4008 -23.4007 -23.4005 -23.3875 -23.3875 -23.3875 -23.3875
    14.2188  14.2189  14.2191  14.2192  14.9667  14.9668  14.9669  14.9670
    16.2448  16.2448  16.2449  16.2450  16.4751  16.4752  16.4753  16.4754
    16.5795  16.5796  16.5796  16.5797  16.5813  16.5813  16.5814  16.5815
    16.9831  16.9832  16.9832  16.9833  17.0167  17.0167  17.0167  17.0168
    17.0998  17.0999  17.1000  17.1001  17.2101  17.2101  17.2101  17.2101
    17.2704  17.2704  17.2704  17.2704  17.4293  17.4293  17.4293  17.4293
    20.1816  20.1817  20.1817  20.1818  20.2482  20.2483  20.2484  20.2484
    20.3459  20.3460  20.3461  20.3462  20.4184  20.4185  20.4186  20.4186
    20.4465  20.4466  20.4466  20.4467  20.4924  20.4924

          k =-0.4958-0.4958-0.4958 ( 12856 PWs)   bands (ev):

   -53.0067 -53.0066 -53.0066 -53.0066 -53.0064 -53.0064 -53.0064 -53.0064
   -52.1209 -52.1208 -52.1208 -52.1207 -52.1206 -52.1205 -52.1205 -52.1203
   -24.4156 -24.4156 -24.4156 -24.4155 -24.4155 -24.4155 -24.4155 -24.4155
   -24.4154 -24.4154 -24.4154 -24.4154 -24.4154 -24.4153 -24.4153 -24.4153
   -24.3904 -24.3903 -24.3903 -24.3903 -24.3903 -24.3902 -24.3902 -24.3902
   -23.4375 -23.4375 -23.4374 -23.4374 -23.4374 -23.4373 -23.4373 -23.4373
   -23.4084 -23.4084 -23.4084 -23.4084 -23.4083 -23.4083 -23.4083 -23.4082
   -23.4082 -23.4082 -23.4081 -23.4081 -23.4081 -23.4080 -23.4080 -23.4080
    14.5890  14.5891  14.5891  14.5893  14.5893  14.5893  14.5894  14.5895
    16.5290  16.5291  16.5291  16.5291  16.5291  16.5292  16.5292  16.5292
    16.5292  16.5292  16.5293  16.5293  16.5293  16.5293  16.5294  16.5294
    17.0906  17.0906  17.0906  17.0906  17.0906  17.0906  17.0906  17.0907
    17.1113  17.1114  17.1114  17.1114  17.1114  17.1114  17.1114  17.1114
    17.1115  17.1115  17.1115  17.1115  17.1115  17.1115  17.1116  17.1116
    20.3034  20.3034  20.3035  20.3035  20.3035  20.3035  20.3036  20.3036
    20.3036  20.3036  20.3037  20.3037  20.3037  20.3037  20.3037  20.3038
    20.6903  20.6904  20.6904  20.6904  20.6904  20.6904

 ------ SPIN DOWN ----------


          k = 0.0551 0.0551 0.0551 ( 12923 PWs)   bands (ev):

   -53.0528 -53.0106 -53.0106 -53.0106 -52.9952 -52.9952 -52.9952 -52.9807
   -52.1324 -52.1321 -52.1321 -52.1174 -52.1169 -52.1167 -52.1167 -52.1018
   -24.5921 -24.5920 -24.5920 -24.5890 -24.5890 -24.5890 -24.4391 -24.4391
   -24.4390 -24.4133 -24.4088 -24.4088 -24.3735 -24.3735 -24.3685 -24.2761
   -24.2761 -24.2760 -24.2723 -24.2723 -24.2722 -24.2568 -24.2568 -24.2567
   -23.5713 -23.5713 -23.5713 -23.5443 -23.5443 -23.5392 -23.4049 -23.4049
   -23.4049 -23.4021 -23.4020 -23.4020 -23.3906 -23.3905 -23.3905 -23.3789
   -23.3789 -23.3789 -23.3759 -23.3759 -23.3758 -23.3269 -23.3209 -23.3209
    11.3094  14.7142  14.7142  14.7142  14.8236  14.8236  14.8236  14.9078
    14.9078  14.9079  14.9203  14.9203  15.3909  15.3909  15.3910  16.5078
    16.5614  16.5614  16.7133  16.7133  16.7133  16.7284  16.7284  16.7284
    17.0005  17.0005  17.0005  17.1261  17.1261  17.1348  17.6872  17.6872
    17.6872  18.1886  18.1886  18.2400  18.3152  18.3152  18.3152  18.4260
    18.4260  18.4260  18.9436  18.9436  18.9436  19.1951  19.1951  19.1952
    19.5915  19.5915  19.5915  19.7316  19.7317  19.7317  19.9715  19.9715
    19.9715  20.2177  20.2177  20.2177  20.2831  20.2831  20.3228  20.3228
    20.3508  20.3508  20.3508  20.3628  20.3628  20.3629

          k = 0.0551 0.0551 0.1653 ( 12908 PWs)   bands (ev):

   -53.0503 -53.0132 -53.0097 -53.0097 -52.9962 -52.9962 -52.9944 -52.9815
   -52.1314 -52.1312 -52.1312 -52.1182 -52.1178 -52.1176 -52.1159 -52.1027
   -24.5837 -24.5836 -24.5826 -24.5799 -24.5724 -24.5724 -24.4484 -24.4484
   -24.4357 -24.4258 -24.4218 -24.3995 -24.3800 -24.3680 -24.3614 -24.2986
   -24.2986 -24.2815 -24.2789 -24.2719 -24.2719 -24.2661 -24.2578 -24.2577
   -23.5565 -23.5552 -23.5552 -23.5383 -23.5320 -23.5244 -23.4062 -23.4061
   -23.4017 -23.3992 -23.3979 -23.3978 -23.3963 -23.3933 -23.3932 -23.3872
   -23.3871 -23.3856 -23.3845 -23.3761 -23.3760 -23.3428 -23.3255 -23.3244
    11.4429  14.3599  14.7571  14.7571  14.8146  14.8765  14.8765  14.9374
    14.9548  14.9548  14.9885  14.9953  15.4195  15.4195  15.6462  16.3971
    16.5386  16.5387  16.6411  16.6918  16.7054  16.7681  16.7682  16.8140
    16.8140  16.9591  16.9774  16.9774  17.2556  17.2654  17.5354  17.5354
    17.9930  18.1577  18.1580  18.1580  18.1792  18.2535  18.3054  18.4561
    18.5763  18.5764  18.6845  18.6846  19.0306  19.1752  19.1752  19.2857
    19.2857  19.3543  19.4988  19.5112  19.5178  19.5178  19.6273  19.9660
    19.9660  20.1445  20.1445  20.1922  20.2018  20.3019  20.3020  20.3193
    20.3201  20.3267  20.3905  20.3937  20.5128  20.5240

          k = 0.0551 0.0551 0.2754 ( 12849 PWs)   bands (ev):

   -53.0456 -53.0181 -53.0080 -53.0079 -52.9979 -52.9979 -52.9927 -52.9832
   -52.1297 -52.1295 -52.1294 -52.1198 -52.1195 -52.1194 -52.1142 -52.1044
   -24.5664 -24.5664 -24.5641 -24.5621 -24.5412 -24.5412 -24.4661 -24.4660
   -24.4482 -24.4454 -24.4294 -24.3885 -24.3823 -24.3573 -24.3510 -24.3400
   -24.3400 -24.2919 -24.2912 -24.2831 -24.2701 -24.2700 -24.2596 -24.2595
   -23.5288 -23.5276 -23.5276 -23.5229 -23.5100 -23.5018 -23.4208 -23.4065
   -23.4064 -23.4059 -23.4058 -23.4011 -23.3995 -23.3939 -23.3938 -23.3932
   -23.3931 -23.3888 -23.3860 -23.3775 -23.3774 -23.3708 -23.3343 -23.3326
    11.7050  13.7461  14.8347  14.8347  14.9772  14.9772  15.0065  15.0170
    15.0170  15.1236  15.1349  15.1572  15.4337  15.4337  15.7298  16.1916
    16.2545  16.4862  16.5242  16.6536  16.6648  16.6788  16.8896  16.8896
    16.9682  16.9682  17.0023  17.0023  17.4494  17.4494  17.4891  17.5080
    17.9033  17.9033  18.1330  18.1331  18.1639  18.1822  18.1823  18.1850
    18.4016  18.5675  18.5675  18.6937  18.9143  18.9144  19.0124  19.0248
    19.0249  19.0967  19.1412  19.4432  19.4432  19.5875  19.6246  20.0145
    20.0397  20.0397  20.1796  20.1797  20.2217  20.3155  20.3258  20.3336
    20.3656  20.3656  20.3889  20.4494  20.7364  20.7918

          k = 0.0551 0.0551 0.3856 ( 12857 PWs)   bands (ev):

   -53.0393 -53.0246 -53.0056 -53.0056 -53.0002 -53.0002 -52.9905 -52.9854
   -52.1273 -52.1271 -52.1271 -52.1221 -52.1218 -52.1217 -52.1119 -52.1067
   -24.5430 -24.5430 -24.5384 -24.5373 -24.4982 -24.4982 -24.4897 -24.4896
   -24.4770 -24.4755 -24.4206 -24.3990 -24.3920 -24.3920 -24.3592 -24.3426
   -24.3372 -24.3074 -24.3065 -24.3059 -24.2677 -24.2676 -24.2620 -24.2620
   -23.5004 -23.4943 -23.4943 -23.4919 -23.4821 -23.4744 -23.4459 -23.4306
   -23.4305 -23.4244 -23.4204 -23.4078 -23.4042 -23.4042 -23.3978 -23.3978
   -23.3884 -23.3883 -23.3802 -23.3801 -23.3754 -23.3729 -23.3465 -23.3444
    12.0859  13.1341  14.9290  14.9290  15.0452  15.0452  15.1131  15.1131
    15.2719  15.3175  15.3231  15.3813  15.3814  15.4664  15.6660  15.8962
    15.9051  16.2295  16.5328  16.5552  16.6071  16.6164  17.0707  17.0707
    17.1628  17.1628  17.1855  17.1855  17.4765  17.4765  17.6824  17.6824
    17.8098  17.8165  17.8165  17.8288  17.9951  17.9951  18.1175  18.1378
    18.1420  18.1490  18.3459  18.3460  18.5296  18.6456  18.6514  18.8597
    19.0670  19.3627  19.3628  19.6283  19.6283  19.7581  19.8652  19.8870
    19.8870  19.9666  20.0077  20.0078  20.2537  20.3105  20.3120  20.3127
    20.4867  20.5341  20.6137  20.7353  20.7353  20.7435

          k = 0.0551 0.0551-0.4958 ( 12880 PWs)   bands (ev):

   -53.0321 -53.0318 -53.0031 -53.0031 -53.0028 -53.0028 -52.9881 -52.9878
   -52.1247 -52.1247 -52.1246 -52.1245 -52.1244 -52.1243 -52.1094 -52.1092
   -24.5166 -24.5166 -24.5163 -24.5163 -24.5081 -24.5080 -24.5078 -24.5077
   -24.4470 -24.4470 -24.4467 -24.4467 -24.4102 -24.4100 -24.3330 -24.3327
   -24.3255 -24.3252 -24.3218 -24.3215 -24.2651 -24.2650 -24.2648 -24.2647
   -23.4736 -23.4735 -23.4608 -23.4608 -23.4607 -23.4607 -23.4524 -23.4523
   -23.4499 -23.4498 -23.4463 -23.4463 -23.4016 -23.4015 -23.4015 -23.4014
   -23.3840 -23.3839 -23.3839 -23.3838 -23.3609 -23.3607 -23.3584 -23.3583
    12.5697  12.5700  15.0107  15.0107  15.0108  15.0108  15.2607  15.2607
    15.2608  15.2608  15.5098  15.5100  15.5825  15.5827  15.5835  15.5838
    15.8382  15.8384  16.5632  16.5634  16.5732  16.5734  17.2968  17.2968
    17.2970  17.2970  17.4149  17.4149  17.4150  17.4150  17.5636  17.5636
    17.5637  17.5637  17.8918  17.8919  17.8920  17.8921  18.1166  18.1168
    18.1407  18.1409  18.2014  18.2015  18.2132  18.2133  18.6861  18.6863
    19.4356  19.4357  19.6604  19.6605  19.6605  19.6606  19.8180  19.8180
    19.8181  19.8181  20.2259  20.2260  20.2867  20.2869  20.3075  20.3078
    20.3523  20.3524  20.6063  20.6065  20.6384  20.6385

          k = 0.0551 0.1653 0.1653 ( 12881 PWs)   bands (ev):

   -53.0479 -53.0122 -53.0122 -53.0088 -52.9972 -52.9953 -52.9953 -52.9824
   -52.1306 -52.1304 -52.1303 -52.1190 -52.1185 -52.1169 -52.1167 -52.1036
   -24.5785 -24.5746 -24.5746 -24.5639 -24.5638 -24.5530 -24.4563 -24.4455
   -24.4454 -24.4363 -24.4233 -24.4004 -24.3867 -24.3660 -24.3521 -24.3105
   -24.3009 -24.3009 -24.2805 -24.2782 -24.2782 -24.2673 -24.2673 -24.2590
   -23.5442 -23.5442 -23.5414 -23.5358 -23.5226 -23.5071 -23.4133 -23.4078
   -23.4077 -23.4031 -23.4005 -23.4004 -23.3923 -23.3923 -23.3923 -23.3922
   -23.3898 -23.3896 -23.3805 -23.3804 -23.3731 -23.3603 -23.3296 -23.3250
    11.5744  14.4225  14.4225  14.7418  14.8590  14.8590  14.9679  14.9887
    14.9887  15.0104  15.0561  15.0692  15.4610  15.6798  15.6799  16.3141
    16.5004  16.5580  16.6426  16.6426  16.7432  16.7432  16.7844  16.7844
    16.7931  16.9279  16.9366  17.0664  17.1199  17.3192  17.3863  17.7815
[...]
    20.0025  20.0026  20.0095  20.0096  20.1643  20.1644  20.1808  20.1810
    20.3503  20.3504  20.4113  20.4114  20.4633  20.4634

          k = 0.1653-0.4958-0.4958 ( 12808 PWs)   bands (ev):

   -53.0164 -53.0163 -53.0161 -53.0160 -52.9970 -52.9969 -52.9967 -52.9965
   -52.1241 -52.1240 -52.1240 -52.1238 -52.1175 -52.1174 -52.1174 -52.1172
   -24.4971 -24.4970 -24.4968 -24.4966 -24.4739 -24.4739 -24.4738 -24.4738
   -24.4355 -24.4355 -24.4354 -24.4354 -24.3646 -24.3646 -24.3645 -24.3645
   -24.3500 -24.3500 -24.3499 -24.3499 -24.3096 -24.3094 -24.3092 -24.3091
   -23.4776 -23.4776 -23.4775 -23.4775 -23.4660 -23.4660 -23.4658 -23.4658
   -23.4484 -23.4483 -23.4483 -23.4481 -23.3867 -23.3867 -23.3865 -23.3865
   -23.3826 -23.3826 -23.3826 -23.3824 -23.3574 -23.3574 -23.3573 -23.3572
    13.6810  13.6812  13.6813  13.6814  15.5295  15.5296  15.5297  15.5298
    15.7850  15.7850  15.7851  15.7852  16.1212  16.1213  16.1213  16.1214
    16.3902  16.3903  16.3904  16.3905  16.6554  16.6554  16.6555  16.6555
    16.8788  16.8789  16.8790  16.8790  17.1682  17.1683  17.1684  17.1685
    17.3695  17.3695  17.3695  17.3695  17.5774  17.5774  17.5775  17.5776
    17.6976  17.6976  17.6977  17.6977  18.2010  18.2010  18.2010  18.2010
    19.8782  19.8783  19.8783  19.8783  20.0315  20.0315  20.0316  20.0317
    20.1069  20.1069  20.1070  20.1071  20.1855  20.1855  20.1856  20.1857
    20.2352  20.2352  20.2353  20.2353  20.3927  20.3927

          k = 0.2754 0.2754 0.2754 ( 12857 PWs)   bands (ev):

   -53.0334 -53.0113 -53.0113 -53.0113 -52.9987 -52.9987 -52.9987 -52.9885
   -52.1260 -52.1258 -52.1258 -52.1223 -52.1189 -52.1187 -52.1187 -52.1095
   -24.5275 -24.5274 -24.5274 -24.4836 -24.4836 -24.4836 -24.4687 -24.4687
   -24.4686 -24.4653 -24.4183 -24.4183 -24.3925 -24.3925 -24.3431 -24.3431
   -24.3431 -24.3177 -24.3176 -24.3176 -24.3136 -24.2989 -24.2989 -24.2988
   -23.4905 -23.4905 -23.4904 -23.4894 -23.4894 -23.4524 -23.4522 -23.4522
   -23.4391 -23.4342 -23.4105 -23.4105 -23.4104 -23.3983 -23.3983 -23.3981
   -23.3907 -23.3907 -23.3907 -23.3674 -23.3672 -23.3672 -23.3476 -23.3476
    12.4475  14.2410  14.2410  14.2410  14.9834  14.9834  14.9835  15.5242
    15.5242  15.5558  15.5558  15.5559  16.0293  16.0293  16.0293  16.1263
    16.3554  16.3554  16.3554  16.6022  16.6022  16.6539  16.8603  16.8603
    16.8603  17.0740  17.0740  17.0740  17.1620  17.1620  17.4222  17.4222
    17.4222  17.6373  17.6373  17.6373  17.7459  17.7459  17.7459  17.8198
    17.8198  17.9695  17.9695  17.9696  18.0913  18.0913  18.0913  18.8910
    19.5104  19.5105  19.5105  19.7361  19.8740  19.8740  19.8741  19.9843
    19.9843  19.9843  20.1718  20.1718  20.2398  20.2398  20.2399  20.3448
    20.3448  20.3790  20.3790  20.3791  20.5158  20.5158

          k = 0.2754 0.2754 0.3856 ( 12848 PWs)   bands (ev):

   -53.0282 -53.0165 -53.0083 -53.0083 -53.0016 -53.0016 -52.9963 -52.9909
   -52.1250 -52.1242 -52.1241 -52.1231 -52.1205 -52.1203 -52.1166 -52.1117
   -24.5117 -24.5117 -24.5037 -24.4799 -24.4798 -24.4783 -24.4681 -24.4550
   -24.4509 -24.4508 -24.4459 -24.4154 -24.3918 -24.3757 -24.3737 -24.3737
   -24.3360 -24.3303 -24.3279 -24.3198 -24.3198 -24.3137 -24.3068 -24.3067
   -23.4842 -23.4803 -23.4757 -23.4757 -23.4643 -23.4636 -23.4577 -23.4576
   -23.4504 -23.4265 -23.4163 -23.4163 -23.4120 -23.4068 -23.4067 -23.4054
   -23.3947 -23.3816 -23.3815 -23.3682 -23.3681 -23.3614 -23.3613 -23.3508
    12.7949  13.7224  14.4596  14.4597  14.8597  14.8598  15.3042  15.6784
    15.7166  15.7256  15.7256  15.8134  16.0217  16.0288  16.0288  16.0340
    16.1044  16.3307  16.5286  16.5287  16.6510  16.7414  16.7901  16.9106
    16.9608  16.9608  17.0728  17.1672  17.1672  17.2679  17.2679  17.3128
    17.4298  17.4298  17.5184  17.5184  17.5448  17.5920  17.6149  17.6233
    17.6945  17.7060  17.7060  17.7431  17.8168  17.8168  18.2395  18.7503
    19.6886  19.7212  19.7212  19.7232  19.9267  19.9267  19.9321  19.9321
    20.0371  20.1287  20.1381  20.1381  20.1482  20.1566  20.2928  20.3076
    20.3295  20.3921  20.4926  20.5293  20.5293  20.5581

          k = 0.2754 0.2754-0.4958 ( 12848 PWs)   bands (ev):

   -53.0225 -53.0222 -53.0051 -53.0051 -53.0048 -53.0048 -52.9937 -52.9934
   -52.1241 -52.1239 -52.1224 -52.1223 -52.1223 -52.1221 -52.1142 -52.1140
   -24.4950 -24.4949 -24.4948 -24.4947 -24.4758 -24.4755 -24.4729 -24.4726
   -24.4370 -24.4368 -24.4127 -24.4126 -24.4125 -24.4125 -24.3604 -24.3601
   -24.3564 -24.3561 -24.3198 -24.3196 -24.3147 -24.3146 -24.3144 -24.3143
   -23.4749 -23.4749 -23.4667 -23.4667 -23.4643 -23.4643 -23.4643 -23.4642
   -23.4376 -23.4374 -23.4151 -23.4151 -23.4151 -23.4149 -23.4148 -23.4148
   -23.3778 -23.3777 -23.3732 -23.3732 -23.3731 -23.3731 -23.3556 -23.3556
    13.2288  13.2290  14.6801  14.6802  14.6803  14.6804  15.6822  15.6824
    15.8746  15.8749  15.8951  15.8951  15.8952  15.8952  15.9077  15.9079
    16.0897  16.0899  16.7164  16.7166  16.7859  16.7861  16.8568  16.8568
    16.8570  16.8570  17.1208  17.1208  17.1209  17.1209  17.2870  17.2872
    17.4733  17.4735  17.4742  17.4742  17.4743  17.4743  17.6134  17.6135
    17.6164  17.6164  17.6165  17.6165  17.6506  17.6508  18.4804  18.4804
    19.8711  19.8712  19.8879  19.8879  19.8880  19.8880  19.9079  19.9080
    19.9826  19.9827  19.9828  19.9828  20.2375  20.2377  20.4330  20.4331
    20.4479  20.4481  20.4687  20.4689  20.4818  20.4819

          k = 0.2754 0.3856 0.3856 ( 12853 PWs)   bands (ev):

   -53.0236 -53.0130 -53.0130 -53.0055 -53.0051 -52.9991 -52.9991 -52.9934
   -52.1240 -52.1238 -52.1233 -52.1224 -52.1215 -52.1184 -52.1183 -52.1137
   -24.4954 -24.4920 -24.4920 -24.4799 -24.4651 -24.4638 -24.4637 -24.4501
   -24.4500 -24.4395 -24.4236 -24.4232 -24.3944 -24.3863 -24.3777 -24.3611
   -24.3610 -24.3409 -24.3377 -24.3377 -24.3323 -24.3323 -24.3194 -24.3170
   -23.4717 -23.4715 -23.4711 -23.4612 -23.4612 -23.4595 -23.4593 -23.4579
   -23.4534 -23.4291 -23.4204 -23.4203 -23.4186 -23.4004 -23.4004 -23.4003
   -23.3950 -23.3949 -23.3813 -23.3731 -23.3700 -23.3658 -23.3657 -23.3583
    13.1269  13.9929  13.9930  14.6012  14.7121  15.1803  15.1804  15.8091
    15.8660  15.8958  15.9169  15.9825  15.9825  16.0391  16.0391  16.2366
    16.3352  16.3501  16.3501  16.4722  16.6760  16.7985  16.8633  16.8633
    16.9483  16.9667  16.9667  17.0009  17.1030  17.1373  17.2500  17.2970
    17.2970  17.3487  17.3608  17.3608  17.3791  17.4544  17.4544  17.4969
    17.4970  17.5428  17.5616  17.5970  17.6376  17.9057  17.9057  18.4381
    19.8628  19.8628  19.8940  19.9191  19.9612  20.0591  20.0829  20.1202
    20.1202  20.1396  20.1396  20.1402  20.2311  20.2312  20.2765  20.3014
    20.4147  20.4484  20.4485  20.4597  20.5073  20.5073

          k = 0.2754 0.3856-0.4958 ( 12862 PWs)   bands (ev):

   -53.0185 -53.0182 -53.0092 -53.0089 -53.0025 -53.0022 -52.9964 -52.9961
   -52.1237 -52.1235 -52.1227 -52.1226 -52.1205 -52.1203 -52.1161 -52.1160
   -24.4840 -24.4837 -24.4782 -24.4781 -24.4730 -24.4727 -24.4471 -24.4469
   -24.4437 -24.4436 -24.4158 -24.4157 -24.3922 -24.3921 -24.3703 -24.3701
   -24.3657 -24.3655 -24.3447 -24.3444 -24.3296 -24.3294 -24.3266 -24.3263
   -23.4654 -23.4654 -23.4651 -23.4651 -23.4637 -23.4636 -23.4544 -23.4544
   -23.4366 -23.4365 -23.4317 -23.4316 -23.4080 -23.4080 -23.4014 -23.4013
   -23.3842 -23.3841 -23.3826 -23.3826 -23.3734 -23.3734 -23.3628 -23.3628
    13.5362  13.5365  14.3001  14.3004  14.9726  14.9728  15.5544  15.5547
    15.9397  15.9399  15.9735  15.9736  16.1452  16.1454  16.1571  16.1572
    16.2363  16.2364  16.6862  16.6864  16.7062  16.7064  16.7366  16.7367
    16.8480  16.8481  17.0223  17.0224  17.0636  17.0638  17.1942  17.1942
    17.2354  17.2355  17.3225  17.3227  17.4470  17.4470  17.4509  17.4510
    17.4650  17.4651  17.5501  17.5502  17.6179  17.6179  18.1269  18.1269
    19.9960  19.9961  20.0073  20.0074  20.0707  20.0708  20.0730  20.0731
    20.1144  20.1144  20.1936  20.1936  20.2371  20.2373  20.3820  20.3822
    20.3905  20.3906  20.4268  20.4269  20.4685  20.4687

          k = 0.2754-0.4958-0.4958 ( 12832 PWs)   bands (ev):

   -53.0139 -53.0138 -53.0136 -53.0135 -52.9995 -52.9994 -52.9992 -52.9991
   -52.1233 -52.1232 -52.1231 -52.1229 -52.1183 -52.1182 -52.1182 -52.1180
   -24.4758 -24.4756 -24.4755 -24.4753 -24.4594 -24.4594 -24.4593 -24.4593
   -24.4246 -24.4246 -24.4245 -24.4245 -24.3747 -24.3747 -24.3746 -24.3746
   -24.3676 -24.3676 -24.3675 -24.3675 -24.3341 -24.3340 -24.3338 -24.3337
   -23.4651 -23.4651 -23.4650 -23.4650 -23.4503 -23.4503 -23.4501 -23.4501
   -23.4424 -23.4424 -23.4423 -23.4422 -23.3952 -23.3952 -23.3951 -23.3951
   -23.3910 -23.3909 -23.3909 -23.3907 -23.3700 -23.3700 -23.3699 -23.3699
    13.9054  13.9055  13.9057  13.9057  15.2920  15.2920  15.2922  15.2922
    15.9793  15.9794  15.9795  15.9795  16.3473  16.3473  16.3474  16.3474
    16.4266  16.4267  16.4268  16.4269  16.6249  16.6249  16.6250  16.6251
    16.9365  16.9365  16.9366  16.9366  17.0419  17.0420  17.0421  17.0422
    17.3003  17.3003  17.3003  17.3003  17.3411  17.3412  17.3413  17.3413
    17.4839  17.4840  17.4840  17.4841  17.8178  17.8178  17.8178  17.8178
    20.0686  20.0686  20.0686  20.0687  20.1803  20.1804  20.1805  20.1805
    20.2297  20.2297  20.2298  20.2298  20.2763  20.2764  20.2764  20.2765
    20.3752  20.3752  20.3754  20.3754  20.4957  20.4958

          k = 0.3856 0.3856 0.3856 ( 12851 PWs)   bands (ev):

   -53.0194 -53.0098 -53.0098 -53.0098 -53.0024 -53.0024 -53.0024 -52.9961
   -52.1231 -52.1228 -52.1225 -52.1225 -52.1198 -52.1196 -52.1196 -52.1155
   -24.4734 -24.4734 -24.4734 -24.4589 -24.4589 -24.4588 -24.4470 -24.4289
   -24.4289 -24.4288 -24.4199 -24.4199 -24.4053 -24.4053 -24.3674 -24.3674
   -24.3673 -24.3614 -24.3613 -24.3613 -24.3508 -24.3508 -24.3507 -24.3310
   -23.4580 -23.4580 -23.4578 -23.4559 -23.4536 -23.4535 -23.4535 -23.4485
   -23.4485 -23.4207 -23.4114 -23.4114 -23.4113 -23.4102 -23.4102 -23.4101
   -23.4008 -23.4008 -23.4007 -23.3753 -23.3752 -23.3752 -23.3738 -23.3738
    13.4515  14.2813  14.2813  14.2813  14.9258  14.9258  14.9258  15.6767
    16.0263  16.0263  16.1362  16.1362  16.1362  16.3137  16.3137  16.3137
    16.3308  16.3308  16.3308  16.4736  16.7496  16.7496  16.9254  16.9254
    16.9254  16.9924  16.9924  17.0713  17.0713  17.0714  17.0770  17.0770
    17.0771  17.2509  17.2509  17.2509  17.2638  17.2639  17.2639  17.3125
    17.3125  17.3125  17.4694  17.4694  17.5720  17.5720  17.5721  18.0641
    20.0042  20.0042  20.0042  20.1868  20.1869  20.1869  20.2039  20.2039
    20.2078  20.2431  20.2431  20.2432  20.2890  20.2890  20.2891  20.3696
    20.3696  20.4487  20.4487  20.4487  20.4708  20.4708

          k = 0.3856 0.3856-0.4958 ( 12834 PWs)   bands (ev):

   -53.0148 -53.0144 -53.0062 -53.0062 -53.0059 -53.0059 -52.9994 -52.9991
   -52.1229 -52.1228 -52.1212 -52.1212 -52.1212 -52.1209 -52.1177 -52.1175
   -24.4613 -24.4613 -24.4611 -24.4611 -24.4474 -24.4471 -24.4364 -24.4362
   -24.4334 -24.4332 -24.3993 -24.3993 -24.3992 -24.3992 -24.3871 -24.3869
   -24.3839 -24.3835 -24.3607 -24.3606 -24.3604 -24.3603 -24.3480 -24.3478
   -23.4559 -23.4559 -23.4504 -23.4503 -23.4503 -23.4503 -23.4480 -23.4480
   -23.4240 -23.4239 -23.4181 -23.4181 -23.4154 -23.4154 -23.4154 -23.4153
   -23.3922 -23.3921 -23.3881 -23.3881 -23.3880 -23.3880 -23.3757 -23.3757
    13.8475  13.8477  14.6095  14.6096  14.6097  14.6098  15.3080  15.3082
    16.1615  16.1617  16.2348  16.2350  16.2537  16.2537  16.2538  16.2539
    16.4238  16.4239  16.6586  16.6587  16.6588  16.6589  16.8203  16.8204
    16.8364  16.8366  17.0259  17.0261  17.0349  17.0351  17.1077  17.1077
    17.1077  17.1078  17.2147  17.2147  17.2148  17.2148  17.3072  17.3072
    17.3072  17.3073  17.3526  17.3527  17.3631  17.3632  17.7452  17.7452
    20.1108  20.1109  20.1419  20.1419  20.1420  20.1420  20.2859  20.2860
    20.2860  20.2860  20.2916  20.2918  20.3415  20.3416  20.4217  20.4219
    20.4444  20.4444  20.4445  20.4446  20.4499  20.4500

          k = 0.3856-0.4958-0.4958 ( 12840 PWs)   bands (ev):

   -53.0106 -53.0104 -53.0102 -53.0101 -53.0029 -53.0028 -53.0026 -53.0024
   -52.1221 -52.1220 -52.1220 -52.1218 -52.1195 -52.1194 -52.1194 -52.1192
   -24.4470 -24.4469 -24.4467 -24.4466 -24.4393 -24.4393 -24.4392 -24.4392
   -24.4094 -24.4094 -24.4093 -24.4093 -24.3905 -24.3905 -24.3905 -24.3905
   -24.3904 -24.3904 -24.3904 -24.3904 -24.3641 -24.3640 -24.3639 -24.3638
   -23.4501 -23.4501 -23.4499 -23.4499 -23.4360 -23.4360 -23.4360 -23.4359
   -23.4302 -23.4302 -23.4300 -23.4300 -23.4052 -23.4052 -23.4051 -23.4051
   -23.4008 -23.4008 -23.4008 -23.4006 -23.3876 -23.3876 -23.3875 -23.3875
    14.2188  14.2190  14.2191  14.2192  14.9667  14.9668  14.9669  14.9670
    16.2448  16.2448  16.2449  16.2450  16.4751  16.4752  16.4753  16.4754
    16.5795  16.5796  16.5797  16.5797  16.5812  16.5813  16.5814  16.5815
    16.9831  16.9832  16.9833  16.9833  17.0167  17.0167  17.0168  17.0168
    17.0998  17.0999  17.1000  17.1001  17.2101  17.2101  17.2101  17.2101
    17.2703  17.2704  17.2704  17.2704  17.4293  17.4293  17.4293  17.4293
    20.1816  20.1816  20.1817  20.1818  20.2482  20.2483  20.2484  20.2484
    20.3459  20.3460  20.3461  20.3461  20.4184  20.4185  20.4186  20.4186
    20.4465  20.4466  20.4466  20.4466  20.4923  20.4924

          k =-0.4958-0.4958-0.4958 ( 12856 PWs)   bands (ev):

   -53.0068 -53.0067 -53.0067 -53.0065 -53.0065 -53.0063 -53.0063 -53.0062
   -52.1209 -52.1209 -52.1207 -52.1207 -52.1206 -52.1205 -52.1204 -52.1204
   -24.4157 -24.4157 -24.4156 -24.4156 -24.4156 -24.4155 -24.4155 -24.4155
   -24.4154 -24.4154 -24.4154 -24.4153 -24.4153 -24.4153 -24.4153 -24.4152
   -24.3904 -24.3904 -24.3903 -24.3903 -24.3903 -24.3902 -24.3902 -24.3901
   -23.4375 -23.4375 -23.4375 -23.4374 -23.4374 -23.4374 -23.4373 -23.4373
   -23.4084 -23.4084 -23.4084 -23.4083 -23.4083 -23.4083 -23.4083 -23.4082
   -23.4082 -23.4082 -23.4081 -23.4081 -23.4081 -23.4081 -23.4080 -23.4080
    14.5891  14.5891  14.5892  14.5893  14.5893  14.5894  14.5894  14.5895
    16.5290  16.5291  16.5291  16.5291  16.5291  16.5291  16.5292  16.5292
    16.5292  16.5292  16.5293  16.5293  16.5293  16.5293  16.5294  16.5294
    17.0906  17.0906  17.0906  17.0906  17.0906  17.0906  17.0906  17.0907
    17.1113  17.1114  17.1114  17.1114  17.1114  17.1114  17.1114  17.1114
    17.1115  17.1115  17.1115  17.1115  17.1115  17.1115  17.1115  17.1116
    20.3034  20.3034  20.3035  20.3035  20.3035  20.3035  20.3035  20.3035
    20.3036  20.3036  20.3036  20.3037  20.3037  20.3037  20.3037  20.3037
    20.6903  20.6903  20.6904  20.6904  20.6904  20.6904

     the Fermi energy is    19.0209 ev

!    total energy              =   -3971.54309074 Ry
     Harris-Foulkes estimate   =   -3971.54308492 Ry
     estimated scf accuracy    <       0.00000017 Ry

     total all-electron energy =    -33628.065970 Ry

     The total energy is the sum of the following terms:

     one-electron contribution =    -908.81661041 Ry
     hartree contribution      =     588.10296903 Ry
     xc contribution           =    -356.55074786 Ry
     ewald contribution        =   -2106.37905168 Ry
     one-center paw contrib.   =   -1187.94542561 Ry
     smearing contrib. (-TS)   =       0.04577580 Ry

     total magnetization       =    -0.00 Bohr mag/cell
     absolute magnetization    =    14.02 Bohr mag/cell

     convergence has been achieved in  28 iterations

     Forces acting on atoms (cartesian axes, Ry/au):

     atom    1 type  1   force =     0.00000000    0.00000000    0.00000000
     atom    2 type  2   force =     0.00001962    0.00001962    0.00001962
     atom    3 type  1   force =     0.00000000    0.00000000    0.00000000
     atom    4 type  2   force =     0.00001962    0.00001962   -0.00001962
     atom    5 type  1   force =     0.00000000    0.00000000    0.00000000
     atom    6 type  2   force =     0.00001962   -0.00001962    0.00001962
     atom    7 type  1   force =     0.00000000    0.00000000    0.00000000
     atom    8 type  2   force =     0.00001962   -0.00001962   -0.00001962
     atom    9 type  1   force =     0.00000000    0.00000000    0.00000000
     atom   10 type  2   force =    -0.00001962    0.00001962    0.00001962
     atom   11 type  1   force =     0.00000000    0.00000000    0.00000000
     atom   12 type  2   force =    -0.00001962    0.00001962   -0.00001962
     atom   13 type  1   force =     0.00000000    0.00000000   -0.00000000
     atom   14 type  2   force =    -0.00001962   -0.00001962    0.00001962
     atom   15 type  1   force =     0.00000000   -0.00000000    0.00000000
     atom   16 type  2   force =    -0.00001962   -0.00001962   -0.00001962

     Total force =     0.000096     Total SCF correction =     0.000554
     SCF correction compared to forces is large: reduce conv_thr to get better values


     Computing stress (Cartesian axis) and pressure

          total   stress  (Ry/bohr**3)                   (kbar)     P=  -32.82
  -0.00022310   0.00000000   0.00000000        -32.82      0.00      0.00
   0.00000000  -0.00022310   0.00000000          0.00    -32.82      0.00
   0.00000000   0.00000000  -0.00022310          0.00      0.00    -32.82


     Writing output data file qrUNIhHuhKosRngr.save/
 
     init_run     :      7.35s CPU      7.73s WALL (       1 calls)
     electrons    :    875.97s CPU    894.36s WALL (       1 calls)
     forces       :      2.23s CPU      2.38s WALL (       1 calls)
     stress       :      9.22s CPU      9.29s WALL (       1 calls)

     Called by init_run:
     wfcinit      :      6.71s CPU      6.98s WALL (       1 calls)
     potinit      :      0.24s CPU      0.31s WALL (       1 calls)
     hinit0       :      0.21s CPU      0.23s WALL (       1 calls)

     Called by electrons:
     c_bands      :    804.88s CPU    819.87s WALL (      29 calls)
     sum_band     :     61.57s CPU     64.22s WALL (      29 calls)
     v_of_rho     :      0.72s CPU      0.76s WALL (      29 calls)
     newd         :      1.55s CPU      1.91s WALL (      29 calls)
     PAW_pot      :      7.18s CPU      7.52s WALL (      29 calls)
     mix_rho      :      0.22s CPU      0.23s WALL (      29 calls)

     Called by c_bands:
     init_us_2    :      4.42s CPU      4.49s WALL (    4270 calls)
     cegterg      :    779.65s CPU    794.44s WALL (    2030 calls)

     Called by sum_band:
     sum_band:bec :      0.65s CPU      0.65s WALL (    2030 calls)
     addusdens    :      3.20s CPU      3.60s WALL (      29 calls)

     Called by *egterg:
     h_psi        :    285.89s CPU    295.01s WALL (   10665 calls)
     s_psi        :     23.08s CPU     23.20s WALL (   10665 calls)
     g_psi        :      1.19s CPU      1.20s WALL (    8565 calls)
     cdiaghg      :    383.40s CPU    384.41s WALL (   10525 calls)

     Called by h_psi:
     h_psi:pot    :    284.07s CPU    293.17s WALL (   10665 calls)
     h_psi:calbec :     25.67s CPU     28.27s WALL (   10665 calls)
     vloc_psi     :    234.31s CPU    240.68s WALL (   10665 calls)
     add_vuspsi   :     24.03s CPU     24.15s WALL (   10665 calls)

     General routines
     calbec       :     35.74s CPU     39.47s WALL (   13045 calls)
     fft          :      0.55s CPU      0.61s WALL (     767 calls)
     ffts         :      0.05s CPU      0.06s WALL (     116 calls)
     fftw         :    260.44s CPU    267.48s WALL ( 1733758 calls)
     interpolate  :      0.07s CPU      0.08s WALL (      58 calls)
 
     Parallel routines
     fft_scatt_xy :     21.30s CPU     21.86s WALL ( 1734641 calls)
     fft_scatt_yz :    150.50s CPU    154.75s WALL ( 1734641 calls)
 
     PWSCF        : 14m58.20s CPU    15m24.23s WALL

 
   This run was terminated on:   4: 2: 1  16Jun2020            

=------------------------------------------------------------------------------=
   JOB DONE.
=------------------------------------------------------------------------------=
