
     Program PWSCF v.6.3 starts on 15Jun2020 at 21:58:57 

     This program is part of the open-source Quantum ESPRESSO suite
     for quantum simulation of materials; please cite
         "P. Giannozzi et al., J. Phys.:Condens. Matter 21 395502 (2009);
         "P. Giannozzi et al., J. Phys.:Condens. Matter 29 465901 (2017);
          URL http://www.quantum-espresso.org", 
     in publications or presentations arising from this work. More details at
     http://www.quantum-espresso.org/quote

     Parallel version (MPI & OpenMP), running on      20 processor cores
     Number of MPI processes:                20
     Threads/MPI process:                     1

     MPI processes distributed on     1 nodes
     R & G space division:  proc/nbgrp/npool/nimage =      20
     Reading input from wd/eos/eos_007.in
Warning: card &IONS ignored
Warning: card ION_DYNAMICS = 'BFGS', ignored
Warning: card / ignored
Warning: card &CELL ignored
Warning: card CELL_DYNAMICS = 'BFGS', ignored
Warning: card CELL_FACTOR = 2.0, ignored
Warning: card PRESS = 0.0, ignored
Warning: card / ignored

     Current dimensions of program PWSCF are:
     Max number of different atomic species (ntypx) = 10
     Max number of k-points (npk) =  40000
     Max angular momentum in pseudopotentials (lmaxx) =  3
     Message from routine read_upf::
     Pseudo file /rds/homes/b/bxp912/pp/Cr.pbe-spn-kjpaw_psl.1.0.0.UPF has been successfully fixed on the fly.
To avoid this message in the future you can permanently fix 
 your pseudo files following instructions given in: 
https://gitlab.com/QEF/q-e/blob/master/upftools/how_to_fix_upf.md
               file Cr.pbe-spn-kjpaw_psl.1.0.0.UPF: wavefunction(s)  3S 3P 3D renormalized
     Message from routine read_upf::
     Pseudo file /rds/homes/b/bxp912/pp/Cr.pbe-spn-kjpaw_psl.1.0.0.UPF has been successfully fixed on the fly.
To avoid this message in the future you can permanently fix 
 your pseudo files following instructions given in: 
https://gitlab.com/QEF/q-e/blob/master/upftools/how_to_fix_upf.md
               file Cr.pbe-spn-kjpaw_psl.1.0.0.UPF: wavefunction(s)  3S 3P 3D renormalized

     Subspace diagonalization in iterative solution of the eigenvalue problem:
     a serial algorithm will be used

     Found symmetry operation: I + (  0.0000  0.0000  0.5000)
     This is a supercell, fractional translations are disabled
 
     Parallelization info
     --------------------
     sticks:   dense  smooth     PW     G-vecs:    dense   smooth      PW
     Min         196     129     36                 9258     4975     738
     Max         198     130     37                 9260     4980     741
     Sum        3937    2593    733               185183    99561   14795
 


     bravais-lattice index     =            0
     lattice parameter (alat)  =      10.7442  a.u.
     unit-cell volume          =    1229.6754 (a.u.)^3
     number of atoms/cell      =           16
     number of atomic types    =            2
     number of electrons       =       224.00
     number of Kohn-Sham states=          134
     kinetic-energy cutoff     =      71.0000  Ry
     charge density cutoff     =     430.0000  Ry
     convergence threshold     =      1.0E-06
     mixing beta               =       0.1000
     number of iterations used =           10  plain     mixing
     Exchange-correlation      = SLA PW PBX PBC ( 1  4  3  4 0 0)

     celldm(1)=  10.744168  celldm(2)=   0.000000  celldm(3)=   0.000000
     celldm(4)=   0.000000  celldm(5)=   0.000000  celldm(6)=   0.000000

     crystal axes: (cart. coord. in units of alat)
               a(1) = (   0.997143   0.000000   0.000000 )  
               a(2) = (   0.000000   0.997143   0.000000 )  
               a(3) = (   0.000000   0.000000   0.997143 )  

     reciprocal axes: (cart. coord. in units 2 pi/alat)
               b(1) = (  1.002865  0.000000  0.000000 )  
               b(2) = (  0.000000  1.002865  0.000000 )  
               b(3) = (  0.000000  0.000000  1.002865 )  


     PseudoPot. # 1 for Cr read from file:
     /rds/homes/b/bxp912/pp/Cr.pbe-spn-kjpaw_psl.1.0.0.UPF
     MD5 check sum: cb1c17117da000fe5e03c4f1a6841d9c
     Pseudo is Projector augmented-wave + core cor, Zval = 14.0
     Generated using "atomic" code by A. Dal Corso v.5.1
     Shape of augmentation charge: PSQ
     Using radial grid of 1183 points,  6 beta functions with: 
                l(1) =   0
                l(2) =   0
                l(3) =   1
                l(4) =   1
                l(5) =   2
                l(6) =   2
     Q(r) pseudized with 0 coefficients 


     PseudoPot. # 2 for Cr read from file:
     /rds/homes/b/bxp912/pp/Cr.pbe-spn-kjpaw_psl.1.0.0.UPF
     MD5 check sum: cb1c17117da000fe5e03c4f1a6841d9c
     Pseudo is Projector augmented-wave + core cor, Zval = 14.0
     Generated using "atomic" code by A. Dal Corso v.5.1
     Shape of augmentation charge: PSQ
     Using radial grid of 1183 points,  6 beta functions with: 
                l(1) =   0
                l(2) =   0
                l(3) =   1
                l(4) =   1
                l(5) =   2
                l(6) =   2
     Q(r) pseudized with 0 coefficients 


     atomic species   valence    mass     pseudopotential
        Cr1           14.00    55.84500     Cr( 1.00)
        Cr2           14.00    55.84500     Cr( 1.00)

     Starting magnetic structure 
     atomic species   magnetization
        Cr1          0.300
        Cr2         -0.300

     48 Sym. Ops., with inversion, found



   Cartesian axes

     site n.     atom                  positions (alat units)
         1           Cr1 tau(   1) = (   0.0000000   0.0000000   0.0000000  )
         2           Cr2 tau(   2) = (   0.2492858   0.2492858   0.2492855  )
         3           Cr1 tau(   3) = (   0.0000000   0.0000000   0.4985709  )
         4           Cr2 tau(   4) = (   0.2492858   0.2492858   0.7478574  )
         5           Cr1 tau(   5) = (   0.0000000   0.4985716   0.0000000  )
         6           Cr2 tau(   6) = (   0.2492858   0.7478574   0.2492855  )
         7           Cr1 tau(   7) = (   0.0000000   0.4985716   0.4985709  )
         8           Cr2 tau(   8) = (   0.2492858   0.7478574   0.7478574  )
         9           Cr1 tau(   9) = (   0.4985716   0.0000000   0.0000000  )
        10           Cr2 tau(  10) = (   0.7478574   0.2492858   0.2492855  )
        11           Cr1 tau(  11) = (   0.4985716   0.0000000   0.4985709  )
        12           Cr2 tau(  12) = (   0.7478574   0.2492858   0.7478574  )
        13           Cr1 tau(  13) = (   0.4985716   0.4985716   0.0000000  )
        14           Cr2 tau(  14) = (   0.7478574   0.7478574   0.2492855  )
        15           Cr1 tau(  15) = (   0.4985716   0.4985716   0.4985709  )
        16           Cr2 tau(  16) = (   0.7478574   0.7478574   0.7478574  )

     number of k points=    35  Marzari-Vanderbilt smearing, width (Ry)=  0.0400
                       cart. coord. in units 2pi/alat
        k(    1) = (   0.0557147   0.0557147   0.0557147), wk =   0.0109739
        k(    2) = (   0.0557147   0.0557147   0.1671442), wk =   0.0329218
        k(    3) = (   0.0557147   0.0557147   0.2785737), wk =   0.0329218
        k(    4) = (   0.0557147   0.0557147   0.3900032), wk =   0.0329218
        k(    5) = (   0.0557147   0.0557147  -0.5014327), wk =   0.0164609
        k(    6) = (   0.0557147   0.1671442   0.1671442), wk =   0.0329218
        k(    7) = (   0.0557147   0.1671442   0.2785737), wk =   0.0658436
        k(    8) = (   0.0557147   0.1671442   0.3900032), wk =   0.0658436
        k(    9) = (   0.0557147   0.1671442  -0.5014327), wk =   0.0329218
        k(   10) = (   0.0557147   0.2785737   0.2785737), wk =   0.0329218
        k(   11) = (   0.0557147   0.2785737   0.3900032), wk =   0.0658436
        k(   12) = (   0.0557147   0.2785737  -0.5014327), wk =   0.0329218
        k(   13) = (   0.0557147   0.3900032   0.3900032), wk =   0.0329218
        k(   14) = (   0.0557147   0.3900032  -0.5014327), wk =   0.0329218
        k(   15) = (   0.0557147  -0.5014327  -0.5014327), wk =   0.0082305
        k(   16) = (   0.1671442   0.1671442   0.1671442), wk =   0.0109739
        k(   17) = (   0.1671442   0.1671442   0.2785737), wk =   0.0329218
        k(   18) = (   0.1671442   0.1671442   0.3900032), wk =   0.0329218
        k(   19) = (   0.1671442   0.1671442  -0.5014327), wk =   0.0164609
        k(   20) = (   0.1671442   0.2785737   0.2785737), wk =   0.0329218
        k(   21) = (   0.1671442   0.2785737   0.3900032), wk =   0.0658436
        k(   22) = (   0.1671442   0.2785737  -0.5014327), wk =   0.0329218
        k(   23) = (   0.1671442   0.3900032   0.3900032), wk =   0.0329218
        k(   24) = (   0.1671442   0.3900032  -0.5014327), wk =   0.0329218
        k(   25) = (   0.1671442  -0.5014327  -0.5014327), wk =   0.0082305
        k(   26) = (   0.2785737   0.2785737   0.2785737), wk =   0.0109739
        k(   27) = (   0.2785737   0.2785737   0.3900032), wk =   0.0329218
        k(   28) = (   0.2785737   0.2785737  -0.5014327), wk =   0.0164609
        k(   29) = (   0.2785737   0.3900032   0.3900032), wk =   0.0329218
        k(   30) = (   0.2785737   0.3900032  -0.5014327), wk =   0.0329218
        k(   31) = (   0.2785737  -0.5014327  -0.5014327), wk =   0.0082305
        k(   32) = (   0.3900032   0.3900032   0.3900032), wk =   0.0109739
        k(   33) = (   0.3900032   0.3900032  -0.5014327), wk =   0.0164609
        k(   34) = (   0.3900032  -0.5014327  -0.5014327), wk =   0.0082305
        k(   35) = (  -0.5014327  -0.5014327  -0.5014327), wk =   0.0013717

     Dense  grid:   185183 G-vectors     FFT dimensions: (  72,  72,  72)

     Smooth grid:    99561 G-vectors     FFT dimensions: (  60,  60,  60)

     Estimated max dynamical RAM per process >     141.88 MB

     Estimated total dynamical RAM >       2.77 GB
     Generating pointlists ...
     new r_m :   0.1781 (alat units)  1.9136 (a.u.) for type    1
     new r_m :   0.1781 (alat units)  1.9136 (a.u.) for type    2

     Check: negative/imaginary core charge=   -0.000009    0.000000

     Initial potential from superposition of free atoms

     starting charge  223.98764, renormalised to  224.00000
     Starting wfcs are  160 randomized atomic wfcs
     Checking if some PAW data can be deallocated... 

     total cpu time spent up to now is        9.5 secs

     Self-consistent Calculation

     iteration #  1     ecut=    71.00 Ry     beta= 0.10
     Davidson diagonalization with overlap
     ethr =  1.00E-02,  avg # of iterations =  3.2

     Threshold (ethr) on eigenvalues was too large:
     Diagonalizing with lowered threshold

     Davidson diagonalization with overlap
     ethr =  7.88E-04,  avg # of iterations =  3.5

     total cpu time spent up to now is       57.6 secs

     total energy              =   -3970.56330389 Ry
     Harris-Foulkes estimate   =   -3970.46949882 Ry
     estimated scf accuracy    <       1.83663333 Ry

     total magnetization       =    -0.00 Bohr mag/cell
     absolute magnetization    =    38.53 Bohr mag/cell

     iteration #  2     ecut=    71.00 Ry     beta= 0.10
     Davidson diagonalization with overlap
     ethr =  8.20E-04,  avg # of iterations =  1.0

     total cpu time spent up to now is       73.8 secs

     total energy              =   -3971.00322862 Ry
     Harris-Foulkes estimate   =   -3970.57418011 Ry
     estimated scf accuracy    <       1.39010963 Ry

     total magnetization       =     0.00 Bohr mag/cell
     absolute magnetization    =    38.54 Bohr mag/cell

     iteration #  3     ecut=    71.00 Ry     beta= 0.10
     Davidson diagonalization with overlap
     ethr =  6.21E-04,  avg # of iterations =  3.0

     total cpu time spent up to now is       99.8 secs

     total energy              =   -3971.25684704 Ry
     Harris-Foulkes estimate   =   -3971.21364878 Ry
     estimated scf accuracy    <       0.33044028 Ry

     total magnetization       =    -0.00 Bohr mag/cell
     absolute magnetization    =    37.08 Bohr mag/cell

     iteration #  4     ecut=    71.00 Ry     beta= 0.10
     Davidson diagonalization with overlap
     ethr =  1.48E-04,  avg # of iterations =  2.0

     total cpu time spent up to now is      118.6 secs

     total energy              =   -3971.26870222 Ry
     Harris-Foulkes estimate   =   -3971.26728176 Ry
     estimated scf accuracy    <       0.48172901 Ry

     total magnetization       =    -0.00 Bohr mag/cell
     absolute magnetization    =    37.48 Bohr mag/cell

     iteration #  5     ecut=    71.00 Ry     beta= 0.10
     Davidson diagonalization with overlap
     ethr =  1.48E-04,  avg # of iterations =  5.3

     total cpu time spent up to now is      152.8 secs

     total energy              =   -3971.40671847 Ry
     Harris-Foulkes estimate   =   -3971.40229582 Ry
     estimated scf accuracy    <       0.04503500 Ry

     total magnetization       =     0.00 Bohr mag/cell
     absolute magnetization    =    30.35 Bohr mag/cell

     iteration #  6     ecut=    71.00 Ry     beta= 0.10
     Davidson diagonalization with overlap
     ethr =  2.01E-05,  avg # of iterations =  3.3

     total cpu time spent up to now is      175.2 secs

     total energy              =   -3971.40002617 Ry
     Harris-Foulkes estimate   =   -3971.40798421 Ry
     estimated scf accuracy    <       0.04173670 Ry

     total magnetization       =     0.00 Bohr mag/cell
     absolute magnetization    =    30.17 Bohr mag/cell

     iteration #  7     ecut=    71.00 Ry     beta= 0.10
     Davidson diagonalization with overlap
     ethr =  1.86E-05,  avg # of iterations =  1.0

     total cpu time spent up to now is      191.2 secs

     total energy              =   -3971.42762277 Ry
     Harris-Foulkes estimate   =   -3971.40063524 Ry
     estimated scf accuracy    <       0.05212868 Ry

     total magnetization       =     0.00 Bohr mag/cell
     absolute magnetization    =    30.54 Bohr mag/cell

     iteration #  8     ecut=    71.00 Ry     beta= 0.10
     Davidson diagonalization with overlap
     ethr =  1.86E-05,  avg # of iterations =  5.9

     total cpu time spent up to now is      232.1 secs

     total energy              =   -3971.48670296 Ry
     Harris-Foulkes estimate   =   -3971.47946824 Ry
     estimated scf accuracy    <       0.02695212 Ry

     total magnetization       =    -0.00 Bohr mag/cell
     absolute magnetization    =    24.95 Bohr mag/cell

     iteration #  9     ecut=    71.00 Ry     beta= 0.10
     Davidson diagonalization with overlap
     ethr =  1.20E-05,  avg # of iterations =  2.0

     total cpu time spent up to now is      250.5 secs

     total energy              =   -3971.49586674 Ry
     Harris-Foulkes estimate   =   -3971.48820129 Ry
     estimated scf accuracy    <       0.01357561 Ry

     total magnetization       =    -0.00 Bohr mag/cell
     absolute magnetization    =    24.25 Bohr mag/cell

     iteration # 10     ecut=    71.00 Ry     beta= 0.10
     Davidson diagonalization with overlap
     ethr =  6.06E-06,  avg # of iterations =  4.8

     total cpu time spent up to now is      282.5 secs

     total energy              =   -3971.50693265 Ry
     Harris-Foulkes estimate   =   -3971.50223298 Ry
     estimated scf accuracy    <       0.01113060 Ry

     total magnetization       =    -0.00 Bohr mag/cell
     absolute magnetization    =    22.26 Bohr mag/cell

     iteration # 11     ecut=    71.00 Ry     beta= 0.10
     Davidson diagonalization with overlap
     ethr =  4.97E-06,  avg # of iterations =  2.9

     total cpu time spent up to now is      303.6 secs

     total energy              =   -3971.51189007 Ry
     Harris-Foulkes estimate   =   -3971.50788899 Ry
     estimated scf accuracy    <       0.00804609 Ry

     total magnetization       =    -0.00 Bohr mag/cell
     absolute magnetization    =    21.54 Bohr mag/cell

     iteration # 12     ecut=    71.00 Ry     beta= 0.10
     Davidson diagonalization with overlap
     ethr =  3.59E-06,  avg # of iterations =  5.3

     total cpu time spent up to now is      341.6 secs

     total energy              =   -3971.52217847 Ry
     Harris-Foulkes estimate   =   -3971.52138375 Ry
     estimated scf accuracy    <       0.00599803 Ry

     total magnetization       =     0.01 Bohr mag/cell
     absolute magnetization    =    18.97 Bohr mag/cell

     iteration # 13     ecut=    71.00 Ry     beta= 0.10
     Davidson diagonalization with overlap
     ethr =  2.68E-06,  avg # of iterations =  1.1

     total cpu time spent up to now is      357.8 secs

     total energy              =   -3971.52245734 Ry
     Harris-Foulkes estimate   =   -3971.52231504 Ry
     estimated scf accuracy    <       0.00390283 Ry

     total magnetization       =     0.00 Bohr mag/cell
     absolute magnetization    =    18.80 Bohr mag/cell

     iteration # 14     ecut=    71.00 Ry     beta= 0.10
     Davidson diagonalization with overlap
     ethr =  1.74E-06,  avg # of iterations =  2.5

     total cpu time spent up to now is      377.8 secs

     total energy              =   -3971.52444864 Ry
     Harris-Foulkes estimate   =   -3971.52261902 Ry
     estimated scf accuracy    <       0.00269012 Ry

     total magnetization       =    -0.00 Bohr mag/cell
     absolute magnetization    =    18.70 Bohr mag/cell

     iteration # 15     ecut=    71.00 Ry     beta= 0.10
     Davidson diagonalization with overlap
     ethr =  1.20E-06,  avg # of iterations =  4.3

     total cpu time spent up to now is      405.9 secs

     total energy              =   -3971.52688999 Ry
     Harris-Foulkes estimate   =   -3971.52531478 Ry
     estimated scf accuracy    <       0.00225507 Ry

     total magnetization       =     0.00 Bohr mag/cell
     absolute magnetization    =    17.94 Bohr mag/cell

     iteration # 16     ecut=    71.00 Ry     beta= 0.10
     Davidson diagonalization with overlap
     ethr =  1.01E-06,  avg # of iterations =  5.0

     total cpu time spent up to now is      440.9 secs

     total energy              =   -3971.53023078 Ry
     Harris-Foulkes estimate   =   -3971.52938207 Ry
     estimated scf accuracy    <       0.00130183 Ry

     total magnetization       =     0.00 Bohr mag/cell
     absolute magnetization    =    16.59 Bohr mag/cell

     iteration # 17     ecut=    71.00 Ry     beta= 0.10
     Davidson diagonalization with overlap
     ethr =  5.81E-07,  avg # of iterations =  5.3

     total cpu time spent up to now is      476.8 secs

     total energy              =   -3971.53249699 Ry
     Harris-Foulkes estimate   =   -3971.53246570 Ry
     estimated scf accuracy    <       0.00123264 Ry

     total magnetization       =     0.00 Bohr mag/cell
     absolute magnetization    =    15.27 Bohr mag/cell

     iteration # 18     ecut=    71.00 Ry     beta= 0.10
     Davidson diagonalization with overlap
     ethr =  5.50E-07,  avg # of iterations =  1.6

     total cpu time spent up to now is      494.3 secs

     total energy              =   -3971.53314717 Ry
     Harris-Foulkes estimate   =   -3971.53254975 Ry
     estimated scf accuracy    <       0.00084944 Ry

     total magnetization       =     0.00 Bohr mag/cell
     absolute magnetization    =    15.23 Bohr mag/cell

     iteration # 19     ecut=    71.00 Ry     beta= 0.10
     Davidson diagonalization with overlap
     ethr =  3.79E-07,  avg # of iterations =  4.0

     total cpu time spent up to now is      522.6 secs

     total energy              =   -3971.53400947 Ry
     Harris-Foulkes estimate   =   -3971.53346012 Ry
     estimated scf accuracy    <       0.00155799 Ry

     total magnetization       =     0.01 Bohr mag/cell
     absolute magnetization    =    14.79 Bohr mag/cell

     iteration # 20     ecut=    71.00 Ry     beta= 0.10
     Davidson diagonalization with overlap
     ethr =  3.79E-07,  avg # of iterations =  4.5

     total cpu time spent up to now is      553.5 secs

     total energy              =   -3971.49419196 Ry
     Harris-Foulkes estimate   =   -3971.53457579 Ry
     estimated scf accuracy    <       0.00149002 Ry

     total magnetization       =     0.01 Bohr mag/cell
     absolute magnetization    =    14.12 Bohr mag/cell

     iteration # 21     ecut=    71.00 Ry     beta= 0.10
     Davidson diagonalization with overlap
     ethr =  3.79E-07,  avg # of iterations =  5.9

     total cpu time spent up to now is      604.4 secs

     total energy              =   -3971.52668501 Ry
     Harris-Foulkes estimate   =   -3971.53864871 Ry
     estimated scf accuracy    <       0.00053342 Ry

     total magnetization       =     0.01 Bohr mag/cell
     absolute magnetization    =     8.05 Bohr mag/cell

     iteration # 22     ecut=    71.00 Ry     beta= 0.10
     Davidson diagonalization with overlap
     ethr =  2.38E-07,  avg # of iterations =  5.8

     total cpu time spent up to now is      654.6 secs

     total energy              =   -3971.53077627 Ry
     Harris-Foulkes estimate   =   -3971.53756343 Ry
     estimated scf accuracy    <       0.00039360 Ry

     total magnetization       =     0.01 Bohr mag/cell
     absolute magnetization    =    11.06 Bohr mag/cell

     iteration # 23     ecut=    71.00 Ry     beta= 0.10
     Davidson diagonalization with overlap
     ethr =  1.76E-07,  avg # of iterations =  5.6

     total cpu time spent up to now is      697.7 secs

     total energy              =   -3971.53394642 Ry
     Harris-Foulkes estimate   =   -3971.53583441 Ry
     estimated scf accuracy    <       0.00050695 Ry

     total magnetization       =     0.00 Bohr mag/cell
     absolute magnetization    =    13.08 Bohr mag/cell

     iteration # 24     ecut=    71.00 Ry     beta= 0.10
     Davidson diagonalization with overlap
     ethr =  1.76E-07,  avg # of iterations =  5.1

     total cpu time spent up to now is      733.0 secs

     total energy              =   -3971.52667026 Ry
     Harris-Foulkes estimate   =   -3971.53480471 Ry
     estimated scf accuracy    <       0.00076031 Ry

     total magnetization       =    -0.00 Bohr mag/cell
     absolute magnetization    =    13.90 Bohr mag/cell

     iteration # 25     ecut=    71.00 Ry     beta= 0.10
     Davidson diagonalization with overlap
     ethr =  1.76E-07,  avg # of iterations =  5.5

     total cpu time spent up to now is      778.3 secs

     total energy              =   -3971.46977164 Ry
     Harris-Foulkes estimate   =   -3971.53136333 Ry
     estimated scf accuracy    <       0.00176444 Ry

     total magnetization       =    -0.00 Bohr mag/cell
     absolute magnetization    =    15.81 Bohr mag/cell

     iteration # 26     ecut=    71.00 Ry     beta= 0.10
     Davidson diagonalization with overlap
     ethr =  1.76E-07,  avg # of iterations =  7.4

     total cpu time spent up to now is      831.9 secs

     total energy              =   -3971.53554190 Ry
     Harris-Foulkes estimate   =   -3971.53879382 Ry
     estimated scf accuracy    <       0.00017638 Ry

     total magnetization       =     0.00 Bohr mag/cell
     absolute magnetization    =     8.29 Bohr mag/cell

     iteration # 27     ecut=    71.00 Ry     beta= 0.10
     Davidson diagonalization with overlap
     ethr =  7.87E-08,  avg # of iterations =  5.9

     total cpu time spent up to now is      883.9 secs

     total energy              =   -3971.53897387 Ry
     Harris-Foulkes estimate   =   -3971.53900689 Ry
     estimated scf accuracy    <       0.00009213 Ry

     total magnetization       =     0.01 Bohr mag/cell
     absolute magnetization    =     6.58 Bohr mag/cell

     iteration # 28     ecut=    71.00 Ry     beta= 0.10
     Davidson diagonalization with overlap
     ethr =  4.11E-08,  avg # of iterations =  4.0

     total cpu time spent up to now is      911.5 secs

     total energy              =   -3971.53894513 Ry
     Harris-Foulkes estimate   =   -3971.53901383 Ry
     estimated scf accuracy    <       0.00007913 Ry

     total magnetization       =     0.01 Bohr mag/cell
     absolute magnetization    =     6.39 Bohr mag/cell

     iteration # 29     ecut=    71.00 Ry     beta= 0.10
     Davidson diagonalization with overlap
     ethr =  3.53E-08,  avg # of iterations =  4.2

     total cpu time spent up to now is      942.3 secs

     total energy              =   -3971.52856283 Ry
     Harris-Foulkes estimate   =   -3971.53902563 Ry
     estimated scf accuracy    <       0.00007590 Ry

     total magnetization       =     0.01 Bohr mag/cell
     absolute magnetization    =     6.13 Bohr mag/cell

     iteration # 30     ecut=    71.00 Ry     beta= 0.10
     Davidson diagonalization with overlap
     ethr =  3.39E-08,  avg # of iterations =  6.1

     total cpu time spent up to now is      995.7 secs

     total energy              =   -3971.53703706 Ry
     Harris-Foulkes estimate   =   -3971.53899732 Ry
     estimated scf accuracy    <       0.00002446 Ry

     total magnetization       =     0.01 Bohr mag/cell
     absolute magnetization    =     3.13 Bohr mag/cell

     iteration # 31     ecut=    71.00 Ry     beta= 0.10
     Davidson diagonalization with overlap
     c_bands:  1 eigenvalues not converged
     ethr =  1.09E-08,  avg # of iterations =  6.5

     total cpu time spent up to now is     1054.2 secs

     total energy              =   -3971.53764159 Ry
     Harris-Foulkes estimate   =   -3971.53896248 Ry
     estimated scf accuracy    <       0.00001333 Ry

     total magnetization       =     0.01 Bohr mag/cell
     absolute magnetization    =     1.84 Bohr mag/cell

     iteration # 32     ecut=    71.00 Ry     beta= 0.10
     Davidson diagonalization with overlap
     ethr =  5.95E-09,  avg # of iterations =  6.0

     total cpu time spent up to now is     1110.0 secs

     total energy              =   -3971.53899625 Ry
     Harris-Foulkes estimate   =   -3971.53899762 Ry
     estimated scf accuracy    <       0.00001318 Ry

     total magnetization       =     0.01 Bohr mag/cell
     absolute magnetization    =     2.93 Bohr mag/cell

     iteration # 33     ecut=    71.00 Ry     beta= 0.10
     Davidson diagonalization with overlap
     ethr =  5.88E-09,  avg # of iterations =  3.9

     total cpu time spent up to now is     1137.6 secs

     total energy              =   -3971.53777965 Ry
     Harris-Foulkes estimate   =   -3971.53900140 Ry
     estimated scf accuracy    <       0.00000949 Ry

     total magnetization       =     0.01 Bohr mag/cell
     absolute magnetization    =     2.99 Bohr mag/cell

     iteration # 34     ecut=    71.00 Ry     beta= 0.10
     Davidson diagonalization with overlap
     ethr =  4.23E-09,  avg # of iterations =  6.2

     total cpu time spent up to now is     1193.8 secs

     total energy              =   -3971.53886306 Ry
     Harris-Foulkes estimate   =   -3971.53903586 Ry
     estimated scf accuracy    <       0.00000403 Ry

     total magnetization       =     0.00 Bohr mag/cell
     absolute magnetization    =     4.03 Bohr mag/cell

     iteration # 35     ecut=    71.00 Ry     beta= 0.10
     Davidson diagonalization with overlap
     ethr =  1.80E-09,  avg # of iterations =  5.9

     total cpu time spent up to now is     1249.1 secs

     total energy              =   -3971.53899926 Ry
     Harris-Foulkes estimate   =   -3971.53904566 Ry
     estimated scf accuracy    <       0.00000261 Ry

     total magnetization       =     0.00 Bohr mag/cell
     absolute magnetization    =     4.43 Bohr mag/cell

     iteration # 36     ecut=    71.00 Ry     beta= 0.10
     Davidson diagonalization with overlap
     ethr =  1.16E-09,  avg # of iterations =  5.6

     total cpu time spent up to now is     1301.0 secs

     total energy              =   -3971.53890089 Ry
     Harris-Foulkes estimate   =   -3971.53905293 Ry
     estimated scf accuracy    <       0.00000178 Ry

     total magnetization       =     0.00 Bohr mag/cell
     absolute magnetization    =     4.64 Bohr mag/cell

     iteration # 37     ecut=    71.00 Ry     beta= 0.10
     Davidson diagonalization with overlap
     ethr =  7.93E-10,  avg # of iterations =  6.0

     total cpu time spent up to now is     1357.5 secs

     total energy              =   -3971.53899462 Ry
     Harris-Foulkes estimate   =   -3971.53905994 Ry
     estimated scf accuracy    <       0.00000143 Ry

     total magnetization       =     0.00 Bohr mag/cell
     absolute magnetization    =     5.01 Bohr mag/cell

     iteration # 38     ecut=    71.00 Ry     beta= 0.10
     Davidson diagonalization with overlap
     ethr =  6.40E-10,  avg # of iterations =  6.0
 
     Magnetic moment per site:
     atom:    1    charge:   12.2113    magn:    0.3097    constr:    0.0000
     atom:    2    charge:   12.2113    magn:   -0.3057    constr:    0.0000
     atom:    3    charge:   12.2114    magn:    0.3062    constr:    0.0000
     atom:    4    charge:   12.2113    magn:   -0.3057    constr:    0.0000
     atom:    5    charge:   12.2114    magn:    0.3062    constr:    0.0000
     atom:    6    charge:   12.2113    magn:   -0.3057    constr:    0.0000
     atom:    7    charge:   12.2113    magn:    0.3047    constr:    0.0000
     atom:    8    charge:   12.2113    magn:   -0.3057    constr:    0.0000
     atom:    9    charge:   12.2114    magn:    0.3062    constr:    0.0000
     atom:   10    charge:   12.2113    magn:   -0.3057    constr:    0.0000
     atom:   11    charge:   12.2113    magn:    0.3047    constr:    0.0000
     atom:   12    charge:   12.2113    magn:   -0.3057    constr:    0.0000
     atom:   13    charge:   12.2113    magn:    0.3047    constr:    0.0000
     atom:   14    charge:   12.2113    magn:   -0.3057    constr:    0.0000
     atom:   15    charge:   12.2113    magn:    0.3072    constr:    0.0000
     atom:   16    charge:   12.2113    magn:   -0.3057    constr:    0.0000

     total cpu time spent up to now is     1413.2 secs

     End of self-consistent calculation

 ------ SPIN UP ------------


          k = 0.0557 0.0557 0.0557 ( 12407 PWs)   bands (ev):

   -52.1052 -52.0091 -52.0073 -52.0073 -51.9904 -51.9886 -51.9885 -51.9720
   -51.6760 -51.6760 -51.6760 -51.6587 -51.6587 -51.6587 -51.6414 -51.6102
   -23.7717 -23.7717 -23.7711 -23.7672 -23.7667 -23.7667 -23.4831 -23.4831
   -23.4734 -23.4637 -23.4636 -23.4636 -23.4419 -23.4274 -23.4274 -23.2899
   -23.2894 -23.2894 -23.2695 -23.2695 -23.2687 -23.2501 -23.2500 -23.2500
   -23.1082 -23.1082 -23.1081 -23.0930 -23.0930 -23.0781 -22.9385 -22.9384
   -22.9384 -22.9314 -22.9314 -22.9313 -22.9241 -22.9241 -22.9239 -22.7689
   -22.7687 -22.7687 -22.7641 -22.7641 -22.7639 -22.7554 -22.7450 -22.7450
    11.9603  15.3414  15.3414  15.3414  15.3892  15.3892  15.3893  15.4745
    15.4745  15.6319  15.6320  15.6320  16.0676  16.0676  16.0676  17.2877
    17.3635  17.3635  17.3638  17.3753  17.3753  17.3795  17.3798  17.3799
    17.6451  17.6451  17.6875  17.7392  17.7392  17.7395  18.2442  18.2442
    18.2444  18.9283  18.9283  18.9843  19.2273  19.2282  19.2282  19.3372
    19.3372  19.3380  19.5589  19.5589  19.5592  19.6955  19.6956  19.6956
    20.4739  20.4739  20.4742  20.5876  20.5876  20.5880  20.8301  20.8301
    20.8301  20.8885  20.8885  20.8887  21.0294  21.0294  21.0299  21.0487
    21.0487  21.0993  21.0993  21.0993  21.3420  21.3420

          k = 0.0557 0.0557 0.1671 ( 12434 PWs)   bands (ev):

   -52.1001 -52.0150 -52.0073 -52.0062 -51.9912 -51.9897 -51.9879 -51.9730
   -51.6750 -51.6750 -51.6709 -51.6597 -51.6597 -51.6577 -51.6425 -51.6134
   -23.7587 -23.7585 -23.7571 -23.7532 -23.7450 -23.7446 -23.4894 -23.4882
   -23.4882 -23.4764 -23.4734 -23.4728 -23.4645 -23.4591 -23.4145 -23.3509
   -23.3503 -23.2975 -23.2888 -23.2693 -23.2692 -23.2606 -23.2513 -23.2513
   -23.0907 -23.0879 -23.0566 -23.0551 -23.0550 -23.0411 -22.9392 -22.9391
   -22.9349 -22.9252 -22.9251 -22.9203 -22.9143 -22.9143 -22.9125 -22.7830
   -22.7828 -22.7812 -22.7790 -22.7771 -22.7682 -22.7680 -22.7534 -22.7494
    12.0978  15.0754  15.3802  15.3802  15.4508  15.4563  15.4564  15.5029
    15.5456  15.5551  15.6732  15.6732  16.0979  16.0979  16.3159  17.1605
    17.2889  17.2990  17.3070  17.3436  17.3582  17.4217  17.4220  17.4700
    17.4703  17.5036  17.7038  17.7040  17.8452  17.8534  18.1377  18.1378
    18.6641  18.8957  18.9201  19.0010  19.0018  19.0567  19.0904  19.2588
    19.2588  19.2606  19.5477  19.5478  19.7901  19.8178  19.8180  19.9360
    20.0168  20.0170  20.2318  20.3129  20.3130  20.3198  20.4482  20.7822
    20.7824  20.9450  20.9454  20.9523  21.0382  21.0511  21.0513  21.0872
    21.1078  21.1323  21.1323  21.1493  21.3243  21.3389

          k = 0.0557 0.0557 0.2786 ( 12451 PWs)   bands (ev):

   -52.0904 -52.0275 -52.0053 -52.0041 -51.9932 -51.9918 -51.9861 -51.9750
   -51.6730 -51.6730 -51.6619 -51.6617 -51.6617 -51.6557 -51.6444 -51.6196
   -23.7301 -23.7301 -23.7294 -23.7265 -23.7061 -23.7056 -23.5309 -23.5308
   -23.5278 -23.5208 -23.4946 -23.4843 -23.4548 -23.4392 -23.4294 -23.4288
   -23.3944 -23.3210 -23.3182 -23.2806 -23.2672 -23.2671 -23.2538 -23.2538
   -23.0699 -23.0509 -23.0022 -22.9925 -22.9923 -22.9906 -22.9553 -22.9378
   -22.9376 -22.9272 -22.9271 -22.8903 -22.8874 -22.8874 -22.8820 -22.8181
   -22.8066 -22.8064 -22.8052 -22.8032 -22.7807 -22.7806 -22.7697 -22.7636
    12.3678  14.4547  15.4588  15.4589  15.5763  15.5764  15.6605  15.6866
    15.7057  15.7211  15.7211  15.7218  16.1092  16.1093  16.3795  16.8778
    16.9621  17.1085  17.2341  17.3087  17.3126  17.3209  17.5518  17.5521
    17.6320  17.6323  17.7262  17.7265  18.0795  18.0796  18.1262  18.1469
    18.6760  18.6767  18.8721  18.8825  18.8826  18.8982  18.9078  18.9773
    19.1632  19.3941  19.3983  19.3986  19.6502  19.6504  19.8554  19.8555
    19.8794  19.9128  19.9241  20.0278  20.0281  20.1655  20.2647  20.7638
    20.8156  20.8160  20.9426  20.9428  21.0741  21.1550  21.1615  21.1631
    21.1632  21.2896  21.3331  21.3339  21.4291  21.4715

          k = 0.0557 0.0557 0.3900 ( 12443 PWs)   bands (ev):

   -52.0768 -52.0435 -52.0024 -52.0013 -51.9960 -51.9946 -51.9836 -51.9776
   -51.6704 -51.6704 -51.6644 -51.6644 -51.6531 -51.6507 -51.6471 -51.6283
   -23.6898 -23.6887 -23.6883 -23.6878 -23.6519 -23.6513 -23.5850 -23.5832
   -23.5831 -23.5816 -23.5095 -23.5089 -23.4978 -23.4933 -23.4282 -23.4128
   -23.3680 -23.3582 -23.3485 -23.3073 -23.2641 -23.2640 -23.2569 -23.2569
   -23.0439 -22.9947 -22.9826 -22.9437 -22.9374 -22.9374 -22.9363 -22.9316
   -22.9315 -22.9298 -22.9296 -22.8708 -22.8565 -22.8564 -22.8561 -22.8477
   -22.8409 -22.8403 -22.8397 -22.8395 -22.8004 -22.8003 -22.7931 -22.7858
    12.7594  13.8323  15.5631  15.5632  15.7254  15.7255  15.7335  15.7336
    15.8951  15.9040  15.9517  16.0283  16.0435  16.0436  16.2934  16.4971
    16.6513  16.7772  17.2186  17.2425  17.2681  17.2786  17.7480  17.7483
    17.8589  17.8591  17.9050  17.9053  18.1539  18.1540  18.3784  18.3789
    18.4869  18.5074  18.5162  18.5164  18.8079  18.8082  18.8608  18.8980
    18.9047  18.9109  19.0372  19.0373  19.3065  19.3934  19.3991  19.6965
    19.7642  20.1636  20.1636  20.2777  20.2781  20.4922  20.5114  20.6422
    20.6424  20.6481  20.7694  20.7696  21.1253  21.2250  21.2408  21.2664
    21.3222  21.3270  21.3376  21.4007  21.4931  21.5355

          k = 0.0557 0.0557-0.5014 ( 12408 PWs)   bands (ev):

   -52.0611 -52.0602 -51.9995 -51.9989 -51.9987 -51.9972 -51.9810 -51.9801
   -51.6675 -51.6675 -51.6672 -51.6672 -51.6502 -51.6499 -51.6392 -51.6389
   -23.6403 -23.6399 -23.6394 -23.6390 -23.6380 -23.6378 -23.6376 -23.6375
   -23.5851 -23.5849 -23.5848 -23.5841 -23.4980 -23.4973 -23.3956 -23.3948
   -23.3819 -23.3813 -23.3380 -23.3371 -23.2610 -23.2609 -23.2600 -23.2600
   -23.0134 -23.0131 -22.9329 -22.9328 -22.9326 -22.9324 -22.9321 -22.9318
   -22.8887 -22.8883 -22.8850 -22.8846 -22.8822 -22.8821 -22.8820 -22.8817
   -22.8264 -22.8264 -22.8262 -22.8262 -22.8228 -22.8225 -22.8146 -22.8143
    13.2555  13.2558  15.6647  15.6647  15.6648  15.6648  15.9027  15.9028
    15.9029  15.9030  16.1155  16.1158  16.1668  16.1672  16.2952  16.2957
    16.3938  16.3942  17.2336  17.2341  17.2456  17.2460  17.9967  17.9968
    17.9969  17.9973  18.1106  18.1107  18.1109  18.1111  18.3369  18.3371
    18.3371  18.3376  18.5506  18.5507  18.5508  18.5509  18.8685  18.8688
    18.8981  18.8986  18.9145  18.9145  18.9271  18.9272  19.4856  19.4861
    20.1511  20.1515  20.4265  20.4266  20.4267  20.4268  20.5382  20.5383
    20.5384  20.5387  20.9171  20.9174  21.0661  21.0665  21.1831  21.1839
    21.3096  21.3099  21.3216  21.3224  21.3966  21.3970

          k = 0.0557 0.1671 0.1671 ( 12435 PWs)   bands (ev):

   -52.0952 -52.0141 -52.0128 -52.0056 -51.9921 -51.9895 -51.9887 -51.9741
   -51.6739 -51.6703 -51.6702 -51.6604 -51.6587 -51.6587 -51.6435 -51.6164
   -23.7541 -23.7453 -23.7448 -23.7326 -23.7324 -23.7151 -23.5075 -23.5032
   -23.5007 -23.5005 -23.5000 -23.4783 -23.4681 -23.4380 -23.4177 -23.3843
   -23.3373 -23.3366 -23.2883 -23.2874 -23.2788 -23.2627 -23.2625 -23.2539
   -23.0836 -23.0591 -23.0591 -23.0341 -23.0191 -23.0056 -22.9479 -22.9371
   -22.9370 -22.9250 -22.9214 -22.9214 -22.8940 -22.8919 -22.8918 -22.8094
   -22.8052 -22.7925 -22.7924 -22.7801 -22.7799 -22.7631 -22.7605 -22.7464
    12.2333  15.1352  15.1353  15.3603  15.4916  15.4916  15.5623  15.5677
    15.5678  15.6173  15.6333  15.7248  16.1427  16.3501  16.3501  17.0465
    17.1934  17.3004  17.3005  17.3608  17.3983  17.3985  17.4415  17.4417
    17.4476  17.5916  17.5979  17.6467  17.7997  17.8896  18.0187  18.4708
    18.4711  18.8211  18.8617  18.8621  18.8992  18.9145  19.0988  19.1770
    19.4936  19.4942  19.5461  19.5467  19.5666  19.6519  19.8480  19.8480
    19.8907  19.9897  19.9900  20.0514  20.0514  20.1568  20.5201  20.5206
    20.8132  20.9364  20.9698  20.9700  21.0015  21.0590  21.0592  21.0593
    21.0647  21.2971  21.3101  21.3329  21.3714  21.3976

          k = 0.0557 0.1671 0.2786 ( 12440 PWs)   bands (ev):

   -52.0858 -52.0255 -52.0107 -52.0035 -51.9948 -51.9913 -51.9872 -51.9760
   -51.6720 -51.6690 -51.6619 -51.6616 -51.6607 -51.6567 -51.6455 -51.6222
   -23.7336 -23.7189 -23.7183 -23.7086 -23.6958 -23.6696 -23.5465 -23.5429
   -23.5420 -23.5230 -23.5143 -23.5124 -23.4505 -23.4443 -23.4129 -23.4018
   -23.3993 -23.3301 -23.3173 -23.2839 -23.2836 -23.2820 -23.2661 -23.2585
   -23.0713 -23.0493 -23.0136 -22.9875 -22.9704 -22.9615 -22.9591 -22.9520
   -22.9409 -22.9247 -22.9218 -22.8926 -22.8693 -22.8612 -22.8591 -22.8535
   -22.8353 -22.8120 -22.8118 -22.8032 -22.7887 -22.7761 -22.7669 -22.7526
    12.4988  14.5354  15.2311  15.3669  15.5713  15.6858  15.7043  15.7129
    15.7515  15.7820  15.7864  15.7920  16.1799  16.3520  16.4241  16.9058
    16.9076  17.0529  17.2998  17.3575  17.3819  17.3929  17.4501  17.5182
    17.5449  17.5877  17.6273  17.7832  17.9227  17.9993  18.0874  18.3352
    18.5594  18.6753  18.6857  18.7507  18.7675  18.8247  18.8738  19.0438
    19.1150  19.2863  19.3297  19.4790  19.5380  19.6201  19.6325  19.6797
    19.7743  19.8899  19.9057  20.0705  20.0892  20.2480  20.2769  20.6497
    20.7928  20.8473  20.8898  20.9485  20.9873  21.0169  21.1003  21.1149
    21.2722  21.2898  21.3317  21.4105  21.4259  21.4573

          k = 0.0557 0.1671 0.3900 ( 12434 PWs)   bands (ev):

   -52.0727 -52.0407 -52.0070 -52.0007 -51.9985 -51.9941 -51.9847 -51.9786
   -51.6693 -51.6673 -51.6634 -51.6633 -51.6541 -51.6514 -51.6481 -51.6304
   -23.6987 -23.6815 -23.6803 -23.6742 -23.6449 -23.6111 -23.5999 -23.5889
   -23.5866 -23.5774 -23.5232 -23.5214 -23.5138 -23.4708 -23.4246 -23.3851
   -23.3750 -23.3570 -23.3351 -23.3118 -23.2801 -23.2781 -23.2708 -23.2646
   -23.0486 -23.0156 -22.9879 -22.9648 -22.9532 -22.9456 -22.9349 -22.9244
   -22.9217 -22.9200 -22.9155 -22.9076 -22.8724 -22.8596 -22.8443 -22.8425
   -22.8400 -22.8351 -22.8288 -22.8246 -22.8028 -22.7988 -22.7796 -22.7691
    12.8832  13.9314  15.3224  15.3809  15.6745  15.8174  15.8409  15.8949
    15.9435  15.9936  15.9971  16.0807  16.1369  16.2574  16.3453  16.5500
    16.6640  16.7861  17.2581  17.3100  17.3236  17.3394  17.6228  17.6895
    17.7094  17.7445  17.7757  17.9228  18.0350  18.1912  18.3237  18.3974
    18.4263  18.4627  18.5183  18.5467  18.6898  18.7010  18.7294  18.7507
    18.7841  18.8452  18.9332  19.0642  19.1440  19.1799  19.5085  19.8980
    19.9502  20.1498  20.2007  20.2408  20.2983  20.3009  20.4797  20.5573
    20.5935  20.6789  20.7731  20.8281  21.0008  21.0796  21.1737  21.2161
    21.2221  21.2670  21.3351  21.3678  21.3748  21.3885

          k = 0.0557 0.1671-0.5014 ( 12410 PWs)   bands (ev):

   -52.0576 -52.0567 -52.0032 -52.0023 -51.9980 -51.9968 -51.9821 -51.9812
   -51.6665 -51.6662 -51.6655 -51.6651 -51.6513 -51.6509 -51.6406 -51.6403
   -23.6528 -23.6525 -23.6368 -23.6359 -23.6348 -23.6344 -23.6304 -23.6297
   -23.5829 -23.5825 -23.5434 -23.5432 -23.5256 -23.5252 -23.3929 -23.3921
   -23.3577 -23.3572 -23.3440 -23.3431 -23.2761 -23.2753 -23.2718 -23.2709
   -23.0193 -23.0191 -22.9646 -22.9644 -22.9501 -22.9499 -22.9268 -22.9266
   -22.9129 -22.9127 -22.8850 -22.8847 -22.8765 -22.8762 -22.8728 -22.8725
   -22.8274 -22.8270 -22.8217 -22.8215 -22.8007 -22.8006 -22.7937 -22.7935
    13.3689  13.3692  15.3738  15.3740  15.7705  15.7706  16.0065  16.0066
    16.0880  16.0881  16.1643  16.1646  16.2433  16.2437  16.3350  16.3356
    16.4327  16.4331  17.2703  17.2707  17.3039  17.3043  17.8652  17.8656
    17.9001  17.9003  17.9321  17.9323  18.0042  18.0046  18.3773  18.3773
    18.4073  18.4074  18.5431  18.5432  18.6425  18.6426  18.6790  18.6792
    18.7160  18.7161  18.7679  18.7680  18.8171  18.8176  19.7093  19.7095
    20.2644  20.2647  20.3141  20.3142  20.4655  20.4657  20.5456  20.5458
    20.5881  20.5882  20.5902  20.5904  20.9811  20.9814  21.1487  21.1494
    21.2670  21.2673  21.3470  21.3478  21.3569  21.3574

          k = 0.0557 0.2786 0.2786 ( 12431 PWs)   bands (ev):

   -52.0771 -52.0222 -52.0210 -52.0015 -51.9987 -51.9899 -51.9888 -51.9780
   -51.6700 -51.6619 -51.6618 -51.6615 -51.6587 -51.6587 -51.6474 -51.6273
   -23.7217 -23.6966 -23.6960 -23.6764 -23.6763 -23.6187 -23.5662 -23.5642
   -23.5606 -23.5598 -23.5414 -23.5333 -23.4774 -23.4346 -23.3998 -23.3840
   -23.3654 -23.3643 -23.3120 -23.3110 -23.2967 -23.2893 -23.2889 -23.2671
   -23.0661 -23.0314 -23.0313 -22.9654 -22.9652 -22.9651 -22.9545 -22.9366
   -22.9255 -22.9204 -22.9022 -22.8962 -22.8961 -22.8706 -22.8487 -22.8282
   -22.8279 -22.8248 -22.8246 -22.8047 -22.8045 -22.7903 -22.7613 -22.7487
    12.7549  14.6804  14.6806  15.2780  15.7852  15.7853  15.8681  15.8734
    15.8943  15.8944  15.8987  15.9477  16.2726  16.4346  16.4348  16.8306
    16.9627  17.0389  17.0390  17.3463  17.4594  17.4596  17.5130  17.5132
    17.5270  17.5277  17.6083  17.7694  17.9083  18.0027  18.0844  18.4354
    18.4359  18.5641  18.5646  18.5782  18.6097  18.6251  18.6849  18.8267
    19.0672  19.0673  19.1816  19.1818  19.3169  19.4003  19.4010  19.5344
    20.0049  20.0054  20.0679  20.1987  20.2275  20.2278  20.4782  20.6096
    20.6102  20.7867  20.9085  20.9088  20.9588  20.9846  20.9846  21.0137
    21.0817  21.2277  21.3121  21.3378  21.3920  21.4347

          k = 0.0557 0.2786 0.3900 ( 12398 PWs)   bands (ev):

   -52.0650 -52.0355 -52.0163 -52.0041 -51.9987 -51.9922 -51.9867 -51.9806
   -51.6674 -51.6618 -51.6614 -51.6614 -51.6561 -51.6527 -51.6501 -51.6344
   -23.6952 -23.6660 -23.6651 -23.6485 -23.6320 -23.6102 -23.5965 -23.5946
   -23.5752 -23.5656 -23.5568 -23.5507 -23.5254 -23.4217 -23.4106 -23.3810
   -23.3572 -23.3518 -23.3353 -23.3191 -23.3027 -23.3020 -23.2955 -23.2782
   -23.0501 -23.0294 -22.9974 -22.9949 -22.9730 -22.9710 -22.9549 -22.9202
   -22.9154 -22.9056 -22.9017 -22.9007 -22.8888 -22.8663 -22.8467 -22.8441
   -22.8308 -22.8272 -22.8111 -22.8089 -22.7992 -22.7971 -22.7649 -22.7555
    13.1240  14.1180  14.8586  15.1720  15.8844  15.9741  16.0292  16.0427
    16.0468  16.0766  16.1695  16.1796  16.2922  16.3562  16.3704  16.6764
    16.7203  16.7877  17.3162  17.3241  17.3918  17.4286  17.4345  17.5487
    17.5894  17.6453  17.7095  17.7382  18.0939  18.1418  18.1674  18.2490
    18.2917  18.4159  18.4292  18.5180  18.5220  18.5239  18.6144  18.6513
    18.7450  18.7591  18.7717  18.8426  18.9331  19.0029  19.7228  19.7542
    20.1814  20.2023  20.3083  20.3314  20.3472  20.3637  20.3883  20.4626
    20.5986  20.6545  20.7553  20.8100  20.8455  20.9789  20.9891  21.0632
    21.1344  21.1518  21.1592  21.2885  21.3436  21.3540

          k = 0.0557 0.2786-0.5014 ( 12420 PWs)   bands (ev):

   -52.0511 -52.0501 -52.0107 -52.0098 -51.9960 -51.9949 -51.9841 -51.9832
   -51.6645 -51.6642 -51.6617 -51.6614 -51.6532 -51.6529 -51.6434 -51.6431
   -23.6570 -23.6568 -23.6316 -23.6306 -23.6299 -23.6296 -23.6140 -23.6135
   -23.5800 -23.5795 -23.5623 -23.5621 -23.4890 -23.4889 -23.3813 -23.3806
   -23.3521 -23.3514 -23.3394 -23.3391 -23.3014 -23.3008 -23.2909 -23.2900
   -23.0251 -23.0250 -23.0015 -23.0014 -22.9745 -22.9744 -22.9564 -22.9563
   -22.9062 -22.9059 -22.8780 -22.8777 -22.8704 -22.8701 -22.8556 -22.8554
   -22.8372 -22.8369 -22.8177 -22.8175 -22.7776 -22.7776 -22.7722 -22.7722
    13.5871  13.5874  15.0313  15.0316  15.9641  15.9642  16.1955  16.1956
    16.2123  16.2127  16.2158  16.2159  16.4000  16.4004  16.4306  16.4310
    16.5009  16.5013  17.3366  17.3371  17.3892  17.3894  17.6547  17.6551
    17.7004  17.7008  17.7025  17.7028  17.9280  17.9281  18.3643  18.3645
    18.4098  18.4099  18.4565  18.4566  18.4858  18.4859  18.5229  18.5230
    18.6236  18.6237  18.6475  18.6475  18.7149  18.7153  19.9289  19.9290
    20.2320  20.2321  20.2568  20.2568  20.4405  20.4407  20.5550  20.5551
    20.5982  20.5986  20.6351  20.6353  20.7746  20.7749  21.0757  21.0764
    21.1718  21.1721  21.2847  21.2852  21.3321  21.3321

          k = 0.0557 0.3900 0.3900 ( 12413 PWs)   bands (ev):

   -52.0542 -52.0290 -52.0278 -52.0117 -51.9959 -51.9901 -51.9889 -51.9833
   -51.6647 -51.6593 -51.6587 -51.6587 -51.6546 -51.6545 -51.6527 -51.6402
   -23.6778 -23.6464 -23.6457 -23.6151 -23.6146 -23.6098 -23.6091 -23.6090
   -23.6077 -23.5811 -23.5776 -23.5470 -23.4944 -23.3896 -23.3777 -23.3762
   -23.3754 -23.3397 -23.3303 -23.3293 -23.3265 -23.3257 -23.3209 -23.2955
   -23.0427 -23.0202 -23.0200 -22.9995 -22.9994 -22.9977 -22.9892 -22.9541
   -22.8998 -22.8924 -22.8827 -22.8759 -22.8758 -22.8621 -22.8546 -22.8543
   -22.8289 -22.8217 -22.8208 -22.8206 -22.7752 -22.7749 -22.7587 -22.7519
    13.4678  14.3687  14.3688  14.9266  16.1305  16.1424  16.1621  16.1623
    16.1796  16.3077  16.3078  16.3462  16.3465  16.4121  16.4235  16.6316
    16.7378  17.0045  17.0048  17.3524  17.4367  17.4687  17.4726  17.4729
    17.5212  17.5213  17.5765  17.7544  17.8318  17.9978  18.1866  18.1871
    18.2084  18.2974  18.3714  18.3944  18.3948  18.4286  18.5270  18.5271
    18.5805  18.5810  18.5862  18.6954  18.7421  19.3273  19.3280  19.9399
    20.2402  20.2632  20.3033  20.3037  20.4856  20.4859  20.4871  20.5345
    20.6835  20.6841  20.6977  20.8297  20.8308  20.8593  20.8598  20.8991
    20.8993  21.0731  21.1195  21.1696  21.2412  21.3569

          k = 0.0557 0.3900-0.5014 ( 12416 PWs)   bands (ev):

   -52.0421 -52.0411 -52.0206 -52.0196 -51.9933 -51.9922 -51.9868 -51.9860
   -51.6619 -51.6616 -51.6570 -51.6567 -51.6559 -51.6555 -51.6473 -51.6469
   -23.6483 -23.6482 -23.6270 -23.6258 -23.6255 -23.6252 -23.5981 -23.5981
   -23.5962 -23.5958 -23.5787 -23.5784 -23.4310 -23.4310 -23.3658 -23.3652
   -23.3557 -23.3553 -23.3411 -23.3408 -23.3284 -23.3280 -23.3140 -23.3132
   -23.0249 -23.0248 -23.0221 -23.0221 -22.9981 -22.9980 -22.9916 -22.9916
   -22.8876 -22.8873 -22.8712 -22.8709 -22.8667 -22.8665 -22.8512 -22.8509
   -22.8388 -22.8386 -22.8186 -22.8184 -22.7621 -22.7620 -22.7588 -22.7588
    13.8926  13.8929  14.6502  14.6504  16.1998  16.1999  16.2600  16.2604
    16.2817  16.2819  16.4195  16.4196  16.4455  16.4458  16.5716  16.5719
    16.6978  16.6982  17.3613  17.3617  17.3814  17.3817  17.4552  17.4553
    17.4671  17.4674  17.5457  17.5460  17.9838  17.9839  18.1503  18.1506
    18.2323  18.2327  18.2563  18.2564  18.3274  18.3276  18.3845  18.3846
    18.6086  18.6088  18.6315  18.6318  18.9387  18.9388  19.6875  19.6875
    20.2324  20.2325  20.3900  20.3901  20.5303  20.5306  20.6320  20.6324
    20.6944  20.6945  20.7018  20.7021  20.7049  20.7053  20.9683  20.9689
    21.0306  21.0308  21.0312  21.0312  21.2024  21.2028

          k = 0.0557-0.5014-0.5014 ( 12420 PWs)   bands (ev):

   -52.0325 -52.0308 -52.0305 -52.0303 -51.9911 -51.9893 -51.9891 -51.9889
   -51.6590 -51.6588 -51.6586 -51.6585 -51.6520 -51.6519 -51.6517 -51.6516
   -23.6282 -23.6282 -23.6274 -23.6274 -23.6250 -23.6237 -23.6236 -23.6235
   -23.5836 -23.5836 -23.5828 -23.5828 -23.3809 -23.3809 -23.3797 -23.3797
   -23.3489 -23.3488 -23.3477 -23.3477 -23.3377 -23.3362 -23.3361 -23.3360
   -23.0171 -23.0171 -23.0169 -23.0169 -23.0160 -23.0160 -23.0159 -23.0158
   -22.8687 -22.8685 -22.8683 -22.8681 -22.8671 -22.8670 -22.8666 -22.8665
   -22.8259 -22.8256 -22.8255 -22.8255 -22.7557 -22.7557 -22.7554 -22.7554
    14.2584  14.2585  14.2587  14.2588  16.2904  16.2908  16.2910  16.2910
    16.3889  16.3890  16.3892  16.3893  16.5711  16.5711  16.5712  16.5713
    17.0174  17.0179  17.0180  17.0181  17.3855  17.3855  17.3860  17.3860
    17.4701  17.4705  17.4705  17.4706  18.0953  18.0953  18.0957  18.0958
    18.1089  18.1097  18.1100  18.1101  18.2963  18.2964  18.2965  18.2966
    18.5938  18.5943  18.5946  18.5946  19.3000  19.3000  19.3007  19.3007
    20.3356  20.3360  20.3362  20.3363  20.6978  20.6978  20.6981  20.6983
    20.7387  20.7389  20.7391  20.7391  20.8370  20.8379  20.8381  20.8382
    20.8633  20.8633  20.8637  20.8638  21.1731  21.1739

          k = 0.1671 0.1671 0.1671 ( 12443 PWs)   bands (ev):

   -52.0905 -52.0132 -52.0114 -52.0114 -51.9920 -51.9901 -51.9901 -51.9752
   -51.6696 -51.6695 -51.6695 -51.6594 -51.6594 -51.6594 -51.6445 -51.6192
   -23.7406 -23.7406 -23.7401 -23.7053 -23.7049 -23.7049 -23.5283 -23.5205
   -23.5199 -23.5199 -23.4906 -23.4906 -23.4538 -23.4538 -23.4118 -23.3617
   -23.3617 -23.3614 -23.2996 -23.2996 -23.2988 -23.2662 -23.2660 -23.2660
   -23.0485 -23.0485 -23.0308 -23.0308 -23.0308 -22.9712 -22.9376 -22.9376
   -22.9374 -22.9288 -22.9287 -22.9287 -22.8727 -22.8725 -22.8725 -22.8387
   -22.8099 -22.8098 -22.8098 -22.7761 -22.7761 -22.7759 -22.7549 -22.7549
    12.3669  15.2022  15.2023  15.2023  15.4764  15.4764  15.4765  15.6698
    15.6698  15.6700  15.6995  15.6995  16.4035  16.4035  16.4035  16.9519
    17.2785  17.2785  17.2788  17.2955  17.2955  17.4241  17.4241  17.4245
    17.5513  17.5516  17.5516  17.7218  17.7706  17.7706  18.2999  18.2999
    18.3002  18.7759  18.7767  18.7767  18.8030  18.8030  19.2724  19.2724
    19.2728  19.3109  19.4534  19.4534  19.4536  19.6859  19.6859  19.6864
    19.8578  19.8580  19.8580  20.0797  20.0797  20.0799  20.7571  20.7571
    20.7577  20.8557  20.8557  20.8561  20.9812  20.9812  21.0571  21.0571
    21.0572  21.3120  21.3120  21.3721  21.3721  21.3724

          k = 0.1671 0.1671 0.2786 ( 12432 PWs)   bands (ev):

   -52.0814 -52.0235 -52.0098 -52.0087 -51.9942 -51.9929 -51.9886 -51.9772
   -51.6682 -51.6682 -51.6617 -51.6607 -51.6607 -51.6575 -51.6464 -51.6246
   -23.7207 -23.7204 -23.7131 -23.6859 -23.6628 -23.6625 -23.5582 -23.5555
   -23.5553 -23.5326 -23.5106 -23.5085 -23.4714 -23.4248 -23.4138 -23.4136
   -23.3834 -23.3364 -23.3328 -23.3019 -23.3017 -23.2891 -23.2726 -23.2724
   -23.0491 -23.0363 -22.9956 -22.9904 -22.9904 -22.9598 -22.9385 -22.9384
   -22.9335 -22.9327 -22.9326 -22.8974 -22.8829 -22.8480 -22.8478 -22.8425
   -22.8341 -22.8340 -22.8205 -22.8014 -22.7785 -22.7784 -22.7719 -22.7567
    12.6285  14.6208  15.3119  15.3119  15.4859  15.4859  15.6996  15.8185
    15.8186  15.8304  15.8523  15.8748  16.4373  16.4374  16.4934  16.8555
    16.9124  17.1590  17.2593  17.3188  17.3191  17.3830  17.4839  17.5162
    17.5164  17.5664  17.7199  17.7202  17.8369  18.0141  18.1445  18.1447
    18.4912  18.5674  18.5679  18.6685  18.7061  18.7698  18.9685  18.9686
    18.9711  18.9713  19.2379  19.3870  19.3871  19.4168  19.4874  19.4928
    19.8353  19.9586  19.9588  20.1881  20.1882  20.3684  20.4931  20.7112
    20.7115  20.8300  20.9341  20.9816  20.9817  21.0347  21.0658  21.0845
    21.0848  21.0879  21.2694  21.3177  21.3711  21.4183

          k = 0.1671 0.1671 0.3900 ( 12433 PWs)   bands (ev):

   -52.0688 -52.0381 -52.0062 -52.0050 -51.9979 -51.9965 -51.9860 -51.9798
   -51.6665 -51.6665 -51.6624 -51.6624 -51.6549 -51.6520 -51.6490 -51.6324
   -23.6881 -23.6877 -23.6741 -23.6588 -23.6083 -23.6080 -23.5999 -23.5996
   -23.5917 -23.5680 -23.5383 -23.5264 -23.4785 -23.4782 -23.4439 -23.3912
   -23.3714 -23.3562 -23.3258 -23.3201 -23.2975 -23.2973 -23.2810 -23.2808
   -23.0365 -23.0211 -22.9870 -22.9534 -22.9533 -22.9398 -22.9397 -22.9387
   -22.9339 -22.9284 -22.9284 -22.8966 -22.8644 -22.8643 -22.8616 -22.8388
   -22.8382 -22.8237 -22.8236 -22.8128 -22.7962 -22.7876 -22.7874 -22.7678
    13.0067  14.0331  15.4203  15.4203  15.4995  15.4995  16.0002  16.0003
    16.0102  16.0231  16.0522  16.1554  16.3606  16.3608  16.4291  16.5724
    16.6832  16.8273  17.2594  17.3335  17.4095  17.4119  17.5230  17.5233
    17.6668  17.6670  17.9108  17.9111  18.0291  18.0293  18.1323  18.3050
    18.4177  18.4181  18.5050  18.5052  18.6022  18.6082  18.6340  18.6514
    18.6514  18.7255  18.8961  18.8963  18.9484  18.9514  19.6858  19.7631
    20.0785  20.2382  20.2384  20.2503  20.3358  20.3360  20.5588  20.5589
    20.6153  20.6176  20.7228  20.8210  20.8210  21.0306  21.1537  21.1821
    21.2061  21.3299  21.3521  21.3637  21.3830  21.3832

          k = 0.1671 0.1671-0.5014 ( 12424 PWs)   bands (ev):

   -52.0543 -52.0534 -52.0023 -52.0017 -52.0015 -52.0000 -51.9834 -51.9825
   -51.6646 -51.6646 -51.6643 -51.6643 -51.6521 -51.6518 -51.6419 -51.6416
   -23.6463 -23.6460 -23.6460 -23.6457 -23.6267 -23.6261 -23.6251 -23.6244
   -23.5454 -23.5453 -23.5452 -23.5448 -23.5362 -23.5359 -23.4102 -23.4094
   -23.3557 -23.3550 -23.3348 -23.3344 -23.2902 -23.2901 -23.2894 -23.2892
   -23.0143 -23.0141 -22.9837 -22.9836 -22.9420 -22.9419 -22.9418 -22.9417
   -22.8992 -22.8992 -22.8990 -22.8989 -22.8849 -22.8846 -22.8646 -22.8643
   -22.8269 -22.8266 -22.8030 -22.8029 -22.8028 -22.8027 -22.7871 -22.7869
    13.4833  13.4836  15.4856  15.4856  15.4858  15.4858  16.1939  16.1940
    16.1940  16.1942  16.2616  16.2619  16.2725  16.2729  16.3700  16.3705
    16.4788  16.4792  17.2878  17.2882  17.3694  17.3697  17.8372  17.8374
    17.8374  17.8381  17.8642  17.8644  17.8644  17.8646  18.3789  18.3790
    18.3791  18.3792  18.5142  18.5143  18.5417  18.5418  18.5419  18.5419
    18.5984  18.5984  18.6251  18.6252  18.6718  18.6722  19.8719  19.8720
    20.2524  20.2525  20.3547  20.3550  20.4087  20.4088  20.4088  20.4088
    20.5879  20.5879  20.5880  20.5881  21.1198  21.1202  21.1248  21.1255
    21.2461  21.2465  21.3220  21.3225  21.3474  21.3481

          k = 0.1671 0.2786 0.2786 ( 12439 PWs)   bands (ev):

   -52.0730 -52.0203 -52.0191 -52.0066 -51.9976 -51.9919 -51.9908 -51.9792
   -51.6668 -51.6616 -51.6615 -51.6607 -51.6589 -51.6589 -51.6483 -51.6294
   -23.7082 -23.6954 -23.6950 -23.6497 -23.6496 -23.6153 -23.5751 -23.5739
   -23.5659 -23.5652 -23.5229 -23.5186 -23.4680 -23.4461 -23.4337 -23.3757
   -23.3748 -23.3545 -23.3335 -23.3326 -23.3189 -23.2990 -23.2986 -23.2840
   -23.0332 -23.0110 -23.0109 -22.9715 -22.9607 -22.9606 -22.9561 -22.9443
   -22.9347 -22.9255 -22.9039 -22.9022 -22.9022 -22.8616 -22.8359 -22.8358
   -22.8319 -22.8210 -22.8208 -22.8010 -22.8009 -22.7827 -22.7737 -22.7580
    12.8820  14.7749  14.7750  15.4017  15.4494  15.7149  15.7149  15.9545
    15.9783  16.0041  16.0181  16.0182  16.5388  16.5390  16.5482  16.8161
    17.0074  17.0075  17.1003  17.2640  17.3193  17.4655  17.4658  17.5793
    17.6154  17.6156  17.6364  17.6757  17.9098  17.9663  17.9897  18.2951
    18.2954  18.4516  18.4924  18.4929  18.5626  18.5947  18.6960  18.7518
    18.8263  18.8264  19.0200  19.0201  19.0828  19.1469  19.1474  19.6966
    20.0904  20.0907  20.1332  20.3255  20.4024  20.4026  20.5719  20.6163
    20.8200  20.8202  20.8296  20.8300  20.8374  20.9620  21.0096  21.0097
    21.0309  21.2391  21.3143  21.3156  21.3231  21.3944

          k = 0.1671 0.2786 0.3900 ( 12410 PWs)   bands (ev):

   -52.0613 -52.0330 -52.0145 -52.0032 -52.0027 -51.9949 -51.9885 -51.9821
   -51.6650 -51.6613 -51.6608 -51.6607 -51.6564 -51.6531 -51.6508 -51.6361
   -23.6829 -23.6674 -23.6590 -23.6316 -23.6063 -23.6028 -23.6015 -23.5939
   -23.5668 -23.5616 -23.5576 -23.5428 -23.4944 -23.4444 -23.4310 -23.4085
   -23.3763 -23.3370 -23.3334 -23.3322 -23.3257 -23.3246 -23.3100 -23.2985
   -23.0234 -23.0187 -22.9850 -22.9784 -22.9698 -22.9606 -22.9537 -22.9332
   -22.9257 -22.9191 -22.9062 -22.8904 -22.8770 -22.8677 -22.8576 -22.8459
   -22.8314 -22.8181 -22.8050 -22.8028 -22.8002 -22.7957 -22.7757 -22.7631
    13.2468  14.2247  14.9650  15.2960  15.5955  15.7261  16.0347  16.1199
    16.1534  16.1976  16.2172  16.2851  16.4686  16.4809  16.5401  16.7180
    16.7187  16.8464  17.2726  17.3173  17.3695  17.4046  17.4924  17.5059
    17.5926  17.7027  17.7289  17.8458  17.8796  18.0439  18.0872  18.1578
    18.2264  18.3155  18.3668  18.4065  18.4380  18.4854  18.4979  18.5244
    18.5909  18.6203  18.6299  18.6449  18.7353  18.7996  19.3951  19.8838
    20.2442  20.2843  20.3407  20.3699  20.4275  20.4603  20.4621  20.5496
    20.6954  20.7005  20.7047  20.8513  20.8526  20.9511  21.0771  21.1179
    21.1706  21.1824  21.2959  21.3325  21.3341  21.3789

          k = 0.1671 0.2786-0.5014 ( 12430 PWs)   bands (ev):

   -52.0480 -52.0470 -52.0092 -52.0082 -51.9996 -51.9985 -51.9857 -51.9848
   -51.6630 -51.6627 -51.6612 -51.6609 -51.6537 -51.6534 -51.6444 -51.6441
   -23.6476 -23.6474 -23.6347 -23.6342 -23.6187 -23.6181 -23.6073 -23.6067
   -23.5589 -23.5587 -23.5494 -23.5492 -23.4943 -23.4942 -23.4124 -23.4117
   -23.3721 -23.3715 -23.3248 -23.3244 -23.3203 -23.3197 -23.3137 -23.3129
   -23.0074 -23.0073 -23.0045 -23.0045 -22.9588 -22.9586 -22.9471 -22.9471
   -22.9068 -22.9065 -22.8857 -22.8855 -22.8794 -22.8790 -22.8547 -22.8545
   -22.8343 -22.8340 -22.8084 -22.8083 -22.7847 -22.7847 -22.7760 -22.7760
    13.7033  13.7036  15.1491  15.1494  15.6947  15.6949  16.3128  16.3131
    16.3255  16.3257  16.3896  16.3897  16.4087  16.4091  16.4589  16.4593
    16.5702  16.5705  17.3482  17.3486  17.4421  17.4424  17.6203  17.6207
    17.6500  17.6504  17.7386  17.7388  17.8789  17.8790  18.2140  18.2140
    18.2983  18.2986  18.3941  18.3942  18.3943  18.3944  18.4104  18.4105
    18.4631  18.4632  18.5000  18.5000  18.5601  18.5604  19.7093  19.7094
    20.2854  20.2855  20.3948  20.3949  20.5056  20.5058  20.5649  20.5650
    20.6409  20.6412  20.6485  20.6488  21.0530  21.0533  21.0737  21.0743
    21.1777  21.1780  21.2583  21.2588  21.3589  21.3596

          k = 0.1671 0.3900 0.3900 ( 12417 PWs)   bands (ev):

   -52.0510 -52.0267 -52.0255 -52.0100 -51.9997 -51.9925 -51.9914 -51.9851
   -51.6630 -51.6589 -51.6584 -51.6584 -51.6548 -51.6547 -51.6531 -51.6414
   -23.6651 -23.6402 -23.6397 -23.6083 -23.6025 -23.6017 -23.5983 -23.5959
   -23.5956 -23.5697 -23.5664 -23.5209 -23.4993 -23.4270 -23.4068 -23.3902
   -23.3892 -23.3528 -23.3520 -23.3467 -23.3460 -23.3455 -23.3238 -23.3197
   -23.0126 -23.0015 -23.0014 -22.9996 -22.9816 -22.9815 -22.9655 -22.9452
   -22.8990 -22.8983 -22.8963 -22.8772 -22.8771 -22.8596 -22.8581 -22.8578
   -22.8239 -22.8236 -22.8235 -22.8159 -22.7811 -22.7808 -22.7703 -22.7620
    13.5891  14.4823  14.4824  15.0516  15.8011  16.0370  16.0371  16.2381
    16.2885  16.4533  16.4536  16.4536  16.4574  16.4577  16.6627  16.6882
    16.8029  17.0046  17.0049  17.2838  17.3705  17.5002  17.5004  17.5016
    17.5566  17.5567  17.7033  17.7448  17.7758  17.7992  18.1150  18.1375
    18.1380  18.1731  18.2524  18.2527  18.3333  18.3685  18.3687  18.3820
    18.3842  18.4277  18.4281  18.5485  18.5521  19.0195  19.0200  19.6856
    20.3039  20.4241  20.5005  20.5008  20.5469  20.5947  20.5949  20.6134
    20.7486  20.8459  20.8550  20.8552  20.9044  20.9049  20.9333  20.9334
    21.0937  21.0987  21.1590  21.1920  21.2419  21.3470

          k = 0.1671 0.3900-0.5014 ( 12410 PWs)   bands (ev):

   -52.0393 -52.0383 -52.0186 -52.0177 -51.9964 -51.9953 -51.9889 -51.9880
   -51.6608 -51.6605 -51.6569 -51.6566 -51.6559 -51.6556 -51.6480 -51.6477
   -23.6369 -23.6368 -23.6219 -23.6213 -23.6129 -23.6122 -23.5881 -23.5879
   -23.5861 -23.5858 -23.5566 -23.5565 -23.4395 -23.4395 -23.4011 -23.4005
   -23.3823 -23.3819 -23.3528 -23.3524 -23.3406 -23.3397 -23.3373 -23.3371
   -23.0111 -23.0110 -22.9994 -22.9993 -22.9752 -22.9751 -22.9741 -22.9740
   -22.8887 -22.8884 -22.8751 -22.8749 -22.8720 -22.8717 -22.8485 -22.8482
   -22.8439 -22.8436 -22.8180 -22.8178 -22.7720 -22.7720 -22.7678 -22.7678
    14.0110  14.0114  14.7709  14.7712  15.9654  15.9656  16.3631  16.3635
    16.3839  16.3842  16.3922  16.3925  16.6259  16.6259  16.6922  16.6925
    16.7255  16.7259  17.3614  17.3618  17.4067  17.4070  17.4167  17.4170
    17.4731  17.4732  17.6124  17.6126  17.9438  17.9439  17.9662  17.9664
    18.1065  18.1069  18.2149  18.2150  18.2154  18.2154  18.2863  18.2864
    18.4392  18.4394  18.4777  18.4780  18.6774  18.6775  19.3241  19.3241
    20.4663  20.4665  20.5753  20.5754  20.6752  20.6754  20.7267  20.7270
    20.7400  20.7402  20.7511  20.7516  20.8557  20.8559  20.9944  20.9950
    21.0568  21.0571  21.1858  21.1863  21.2306  21.2309

          k = 0.1671-0.5014-0.5014 ( 12416 PWs)   bands (ev):

   -52.0301 -52.0284 -52.0281 -52.0279 -51.9936 -51.9919 -51.9917 -51.9915
   -51.6584 -51.6583 -51.6581 -51.6580 -51.6524 -51.6522 -51.6520 -51.6519
   -23.6162 -23.6162 -23.6154 -23.6154 -23.6140 -23.6128 -23.6128 -23.6127
   -23.5687 -23.5687 -23.5681 -23.5680 -23.3972 -23.3971 -23.3962 -23.3961
   -23.3768 -23.3767 -23.3757 -23.3757 -23.3586 -23.3573 -23.3573 -23.3572
   -22.9988 -22.9988 -22.9987 -22.9986 -22.9891 -22.9891 -22.9891 -22.9891
   -22.8701 -22.8701 -22.8696 -22.8696 -22.8676 -22.8674 -22.8672 -22.8671
   -22.8309 -22.8306 -22.8305 -22.8305 -22.7664 -22.7664 -22.7661 -22.7661
    14.3788  14.3790  14.3792  14.3792  16.2272  16.2272  16.2274  16.2275
    16.3979  16.3982  16.3984  16.3985  16.7619  16.7619  16.7621  16.7622
    17.0381  17.0386  17.0387  17.0388  17.3485  17.3485  17.3486  17.3488
    17.5220  17.5221  17.5221  17.5223  17.9444  17.9451  17.9452  17.9453
    18.0563  18.0563  18.0567  18.0568  18.2010  18.2011  18.2012  18.2013
    18.4323  18.4327  18.4329  18.4329  18.9671  18.9671  18.9676  18.9676
    20.6233  20.6237  20.6237  20.6237  20.7578  20.7584  20.7585  20.7585
    20.8821  20.8830  20.8832  20.8833  20.9062  20.9063  20.9067  20.9068
    20.9345  20.9345  20.9349  20.9350  21.1654  21.1655

          k = 0.2786 0.2786 0.2786 ( 12407 PWs)   bands (ev):

   -52.0652 -52.0173 -52.0155 -52.0155 -51.9963 -51.9945 -51.9945 -51.9816
   -51.6612 -51.6611 -51.6611 -51.6592 -51.6591 -51.6591 -51.6499 -51.6335
   -23.6824 -23.6824 -23.6819 -23.6095 -23.6093 -23.6093 -23.5820 -23.5791
   -23.5784 -23.5784 -23.5026 -23.5026 -23.4857 -23.4857 -23.4025 -23.4025
   -23.4020 -23.3553 -23.3553 -23.3546 -23.3294 -23.3155 -23.3149 -23.3149
   -22.9833 -22.9833 -22.9800 -22.9800 -22.9799 -22.9584 -22.9531 -22.9531
   -22.9529 -22.9104 -22.9104 -22.9103 -22.8828 -22.8535 -22.8535 -22.8534
   -22.8117 -22.8113 -22.8113 -22.7980 -22.7980 -22.7978 -22.7759 -22.7759
    13.1298  14.9471  14.9472  14.9472  15.6413  15.6413  15.6414  16.1149
    16.1149  16.1758  16.1758  16.1760  16.6924  16.6924  16.6925  16.8279
    16.9896  16.9896  16.9899  17.3008  17.3167  17.3167  17.5270  17.5270
    17.5273  17.7583  17.7586  17.7586  17.7945  17.7945  18.1250  18.1250
    18.1253  18.3461  18.3468  18.3468  18.4686  18.4686  18.4688  18.5376
    18.5376  18.7211  18.7214  18.7214  18.8338  18.8338  18.8343  19.8771
    20.2338  20.2630  20.2630  20.2634  20.5526  20.5526  20.5528  20.7292
    20.7292  20.7294  20.9319  20.9319  20.9974  20.9974  20.9976  21.1424
    21.1424  21.1430  21.2638  21.2638  21.3204  21.3204

          k = 0.2786 0.2786 0.3900 ( 12419 PWs)   bands (ev):

   -52.0543 -52.0283 -52.0118 -52.0107 -52.0007 -51.9994 -51.9919 -51.9847
   -51.6607 -51.6606 -51.6595 -51.6595 -51.6570 -51.6539 -51.6520 -51.6393
   -23.6593 -23.6589 -23.6444 -23.6022 -23.6014 -23.6010 -23.5881 -23.5734
   -23.5598 -23.5596 -23.5426 -23.5335 -23.4735 -23.4498 -23.4498 -23.4455
   -23.3965 -23.3600 -23.3595 -23.3588 -23.3557 -23.3342 -23.3339 -23.3181
   -22.9984 -22.9881 -22.9870 -22.9698 -22.9494 -22.9493 -22.9449 -22.9447
   -22.9292 -22.9156 -22.9156 -22.8764 -22.8764 -22.8720 -22.8659 -22.8507
   -22.8331 -22.8036 -22.8034 -22.8019 -22.7970 -22.7968 -22.7937 -22.7750
    13.4850  14.4264  15.1628  15.1629  15.5356  15.5356  15.9804  16.2763
    16.3223  16.3543  16.3545  16.4368  16.6783  16.6799  16.6801  16.7240
    16.7819  16.9011  17.1854  17.1858  17.3449  17.4621  17.5243  17.5996
    17.6388  17.6390  17.6534  17.8483  17.8486  17.9597  17.9599  17.9763
    18.1510  18.1511  18.2254  18.2258  18.2544  18.2986  18.3258  18.3317
    18.4040  18.4248  18.4250  18.4590  18.5337  18.5339  19.0069  19.6599
    20.2929  20.4350  20.4806  20.4809  20.6185  20.6186  20.6636  20.6636
    20.7910  20.8574  20.8724  20.8945  20.8945  20.9097  21.0598  21.0668
    21.1851  21.2959  21.2999  21.3230  21.3266  21.3266

          k = 0.2786 0.2786-0.5014 ( 12410 PWs)   bands (ev):

   -52.0421 -52.0411 -52.0066 -52.0060 -52.0058 -52.0043 -51.9888 -51.9879
   -51.6602 -51.6602 -51.6599 -51.6599 -51.6547 -51.6543 -51.6465 -51.6462
   -23.6304 -23.6301 -23.6300 -23.6298 -23.5972 -23.5965 -23.5949 -23.5944
   -23.5579 -23.5577 -23.5049 -23.5049 -23.5047 -23.5045 -23.4376 -23.4369
   -23.4011 -23.4006 -23.3511 -23.3508 -23.3504 -23.3501 -23.3281 -23.3279
   -23.0030 -23.0029 -22.9821 -22.9820 -22.9389 -22.9388 -22.9388 -22.9385
   -22.9023 -22.9023 -22.9021 -22.9020 -22.8779 -22.8775 -22.8550 -22.8548
   -22.8349 -22.8346 -22.7987 -22.7986 -22.7985 -22.7984 -22.7813 -22.7812
    13.9267  13.9270  15.3731  15.3732  15.3733  15.3734  16.3910  16.3914
    16.4821  16.4824  16.5317  16.5321  16.5335  16.5337  16.5337  16.5338
    16.6986  16.6989  17.3968  17.3972  17.5002  17.5005  17.5408  17.5410
    17.5410  17.5415  17.7933  17.7934  17.7934  17.7937  17.9488  17.9489
    18.1619  18.1621  18.2246  18.2248  18.2250  18.2253  18.2876  18.2878
    18.2879  18.2880  18.3195  18.3196  18.3640  18.3644  19.2953  19.2954
    20.5707  20.5708  20.6192  20.6195  20.6273  20.6274  20.6274  20.6276
    20.7136  20.7136  20.7139  20.7140  21.0713  21.0718  21.1686  21.1690
    21.2096  21.2101  21.2166  21.2169  21.3169  21.3174

          k = 0.2786 0.3900 0.3900 ( 12418 PWs)   bands (ev):

   -52.0448 -52.0225 -52.0213 -52.0070 -52.0066 -51.9970 -51.9959 -51.9883
   -51.6597 -51.6581 -51.6578 -51.6578 -51.6551 -51.6551 -51.6538 -51.6438
   -23.6403 -23.6256 -23.6252 -23.6003 -23.5906 -23.5899 -23.5806 -23.5636
   -23.5635 -23.5454 -23.5448 -23.5089 -23.4800 -23.4707 -23.4550 -23.4119
   -23.4111 -23.3894 -23.3887 -23.3854 -23.3783 -23.3776 -23.3608 -23.3247
   -22.9972 -22.9726 -22.9725 -22.9665 -22.9540 -22.9540 -22.9344 -22.9277
   -22.9175 -22.9079 -22.8925 -22.8800 -22.8799 -22.8668 -22.8666 -22.8589
   -22.8270 -22.8269 -22.8160 -22.8095 -22.7931 -22.7921 -22.7918 -22.7814
    13.8237  14.6983  14.6985  15.2931  15.4186  15.8716  15.8717  16.4167
    16.4962  16.5339  16.6194  16.6195  16.6465  16.6710  16.6714  16.9053
    16.9307  16.9981  16.9984  17.1193  17.4110  17.5252  17.5551  17.5577
    17.5579  17.6312  17.6313  17.7124  17.7511  17.8237  17.8936  18.0410
    18.0413  18.0516  18.0530  18.0534  18.0849  18.1048  18.1050  18.2042
    18.2045  18.2587  18.2624  18.2880  18.3490  18.6390  18.6394  19.2503
    20.5845  20.6165  20.6168  20.6433  20.6876  20.7791  20.8395  20.8576
    20.8578  20.8817  20.8818  20.8985  20.9756  20.9758  21.0419  21.1484
    21.2113  21.2116  21.2413  21.2426  21.2896  21.3201

          k = 0.2786 0.3900-0.5014 ( 12402 PWs)   bands (ev):

   -52.0340 -52.0330 -52.0149 -52.0140 -52.0022 -52.0011 -51.9928 -51.9919
   -51.6589 -51.6586 -51.6567 -51.6564 -51.6559 -51.6556 -51.6494 -51.6491
   -23.6151 -23.6150 -23.6088 -23.6083 -23.5877 -23.5870 -23.5698 -23.5696
   -23.5674 -23.5670 -23.5206 -23.5205 -23.4557 -23.4556 -23.4418 -23.4412
   -23.4230 -23.4226 -23.3913 -23.3909 -23.3836 -23.3828 -23.3534 -23.3532
   -22.9909 -22.9909 -22.9605 -22.9604 -22.9470 -22.9469 -22.9399 -22.9398
   -22.8905 -22.8902 -22.8898 -22.8896 -22.8725 -22.8722 -22.8542 -22.8539
   -22.8450 -22.8447 -22.8180 -22.8178 -22.7915 -22.7914 -22.7848 -22.7848
    14.2388  14.2391  15.0024  15.0027  15.6761  15.6763  16.2685  16.2688
    16.5572  16.5575  16.6045  16.6047  16.7785  16.7788  16.8083  16.8084
    16.8683  16.8686  17.3559  17.3563  17.3804  17.3808  17.4563  17.4566
    17.5063  17.5065  17.6921  17.6924  17.7568  17.7568  17.8718  17.8719
    17.9697  17.9701  17.9726  17.9728  18.1059  18.1060  18.1415  18.1415
    18.1823  18.1825  18.2599  18.2601  18.3254  18.3255  18.8891  18.8892
    20.7502  20.7505  20.7594  20.7596  20.8007  20.8011  20.8192  20.8195
    20.8542  20.8544  20.9133  20.9133  21.0500  21.0505  21.1030  21.1033
    21.1539  21.1544  21.1583  21.1586  21.2431  21.2436

          k = 0.2786-0.5014-0.5014 ( 12412 PWs)   bands (ev):

   -52.0255 -52.0238 -52.0236 -52.0234 -51.9985 -51.9967 -51.9965 -51.9963
   -51.6575 -51.6574 -51.6572 -51.6570 -51.6530 -51.6529 -51.6527 -51.6525
   -23.5929 -23.5929 -23.5921 -23.5920 -23.5918 -23.5907 -23.5906 -23.5906
   -23.5416 -23.5416 -23.5411 -23.5409 -23.4291 -23.4290 -23.4287 -23.4283
   -23.4207 -23.4207 -23.4198 -23.4197 -23.3906 -23.3900 -23.3899 -23.3897
   -22.9703 -22.9703 -22.9702 -22.9701 -22.9473 -22.9473 -22.9472 -22.9472
   -22.8771 -22.8771 -22.8767 -22.8767 -22.8654 -22.8652 -22.8650 -22.8649
   -22.8398 -22.8394 -22.8394 -22.8394 -22.7875 -22.7875 -22.7872 -22.7872
    14.6104  14.6105  14.6107  14.6108  16.0046  16.0047  16.0048  16.0050
    16.6030  16.6033  16.6035  16.6036  16.9994  16.9994  16.9996  16.9997
    17.0770  17.0774  17.0776  17.0776  17.3017  17.3018  17.3019  17.3021
    17.5957  17.5957  17.5958  17.5960  17.7721  17.7728  17.7729  17.7730
    17.9839  17.9840  17.9841  17.9842  17.9846  17.9846  17.9850  17.9850
    18.1951  18.1955  18.1955  18.1956  18.5475  18.5475  18.5478  18.5479
    20.8288  20.8292  20.8294  20.8295  20.9489  20.9496  20.9497  20.9498
    20.9635  20.9636  20.9637  20.9637  21.0128  21.0128  21.0129  21.0131
    21.1460  21.1467  21.1469  21.1469  21.2778  21.2778

          k = 0.3900 0.3900 0.3900 ( 12406 PWs)   bands (ev):

   -52.0362 -52.0172 -52.0155 -52.0154 -52.0037 -52.0019 -52.0019 -51.9926
   -51.6571 -51.6571 -51.6571 -51.6557 -51.6556 -51.6556 -51.6548 -51.6472
   -23.6044 -23.6044 -23.6038 -23.5817 -23.5807 -23.5807 -23.5606 -23.5229
   -23.5229 -23.5229 -23.5135 -23.5135 -23.5083 -23.5083 -23.4330 -23.4330
   -23.4323 -23.4305 -23.4305 -23.4301 -23.4109 -23.4102 -23.4102 -23.3470
   -22.9855 -22.9418 -22.9418 -22.9416 -22.9273 -22.9273 -22.9272 -22.9161
   -22.9161 -22.8855 -22.8855 -22.8854 -22.8818 -22.8817 -22.8817 -22.8622
   -22.8262 -22.8262 -22.8261 -22.8095 -22.8095 -22.8061 -22.8058 -22.8058
    14.1550  14.9922  14.9923  14.9923  15.6321  15.6321  15.6321  16.4217
    16.6488  16.6488  16.7792  16.7792  16.7794  16.9514  16.9514  16.9516
    16.9896  16.9896  16.9897  17.0970  17.4741  17.4741  17.6148  17.6148
    17.6394  17.6394  17.6399  17.7134  17.7134  17.7136  17.7711  17.7712
    17.7712  17.9417  17.9417  17.9421  17.9448  17.9450  17.9450  18.0011
    18.0017  18.0017  18.1674  18.1674  18.2781  18.2781  18.2785  18.8238
    20.7553  20.7553  20.7557  20.9242  20.9503  20.9503  20.9504  20.9651
    20.9651  20.9852  20.9852  20.9852  21.0259  21.0259  21.0261  21.1944
    21.1944  21.2355  21.2355  21.2359  21.2570  21.2570

          k = 0.3900 0.3900-0.5014 ( 12422 PWs)   bands (ev):

   -52.0268 -52.0258 -52.0102 -52.0097 -52.0094 -52.0080 -51.9980 -51.9971
   -51.6565 -51.6564 -51.6562 -51.6561 -51.6560 -51.6557 -51.6514 -51.6511
   -23.5861 -23.5858 -23.5856 -23.5853 -23.5599 -23.5592 -23.5514 -23.5511
   -23.5408 -23.5403 -23.4782 -23.4782 -23.4780 -23.4779 -23.4747 -23.4741
   -23.4619 -23.4615 -23.4324 -23.4321 -23.4318 -23.4316 -23.3858 -23.3856
   -22.9656 -22.9655 -22.9222 -22.9221 -22.9184 -22.9183 -22.9183 -22.9180
   -22.8929 -22.8928 -22.8927 -22.8926 -22.8704 -22.8702 -22.8680 -22.8677
   -22.8453 -22.8449 -22.8190 -22.8189 -22.8188 -22.8187 -22.8059 -22.8059
    14.5566  14.5569  15.3223  15.3224  15.3225  15.3227  16.0329  16.0332
    16.7908  16.7912  16.8752  16.8755  16.8999  16.9000  16.9000  16.9002
    17.0741  17.0744  17.3296  17.3298  17.3299  17.3303  17.5162  17.5165
    17.5536  17.5541  17.6694  17.6697  17.6708  17.6711  17.7817  17.7817
    17.7818  17.7821  17.9172  17.9174  17.9174  17.9179  17.9826  17.9827
    17.9828  17.9830  18.0431  18.0432  18.0577  18.0580  18.4720  18.4720
    20.8668  20.8671  20.8967  20.8968  20.8970  20.8971  21.0323  21.0323
    21.0324  21.0324  21.0849  21.0854  21.1109  21.1113  21.1820  21.1823
    21.2212  21.2216  21.2265  21.2265  21.2268  21.2269

          k = 0.3900-0.5014-0.5014 ( 12436 PWs)   bands (ev):

   -52.0194 -52.0177 -52.0174 -52.0172 -52.0049 -52.0032 -52.0030 -52.0028
   -51.6563 -51.6562 -51.6560 -51.6558 -51.6539 -51.6538 -51.6536 -51.6535
   -23.5595 -23.5595 -23.5589 -23.5586 -23.5586 -23.5579 -23.5579 -23.5578
   -23.5063 -23.5063 -23.5060 -23.5056 -23.4721 -23.4720 -23.4719 -23.4714
   -23.4696 -23.4696 -23.4689 -23.4689 -23.4273 -23.4272 -23.4271 -23.4267
   -22.9395 -22.9395 -22.9394 -22.9393 -22.9011 -22.9011 -22.9009 -22.9009
   -22.8907 -22.8907 -22.8904 -22.8904 -22.8618 -22.8616 -22.8615 -22.8614
   -22.8494 -22.8491 -22.8491 -22.8490 -22.8181 -22.8181 -22.8178 -22.8178
    14.9327  14.9328  14.9330  14.9331  15.6893  15.6894  15.6895  15.6896
    16.8837  16.8841  16.8843  16.8843  17.1292  17.1296  17.1297  17.1298
    17.2466  17.2467  17.2468  17.2470  17.2475  17.2478  17.2479  17.2480
    17.6860  17.6860  17.6862  17.6864  17.6902  17.6910  17.6912  17.6913
    17.7380  17.7380  17.7381  17.7383  17.8908  17.8908  17.8911  17.8912
    17.9616  17.9620  17.9620  17.9620  18.1306  18.1306  18.1308  18.1309
    20.9398  20.9403  20.9405  20.9406  21.0128  21.0135  21.0136  21.0136
    21.1147  21.1154  21.1155  21.1156  21.1995  21.1996  21.1996  21.1999
    21.2054  21.2061  21.2062  21.2063  21.2469  21.2469

          k =-0.5014-0.5014-0.5014 ( 12400 PWs)   bands (ev):

   -52.0135 -52.0115 -52.0109 -52.0109 -52.0107 -52.0096 -52.0094 -52.0094
   -51.6551 -51.6550 -51.6550 -51.6549 -51.6548 -51.6547 -51.6546 -51.6545
   -23.5179 -23.5179 -23.5179 -23.5172 -23.5172 -23.5172 -23.5169 -23.5169
   -23.5169 -23.5168 -23.5167 -23.5159 -23.5159 -23.5159 -23.5158 -23.5158
   -23.4670 -23.4669 -23.4669 -23.4668 -23.4668 -23.4667 -23.4666 -23.4656
   -22.9118 -22.9118 -22.9118 -22.9117 -22.9117 -22.9117 -22.9115 -22.9113
   -22.8570 -22.8570 -22.8570 -22.8568 -22.8568 -22.8568 -22.8568 -22.8567
   -22.8567 -22.8567 -22.8567 -22.8564 -22.8564 -22.8564 -22.8564 -22.8563
    15.3104  15.3105  15.3105  15.3106  15.3107  15.3108  15.3109  15.3109
    17.1880  17.1880  17.1885  17.1885  17.1885  17.1885  17.1886  17.1886
    17.1886  17.1887  17.1888  17.1889  17.1889  17.1889  17.1890  17.1890
    17.7697  17.7697  17.7697  17.7698  17.7698  17.7698  17.7699  17.7704
    17.7871  17.7871  17.7871  17.7874  17.7874  17.7874  17.7874  17.7874
    17.7875  17.7875  17.7875  17.7878  17.7879  17.7881  17.7881  17.7881
    21.0693  21.0693  21.0701  21.0701  21.0702  21.0702  21.0702  21.0702
    21.0703  21.0703  21.0707  21.0707  21.0707  21.0708  21.0709  21.0709
    21.4567  21.4567  21.4567  21.4569  21.4569  21.4570

 ------ SPIN DOWN ----------


          k = 0.0557 0.0557 0.0557 ( 12407 PWs)   bands (ev):

   -52.1043 -52.0070 -52.0070 -52.0070 -51.9883 -51.9883 -51.9883 -51.9712
   -51.6757 -51.6757 -51.6739 -51.6584 -51.6583 -51.6566 -51.6404 -51.6093
   -23.7707 -23.7706 -23.7706 -23.7661 -23.7661 -23.7660 -23.4822 -23.4822
   -23.4726 -23.4631 -23.4626 -23.4626 -23.4410 -23.4265 -23.4265 -23.2888
   -23.2886 -23.2886 -23.2685 -23.2685 -23.2682 -23.2495 -23.2490 -23.2490
   -23.1074 -23.1072 -23.1072 -23.0921 -23.0921 -23.0772 -22.9382 -22.9373
   -22.9373 -22.9308 -22.9308 -22.9299 -22.9232 -22.9231 -22.9231 -22.7680
   -22.7680 -22.7676 -22.7635 -22.7629 -22.7629 -22.7545 -22.7441 -22.7441
    11.9595  15.3412  15.3414  15.3414  15.3891  15.3892  15.3892  15.4745
    15.4745  15.6313  15.6313  15.6314  16.0671  16.0671  16.0671  17.2879
    17.3639  17.3641  17.3641  17.3755  17.3755  17.3801  17.3801  17.3804
    17.6452  17.6452  17.6876  17.7394  17.7395  17.7395  18.2443  18.2447
    18.2447  18.9289  18.9289  18.9850  19.2285  19.2285  19.2285  19.3380
    19.3380  19.3381  19.5594  19.5594  19.5599  19.6957  19.6964  19.6964
    20.4743  20.4750  20.4750  20.5875  20.5879  20.5880  20.8295  20.8295
    20.8296  20.8893  20.8893  20.8895  21.0301  21.0301  21.0301  21.0493
    21.0493  21.0996  21.1000  21.1000  21.3427  21.3427

          k = 0.0557 0.0557 0.1671 ( 12434 PWs)   bands (ev):

   -52.0992 -52.0140 -52.0059 -52.0059 -51.9894 -51.9894 -51.9873 -51.9722
   -51.6747 -51.6737 -51.6699 -51.6594 -51.6586 -51.6563 -51.6415 -51.6124
   -23.7578 -23.7576 -23.7564 -23.7523 -23.7440 -23.7440 -23.4885 -23.4875
   -23.4872 -23.4755 -23.4725 -23.4720 -23.4637 -23.4583 -23.4136 -23.3497
   -23.3497 -23.2966 -23.2879 -23.2685 -23.2682 -23.2598 -23.2507 -23.2503
   -23.0899 -23.0869 -23.0558 -23.0542 -23.0540 -23.0402 -22.9384 -22.9382
   -22.9340 -22.9243 -22.9242 -22.9194 -22.9139 -22.9130 -22.9115 -22.7821
   -22.7820 -22.7803 -22.7781 -22.7762 -22.7674 -22.7670 -22.7525 -22.7485
    12.0970  15.0747  15.3801  15.3802  15.4508  15.4563  15.4563  15.5029
    15.5456  15.5551  15.6726  15.6727  16.0974  16.0974  16.3155  17.1607
    17.2891  17.2991  17.3072  17.3440  17.3586  17.4222  17.4224  17.4705
    17.4707  17.5037  17.7040  17.7042  17.8452  17.8535  18.1378  18.1381
    18.6644  18.8964  18.9208  19.0018  19.0020  19.0574  19.0910  19.2591
    19.2596  19.2611  19.5482  19.5484  19.7907  19.8185  19.8185  19.9366
    20.0167  20.0168  20.2325  20.3124  20.3127  20.3195  20.4478  20.7830
    20.7831  20.9458  20.9459  20.9529  21.0388  21.0517  21.0521  21.0878
    21.1085  21.1330  21.1332  21.1501  21.3250  21.3396

          k = 0.0557 0.0557 0.2786 ( 12451 PWs)   bands (ev):

   -52.0895 -52.0266 -52.0038 -52.0038 -51.9916 -51.9916 -51.9853 -51.9742
   -51.6727 -51.6716 -51.6614 -51.6613 -51.6599 -51.6546 -51.6434 -51.6186
   -23.7292 -23.7291 -23.7287 -23.7257 -23.7051 -23.7050 -23.5300 -23.5299
   -23.5270 -23.5199 -23.4938 -23.4835 -23.4539 -23.4384 -23.4283 -23.4282
   -23.3936 -23.3201 -23.3174 -23.2797 -23.2665 -23.2661 -23.2531 -23.2528
   -23.0691 -23.0500 -23.0013 -22.9916 -22.9915 -22.9897 -22.9544 -22.9368
   -22.9368 -22.9263 -22.9262 -22.8894 -22.8870 -22.8860 -22.8811 -22.8172
   -22.8057 -22.8056 -22.8042 -22.8023 -22.7800 -22.7794 -22.7688 -22.7626
    12.3670  14.4540  15.4587  15.4588  15.5763  15.5763  15.6605  15.6866
    15.7056  15.7206  15.7207  15.7218  16.1088  16.1089  16.3793  16.8779
    16.9622  17.1086  17.2344  17.3091  17.3128  17.3213  17.5524  17.5525
    17.6325  17.6328  17.7264  17.7266  18.0796  18.0799  18.1262  18.1469
    18.6768  18.6770  18.8728  18.8830  18.8833  18.8987  18.9084  18.9779
[...]
    20.7406  20.7409  20.7519  20.7521  20.8563  20.8566  20.9953  20.9955
    21.0574  21.0578  21.1865  21.1869  21.2313  21.2315

          k = 0.1671-0.5014-0.5014 ( 12416 PWs)   bands (ev):

   -52.0279 -52.0278 -52.0276 -52.0275 -51.9915 -51.9914 -51.9912 -51.9911
   -51.6581 -51.6579 -51.6576 -51.6561 -51.6518 -51.6516 -51.6512 -51.6495
   -23.6150 -23.6150 -23.6149 -23.6149 -23.6125 -23.6124 -23.6121 -23.6120
   -23.5677 -23.5676 -23.5675 -23.5673 -23.3960 -23.3958 -23.3957 -23.3957
   -23.3755 -23.3755 -23.3753 -23.3753 -23.3569 -23.3568 -23.3567 -23.3566
   -22.9984 -22.9983 -22.9974 -22.9974 -22.9887 -22.9887 -22.9875 -22.9875
   -22.8694 -22.8694 -22.8693 -22.8685 -22.8669 -22.8667 -22.8665 -22.8650
   -22.8302 -22.8302 -22.8293 -22.8293 -22.7657 -22.7657 -22.7650 -22.7650
    14.3781  14.3783  14.3784  14.3786  16.2269  16.2270  16.2271  16.2272
    16.3980  16.3981  16.3983  16.3985  16.7619  16.7620  16.7622  16.7623
    17.0383  17.0384  17.0385  17.0388  17.3486  17.3487  17.3487  17.3490
    17.5222  17.5222  17.5225  17.5226  17.9451  17.9451  17.9452  17.9454
    18.0569  18.0569  18.0572  18.0572  18.2010  18.2010  18.2014  18.2017
    18.4329  18.4329  18.4331  18.4334  18.9676  18.9677  18.9681  18.9681
    20.6240  20.6240  20.6243  20.6245  20.7587  20.7587  20.7590  20.7592
    20.8832  20.8833  20.8838  20.8838  20.9067  20.9068  20.9070  20.9079
    20.9351  20.9352  20.9358  20.9358  21.1656  21.1658

          k = 0.2786 0.2786 0.2786 ( 12407 PWs)   bands (ev):

   -52.0643 -52.0152 -52.0152 -52.0151 -51.9942 -51.9942 -51.9942 -51.9808
   -51.6610 -51.6610 -51.6592 -51.6587 -51.6586 -51.6570 -51.6488 -51.6325
   -23.6815 -23.6814 -23.6814 -23.6086 -23.6085 -23.6085 -23.5810 -23.5779
   -23.5779 -23.5778 -23.5018 -23.5018 -23.4849 -23.4849 -23.4018 -23.4014
   -23.4014 -23.3543 -23.3543 -23.3542 -23.3285 -23.3145 -23.3141 -23.3141
   -22.9825 -22.9825 -22.9796 -22.9787 -22.9787 -22.9577 -22.9525 -22.9525
   -22.9513 -22.9099 -22.9092 -22.9092 -22.8820 -22.8529 -22.8524 -22.8524
   -22.8110 -22.8110 -22.8097 -22.7974 -22.7968 -22.7968 -22.7750 -22.7750
    13.1291  14.9465  14.9465  14.9467  15.6411  15.6411  15.6411  16.1149
    16.1149  16.1757  16.1759  16.1759  16.6922  16.6923  16.6923  16.8282
    16.9896  16.9899  16.9899  17.3005  17.3170  17.3170  17.5274  17.5276
    17.5276  17.7589  17.7589  17.7590  17.7946  17.7946  18.1253  18.1256
    18.1256  18.3468  18.3468  18.3473  18.4684  18.4686  18.4686  18.5381
    18.5381  18.7210  18.7210  18.7214  18.8341  18.8346  18.8346  19.8777
    20.2344  20.2635  20.2637  20.2637  20.5530  20.5535  20.5535  20.7299
    20.7299  20.7299  20.9325  20.9325  20.9980  20.9982  20.9982  21.1430
    21.1436  21.1436  21.2645  21.2645  21.3210  21.3213

          k = 0.2786 0.2786 0.3900 ( 12419 PWs)   bands (ev):

   -52.0534 -52.0274 -52.0103 -52.0103 -51.9992 -51.9992 -51.9911 -51.9839
   -51.6606 -51.6594 -51.6590 -51.6584 -51.6557 -51.6531 -51.6507 -51.6383
   -23.6583 -23.6582 -23.6435 -23.6012 -23.6004 -23.6003 -23.5872 -23.5726
   -23.5590 -23.5588 -23.5418 -23.5326 -23.4727 -23.4491 -23.4488 -23.4447
   -23.3956 -23.3588 -23.3587 -23.3583 -23.3548 -23.3333 -23.3331 -23.3173
   -22.9976 -22.9873 -22.9861 -22.9689 -22.9486 -22.9484 -22.9443 -22.9435
   -22.9284 -22.9148 -22.9146 -22.8758 -22.8753 -22.8710 -22.8650 -22.8498
   -22.8322 -22.8030 -22.8022 -22.8010 -22.7963 -22.7957 -22.7928 -22.7741
    13.4843  14.4257  15.1622  15.1623  15.5352  15.5352  15.9801  16.2763
    16.3223  16.3543  16.3545  16.4369  16.6781  16.6798  16.6800  16.7240
    16.7820  16.9011  17.1855  17.1858  17.3452  17.4625  17.5244  17.5999
    17.6393  17.6394  17.6535  17.8486  17.8489  17.9601  17.9603  17.9763
    18.1511  18.1512  18.2259  18.2262  18.2549  18.2991  18.3258  18.3316
    18.4045  18.4248  18.4251  18.4596  18.5341  18.5343  19.0074  19.6604
    20.2936  20.4355  20.4813  20.4814  20.6191  20.6194  20.6642  20.6642
    20.7916  20.8580  20.8732  20.8951  20.8952  20.9103  21.0604  21.0675
    21.1858  21.2965  21.3006  21.3236  21.3272  21.3272

          k = 0.2786 0.2786-0.5014 ( 12410 PWs)   bands (ev):

   -52.0408 -52.0405 -52.0049 -52.0049 -52.0046 -52.0046 -51.9877 -51.9873
   -51.6603 -51.6591 -51.6589 -51.6587 -51.6540 -51.6529 -51.6457 -51.6449
   -23.6293 -23.6293 -23.6292 -23.6291 -23.5962 -23.5959 -23.5939 -23.5937
   -23.5570 -23.5569 -23.5041 -23.5039 -23.5038 -23.5038 -23.4366 -23.4363
   -23.4001 -23.3999 -23.3499 -23.3498 -23.3497 -23.3495 -23.3272 -23.3271
   -23.0021 -23.0021 -22.9813 -22.9810 -22.9384 -22.9382 -22.9374 -22.9373
   -22.9022 -22.9013 -22.9009 -22.9008 -22.8771 -22.8765 -22.8541 -22.8539
   -22.8341 -22.8335 -22.7980 -22.7979 -22.7973 -22.7973 -22.7804 -22.7803
    13.9260  13.9262  15.3726  15.3727  15.3728  15.3729  16.3908  16.3911
    16.4821  16.4824  16.5317  16.5319  16.5335  16.5336  16.5337  16.5338
    16.6988  16.6990  17.3973  17.3975  17.5005  17.5007  17.5408  17.5411
    17.5411  17.5413  17.7937  17.7939  17.7939  17.7940  17.9488  17.9489
    18.1619  18.1620  18.2251  18.2251  18.2252  18.2253  18.2880  18.2881
    18.2881  18.2883  18.3201  18.3201  18.3646  18.3648  19.2958  19.2959
    20.5714  20.5715  20.6198  20.6200  20.6280  20.6280  20.6281  20.6281
    20.7142  20.7144  20.7145  20.7146  21.0721  21.0724  21.1692  21.1697
    21.2103  21.2106  21.2173  21.2176  21.3177  21.3179

          k = 0.2786 0.3900 0.3900 ( 12418 PWs)   bands (ev):

   -52.0438 -52.0210 -52.0209 -52.0059 -52.0059 -51.9956 -51.9956 -51.9875
   -51.6592 -51.6576 -51.6575 -51.6560 -51.6546 -51.6541 -51.6519 -51.6427
   -23.6395 -23.6245 -23.6245 -23.5995 -23.5895 -23.5894 -23.5798 -23.5628
   -23.5626 -23.5446 -23.5439 -23.5080 -23.4792 -23.4699 -23.4542 -23.4107
   -23.4106 -23.3883 -23.3881 -23.3846 -23.3772 -23.3771 -23.3600 -23.3239
   -22.9963 -22.9720 -22.9713 -22.9655 -22.9536 -22.9527 -22.9335 -22.9268
   -22.9166 -22.9071 -22.8917 -22.8795 -22.8787 -22.8658 -22.8658 -22.8580
   -22.8262 -22.8260 -22.8151 -22.8086 -22.7922 -22.7915 -22.7907 -22.7805
    13.8229  14.6977  14.6978  15.2926  15.4180  15.8713  15.8713  16.4167
    16.4962  16.5339  16.6194  16.6196  16.6462  16.6710  16.6713  16.9053
    16.9309  16.9981  16.9983  17.1194  17.4113  17.5254  17.5552  17.5581
    17.5583  17.6315  17.6316  17.7126  17.7514  17.8241  17.8936  18.0411
    18.0414  18.0520  18.0535  18.0538  18.0854  18.1048  18.1052  18.2046
    18.2049  18.2588  18.2630  18.2883  18.3495  18.6395  18.6398  19.2508
    20.5852  20.6171  20.6173  20.6439  20.6882  20.7797  20.8401  20.8582
    20.8585  20.8823  20.8825  20.8991  20.9761  20.9765  21.0425  21.1491
    21.2120  21.2124  21.2418  21.2433  21.2903  21.3207

          k = 0.2786 0.3900-0.5014 ( 12402 PWs)   bands (ev):

   -52.0327 -52.0324 -52.0137 -52.0133 -52.0009 -52.0006 -51.9917 -51.9914
   -51.6585 -51.6579 -51.6560 -51.6557 -51.6553 -51.6536 -51.6485 -51.6477
   -23.6142 -23.6142 -23.6078 -23.6076 -23.5867 -23.5864 -23.5688 -23.5688
   -23.5665 -23.5663 -23.5197 -23.5196 -23.4548 -23.4548 -23.4408 -23.4405
   -23.4220 -23.4219 -23.3903 -23.3901 -23.3825 -23.3822 -23.3525 -23.3524
   -22.9901 -22.9900 -22.9596 -22.9595 -22.9461 -22.9461 -22.9390 -22.9389
   -22.8900 -22.8893 -22.8887 -22.8886 -22.8717 -22.8711 -22.8532 -22.8531
   -22.8442 -22.8437 -22.8171 -22.8170 -22.7906 -22.7905 -22.7838 -22.7838
    14.2382  14.2384  15.0018  15.0020  15.6756  15.6758  16.2682  16.2684
    16.5573  16.5575  16.6046  16.6047  16.7785  16.7787  16.8084  16.8084
    16.8685  16.8687  17.3559  17.3562  17.3805  17.3808  17.4566  17.4567
    17.5066  17.5068  17.6925  17.6927  17.7570  17.7570  17.8723  17.8724
    17.9701  17.9703  17.9726  17.9728  18.1061  18.1063  18.1420  18.1420
    18.1826  18.1828  18.2604  18.2605  18.3259  18.3259  18.8896  18.8897
    20.7508  20.7511  20.7600  20.7602  20.8015  20.8016  20.8198  20.8201
    20.8549  20.8550  20.9140  20.9140  21.0508  21.0510  21.1036  21.1040
    21.1546  21.1550  21.1590  21.1593  21.2438  21.2441

          k = 0.2786-0.5014-0.5014 ( 12412 PWs)   bands (ev):

   -52.0234 -52.0233 -52.0231 -52.0229 -51.9964 -51.9963 -51.9961 -51.9959
   -51.6571 -51.6569 -51.6567 -51.6553 -51.6524 -51.6522 -51.6518 -51.6500
   -23.5917 -23.5917 -23.5916 -23.5916 -23.5903 -23.5902 -23.5900 -23.5899
   -23.5407 -23.5405 -23.5405 -23.5403 -23.4280 -23.4279 -23.4279 -23.4277
   -23.4195 -23.4195 -23.4194 -23.4194 -23.3894 -23.3894 -23.3891 -23.3890
   -22.9699 -22.9697 -22.9690 -22.9689 -22.9469 -22.9468 -22.9458 -22.9458
   -22.8763 -22.8763 -22.8762 -22.8754 -22.8647 -22.8645 -22.8644 -22.8631
   -22.8390 -22.8388 -22.8383 -22.8383 -22.7868 -22.7868 -22.7861 -22.7860
    14.6097  14.6099  14.6100  14.6101  16.0042  16.0043  16.0044  16.0045
    16.6031  16.6032  16.6034  16.6036  16.9995  16.9996  16.9998  16.9998
    17.0771  17.0773  17.0774  17.0777  17.3018  17.3019  17.3019  17.3022
    17.5960  17.5960  17.5963  17.5963  17.7729  17.7729  17.7730  17.7732
    17.9840  17.9840  17.9843  17.9846  17.9851  17.9851  17.9854  17.9854
    18.1957  18.1957  18.1958  18.1961  18.5479  18.5480  18.5483  18.5483
    20.8296  20.8297  20.8298  20.8303  20.9499  20.9501  20.9501  20.9505
    20.9641  20.9642  20.9642  20.9647  21.0134  21.0135  21.0136  21.0139
    21.1469  21.1471  21.1471  21.1478  21.2783  21.2784

          k = 0.3900 0.3900 0.3900 ( 12406 PWs)   bands (ev):

   -52.0353 -52.0152 -52.0152 -52.0151 -52.0017 -52.0017 -52.0016 -51.9919
   -51.6570 -51.6569 -51.6554 -51.6551 -51.6550 -51.6547 -51.6524 -51.6460
   -23.6034 -23.6034 -23.6034 -23.5802 -23.5802 -23.5801 -23.5597 -23.5223
   -23.5220 -23.5220 -23.5127 -23.5127 -23.5075 -23.5075 -23.4321 -23.4317
   -23.4317 -23.4297 -23.4297 -23.4297 -23.4097 -23.4096 -23.4096 -23.3462
   -22.9846 -22.9414 -22.9406 -22.9406 -22.9268 -22.9268 -22.9255 -22.9152
   -22.9152 -22.8851 -22.8844 -22.8844 -22.8814 -22.8805 -22.8805 -22.8613
   -22.8256 -22.8251 -22.8251 -22.8085 -22.8085 -22.8054 -22.8054 -22.8042
    14.1543  14.9916  14.9916  14.9918  15.6316  15.6316  15.6316  16.4212
    16.6487  16.6487  16.7791  16.7794  16.7794  16.9513  16.9516  16.9516
    16.9895  16.9896  16.9896  17.0973  17.4744  17.4744  17.6149  17.6149
    17.6398  17.6400  17.6400  17.7133  17.7136  17.7136  17.7714  17.7716
    17.7716  17.9421  17.9423  17.9423  17.9450  17.9450  17.9455  18.0018
    18.0018  18.0023  18.1679  18.1679  18.2783  18.2787  18.2787  18.8243
    20.7558  20.7561  20.7561  20.9249  20.9509  20.9509  20.9513  20.9657
    20.9657  20.9855  20.9860  20.9860  21.0264  21.0268  21.0268  21.1951
    21.1951  21.2361  21.2364  21.2364  21.2579  21.2579

          k = 0.3900 0.3900-0.5014 ( 12422 PWs)   bands (ev):

   -52.0255 -52.0252 -52.0086 -52.0086 -52.0083 -52.0083 -51.9969 -51.9966
   -51.6566 -51.6562 -51.6555 -51.6554 -51.6549 -51.6536 -51.6505 -51.6494
   -23.5849 -23.5849 -23.5848 -23.5848 -23.5588 -23.5585 -23.5505 -23.5504
   -23.5398 -23.5397 -23.4774 -23.4772 -23.4770 -23.4770 -23.4738 -23.4735
   -23.4609 -23.4608 -23.4312 -23.4312 -23.4310 -23.4310 -23.3849 -23.3848
   -22.9648 -22.9647 -22.9214 -22.9213 -22.9177 -22.9174 -22.9172 -22.9170
   -22.8923 -22.8919 -22.8917 -22.8916 -22.8694 -22.8694 -22.8673 -22.8667
   -22.8445 -22.8439 -22.8183 -22.8183 -22.8176 -22.8176 -22.8050 -22.8050
    14.5560  14.5562  15.3217  15.3218  15.3219  15.3220  16.0324  16.0326
    16.7909  16.7911  16.8752  16.8754  16.8999  16.9001  16.9001  16.9002
    17.0743  17.0745  17.3297  17.3300  17.3300  17.3302  17.5165  17.5166
    17.5541  17.5544  17.6695  17.6697  17.6712  17.6713  17.7820  17.7823
    17.7823  17.7824  17.9176  17.9179  17.9179  17.9180  17.9830  17.9832
    17.9832  17.9832  18.0436  18.0437  18.0582  18.0584  18.4724  18.4725
    20.8674  20.8677  20.8973  20.8974  20.8976  20.8977  21.0329  21.0329
    21.0332  21.0332  21.0857  21.0860  21.1116  21.1119  21.1826  21.1830
    21.2220  21.2222  21.2271  21.2272  21.2274  21.2275

          k = 0.3900-0.5014-0.5014 ( 12436 PWs)   bands (ev):

   -52.0172 -52.0171 -52.0169 -52.0168 -52.0029 -52.0027 -52.0025 -52.0024
   -51.6560 -51.6558 -51.6557 -51.6544 -51.6533 -51.6531 -51.6526 -51.6507
   -23.5582 -23.5582 -23.5581 -23.5581 -23.5575 -23.5574 -23.5573 -23.5571
   -23.5054 -23.5052 -23.5051 -23.5051 -23.4711 -23.4710 -23.4710 -23.4707
   -23.4685 -23.4685 -23.4685 -23.4685 -23.4264 -23.4264 -23.4261 -23.4261
   -22.9390 -22.9388 -22.9383 -22.9382 -22.9005 -22.9005 -22.8996 -22.8996
   -22.8900 -22.8897 -22.8896 -22.8893 -22.8610 -22.8609 -22.8609 -22.8598
   -22.8486 -22.8482 -22.8481 -22.8480 -22.8174 -22.8174 -22.8166 -22.8166
    14.9320  14.9322  14.9323  14.9325  15.6887  15.6888  15.6889  15.6891
    16.8839  16.8840  16.8841  16.8844  17.1293  17.1295  17.1295  17.1298
    17.2467  17.2469  17.2469  17.2470  17.2476  17.2478  17.2478  17.2481
    17.6864  17.6864  17.6866  17.6867  17.6910  17.6912  17.6913  17.6914
    17.7381  17.7382  17.7384  17.7390  17.8913  17.8913  17.8916  17.8916
    17.9622  17.9622  17.9623  17.9626  18.1309  18.1310  18.1313  18.1313
    20.9406  20.9407  20.9409  20.9414  21.0138  21.0139  21.0139  21.0145
    21.1156  21.1158  21.1158  21.1165  21.2001  21.2004  21.2004  21.2005
    21.2064  21.2065  21.2066  21.2071  21.2474  21.2476

          k =-0.5014-0.5014-0.5014 ( 12400 PWs)   bands (ev):

   -52.0102 -52.0101 -52.0100 -52.0099 -52.0098 -52.0097 -52.0097 -52.0096
   -51.6553 -51.6551 -51.6551 -51.6539 -51.6539 -51.6537 -51.6531 -51.6511
   -23.5162 -23.5162 -23.5162 -23.5162 -23.5162 -23.5161 -23.5160 -23.5160
   -23.5158 -23.5158 -23.5158 -23.5158 -23.5158 -23.5157 -23.5157 -23.5157
   -23.4664 -23.4661 -23.4658 -23.4658 -23.4657 -23.4657 -23.4657 -23.4656
   -22.9119 -22.9108 -22.9107 -22.9107 -22.9107 -22.9105 -22.9105 -22.9105
   -22.8568 -22.8567 -22.8567 -22.8567 -22.8566 -22.8558 -22.8557 -22.8557
   -22.8557 -22.8557 -22.8555 -22.8554 -22.8554 -22.8547 -22.8547 -22.8547
    15.3097  15.3099  15.3099  15.3100  15.3101  15.3101  15.3101  15.3104
    17.1882  17.1883  17.1883  17.1883  17.1884  17.1884  17.1886  17.1886
    17.1887  17.1887  17.1887  17.1887  17.1888  17.1888  17.1892  17.1892
    17.7696  17.7701  17.7703  17.7703  17.7703  17.7704  17.7704  17.7704
    17.7875  17.7875  17.7875  17.7876  17.7877  17.7880  17.7880  17.7880
    17.7880  17.7881  17.7881  17.7881  17.7881  17.7884  17.7884  17.7884
    21.0703  21.0704  21.0704  21.0705  21.0706  21.0706  21.0709  21.0709
    21.0710  21.0710  21.0710  21.0711  21.0712  21.0712  21.0719  21.0719
    21.4572  21.4572  21.4572  21.4578  21.4579  21.4581

     the Fermi energy is    19.8231 ev

!    total energy              =   -3971.53906194 Ry
     Harris-Foulkes estimate   =   -3971.53906124 Ry
     estimated scf accuracy    <       0.00000065 Ry

     total all-electron energy =    -33628.061941 Ry

     The total energy is the sum of the following terms:

     one-electron contribution =    -871.99585079 Ry
     hartree contribution      =     575.71919292 Ry
     xc contribution           =    -356.78020267 Ry
     ewald contribution        =   -2130.52093193 Ry
     one-center paw contrib.   =   -1187.98225982 Ry
     smearing contrib. (-TS)   =       0.02099036 Ry

     total magnetization       =     0.00 Bohr mag/cell
     absolute magnetization    =     5.25 Bohr mag/cell

     convergence has been achieved in  38 iterations

     Forces acting on atoms (cartesian axes, Ry/au):

     atom    1 type  1   force =     0.00000000    0.00000000    0.00000000
     atom    2 type  2   force =    -0.00002873   -0.00002873   -0.00002873
     atom    3 type  1   force =     0.00000000   -0.00000000    0.00000000
     atom    4 type  2   force =    -0.00002873   -0.00002873    0.00002873
     atom    5 type  1   force =     0.00000000    0.00000000    0.00000000
     atom    6 type  2   force =    -0.00002873    0.00002873   -0.00002873
     atom    7 type  1   force =     0.00000000    0.00000000    0.00000000
     atom    8 type  2   force =    -0.00002873    0.00002873    0.00002873
     atom    9 type  1   force =     0.00000000    0.00000000    0.00000000
     atom   10 type  2   force =     0.00002873   -0.00002873   -0.00002873
     atom   11 type  1   force =     0.00000000    0.00000000   -0.00000000
     atom   12 type  2   force =     0.00002873   -0.00002873    0.00002873
     atom   13 type  1   force =     0.00000000    0.00000000    0.00000000
     atom   14 type  2   force =     0.00002873    0.00002873   -0.00002873
     atom   15 type  1   force =     0.00000000   -0.00000000    0.00000000
     atom   16 type  2   force =     0.00002873    0.00002873    0.00002873

     Total force =     0.000141     Total SCF correction =     0.000355
     SCF correction compared to forces is large: reduce conv_thr to get better values


     Computing stress (Cartesian axis) and pressure

          total   stress  (Ry/bohr**3)                   (kbar)     P=   27.84
   0.00018923   0.00000000   0.00000000         27.84      0.00      0.00
   0.00000000   0.00018923   0.00000000          0.00     27.84      0.00
   0.00000000   0.00000000   0.00018923          0.00      0.00     27.84


     Writing output data file oFFUbgWBNlrTOgsA.save/
 
     init_run     :      7.56s CPU      7.90s WALL (       1 calls)
     electrons    :   1376.38s CPU   1403.79s WALL (       1 calls)
     forces       :      2.39s CPU      2.52s WALL (       1 calls)
     stress       :     10.43s CPU     10.52s WALL (       1 calls)

     Called by init_run:
     wfcinit      :      6.95s CPU      7.22s WALL (       1 calls)
     potinit      :      0.30s CPU      0.33s WALL (       1 calls)
     hinit0       :      0.11s CPU      0.13s WALL (       1 calls)

     Called by electrons:
     c_bands      :   1277.29s CPU   1300.21s WALL (      39 calls)
     sum_band     :     85.63s CPU     89.02s WALL (      39 calls)
     v_of_rho     :      1.01s CPU      1.08s WALL (      39 calls)
     newd         :      2.12s CPU      2.62s WALL (      39 calls)
     PAW_pot      :     10.15s CPU     10.62s WALL (      39 calls)
     mix_rho      :      0.33s CPU      0.36s WALL (      39 calls)

     Called by c_bands:
     init_us_2    :      5.74s CPU      5.85s WALL (    5670 calls)
     cegterg      :   1242.91s CPU   1265.43s WALL (    2730 calls)

     Called by sum_band:
     sum_band:bec :      0.85s CPU      0.85s WALL (    2730 calls)
     addusdens    :      4.06s CPU      4.55s WALL (      39 calls)

     Called by *egterg:
     h_psi        :    431.70s CPU    445.13s WALL (   14911 calls)
     s_psi        :     33.01s CPU     33.21s WALL (   14911 calls)
     g_psi        :      1.78s CPU      1.80s WALL (   12111 calls)
     cdiaghg      :    628.88s CPU    631.09s WALL (   14771 calls)

     Called by h_psi:
     h_psi:pot    :    428.81s CPU    442.21s WALL (   14911 calls)
     h_psi:calbec :     38.95s CPU     42.51s WALL (   14911 calls)
     vloc_psi     :    355.59s CPU    365.23s WALL (   14911 calls)
     add_vuspsi   :     34.16s CPU     34.37s WALL (   14911 calls)

     General routines
     calbec       :     55.58s CPU     60.47s WALL (   17991 calls)
     fft          :      0.79s CPU      0.87s WALL (    1017 calls)
     ffts         :      0.07s CPU      0.08s WALL (     156 calls)
     fftw         :    391.32s CPU    401.77s WALL ( 2517608 calls)
     interpolate  :      0.10s CPU      0.12s WALL (      78 calls)
 
     Parallel routines
     fft_scatt_xy :     30.78s CPU     31.57s WALL ( 2518781 calls)
     fft_scatt_yz :    229.49s CPU    235.81s WALL ( 2518781 calls)
 
     PWSCF        : 23m20.51s CPU    23m54.76s WALL

 
   This run was terminated on:  22:22:51  15Jun2020            

=------------------------------------------------------------------------------=
   JOB DONE.
=------------------------------------------------------------------------------=
