--------------------------------------------------------------------------
WARNING: No preset parameters were found for the device that Open MPI
detected:

  Local host:            bear-pg0206u20b
  Device name:           mlx5_0
  Device vendor ID:      0x02c9
  Device vendor part ID: 4123

Default device parameters will be used, which may result in lower
performance.  You can edit any of the files specified by the
btl_openib_device_param_files MCA parameter to set values for your
device.

NOTE: You can turn off this warning by setting the MCA parameter
      btl_openib_warn_no_device_params_found to 0.
--------------------------------------------------------------------------
--------------------------------------------------------------------------
WARNING: There was an error initializing an OpenFabrics device.

  Local host:   bear-pg0206u20b
  Local device: mlx5_0
--------------------------------------------------------------------------

     Program PWSCF v.6.3 starts on 16Jun2020 at  4:49:37 

     This program is part of the open-source Quantum ESPRESSO suite
     for quantum simulation of materials; please cite
         "P. Giannozzi et al., J. Phys.:Condens. Matter 21 395502 (2009);
         "P. Giannozzi et al., J. Phys.:Condens. Matter 29 465901 (2017);
          URL http://www.quantum-espresso.org", 
     in publications or presentations arising from this work. More details at
     http://www.quantum-espresso.org/quote

     Parallel version (MPI & OpenMP), running on      20 processor cores
     Number of MPI processes:                20
     Threads/MPI process:                     1

     MPI processes distributed on     1 nodes
     R & G space division:  proc/nbgrp/npool/nimage =      20
     Reading input from wd/eos/eos_015.in
Warning: card &IONS ignored
Warning: card ION_DYNAMICS = 'BFGS', ignored
Warning: card / ignored
Warning: card &CELL ignored
Warning: card CELL_DYNAMICS = 'BFGS', ignored
Warning: card CELL_FACTOR = 2.0, ignored
Warning: card PRESS = 0.0, ignored
Warning: card / ignored

     Current dimensions of program PWSCF are:
     Max number of different atomic species (ntypx) = 10
     Max number of k-points (npk) =  40000
     Max angular momentum in pseudopotentials (lmaxx) =  3
     Message from routine read_upf::
     Pseudo file /rds/homes/b/bxp912/pp/Cr.pbe-spn-kjpaw_psl.1.0.0.UPF has been successfully fixed on the fly.
To avoid this message in the future you can permanently fix 
 your pseudo files following instructions given in: 
https://gitlab.com/QEF/q-e/blob/master/upftools/how_to_fix_upf.md
               file Cr.pbe-spn-kjpaw_psl.1.0.0.UPF: wavefunction(s)  3S 3P 3D renormalized
     Message from routine read_upf::
     Pseudo file /rds/homes/b/bxp912/pp/Cr.pbe-spn-kjpaw_psl.1.0.0.UPF has been successfully fixed on the fly.
To avoid this message in the future you can permanently fix 
 your pseudo files following instructions given in: 
https://gitlab.com/QEF/q-e/blob/master/upftools/how_to_fix_upf.md
               file Cr.pbe-spn-kjpaw_psl.1.0.0.UPF: wavefunction(s)  3S 3P 3D renormalized

     Subspace diagonalization in iterative solution of the eigenvalue problem:
     a serial algorithm will be used

     Found symmetry operation: I + (  0.0000  0.0000  0.5000)
     This is a supercell, fractional translations are disabled
 
     Parallelization info
     --------------------
     sticks:   dense  smooth     PW     G-vecs:    dense   smooth      PW
     Min         205     135     38                 9907     5305     788
     Max         206     136     39                 9910     5310     792
     Sum        4117    2709    761               198173   106143   15791
 


     bravais-lattice index     =            0
     lattice parameter (alat)  =      10.7442  a.u.
     unit-cell volume          =    1316.1908 (a.u.)^3
     number of atoms/cell      =           16
     number of atomic types    =            2
     number of electrons       =       224.00
     number of Kohn-Sham states=          134
     kinetic-energy cutoff     =      71.0000  Ry
     charge density cutoff     =     430.0000  Ry
     convergence threshold     =      1.0E-06
     mixing beta               =       0.1000
     number of iterations used =           10  plain     mixing
     Exchange-correlation      = SLA PW PBX PBC ( 1  4  3  4 0 0)

     celldm(1)=  10.744168  celldm(2)=   0.000000  celldm(3)=   0.000000
     celldm(4)=   0.000000  celldm(5)=   0.000000  celldm(6)=   0.000000

     crystal axes: (cart. coord. in units of alat)
               a(1) = (   1.020000   0.000000   0.000000 )  
               a(2) = (   0.000000   1.020000   0.000000 )  
               a(3) = (   0.000000   0.000000   1.020000 )  

     reciprocal axes: (cart. coord. in units 2 pi/alat)
               b(1) = (  0.980392  0.000000  0.000000 )  
               b(2) = (  0.000000  0.980392  0.000000 )  
               b(3) = (  0.000000  0.000000  0.980392 )  


     PseudoPot. # 1 for Cr read from file:
     /rds/homes/b/bxp912/pp/Cr.pbe-spn-kjpaw_psl.1.0.0.UPF
     MD5 check sum: cb1c17117da000fe5e03c4f1a6841d9c
     Pseudo is Projector augmented-wave + core cor, Zval = 14.0
     Generated using "atomic" code by A. Dal Corso v.5.1
     Shape of augmentation charge: PSQ
     Using radial grid of 1183 points,  6 beta functions with: 
                l(1) =   0
                l(2) =   0
                l(3) =   1
                l(4) =   1
                l(5) =   2
                l(6) =   2
     Q(r) pseudized with 0 coefficients 


     PseudoPot. # 2 for Cr read from file:
     /rds/homes/b/bxp912/pp/Cr.pbe-spn-kjpaw_psl.1.0.0.UPF
     MD5 check sum: cb1c17117da000fe5e03c4f1a6841d9c
     Pseudo is Projector augmented-wave + core cor, Zval = 14.0
     Generated using "atomic" code by A. Dal Corso v.5.1
     Shape of augmentation charge: PSQ
     Using radial grid of 1183 points,  6 beta functions with: 
                l(1) =   0
                l(2) =   0
                l(3) =   1
                l(4) =   1
                l(5) =   2
                l(6) =   2
     Q(r) pseudized with 0 coefficients 


     atomic species   valence    mass     pseudopotential
        Cr1           14.00    55.84500     Cr( 1.00)
        Cr2           14.00    55.84500     Cr( 1.00)

     Starting magnetic structure 
     atomic species   magnetization
        Cr1          0.300
        Cr2         -0.300

     48 Sym. Ops., with inversion, found



   Cartesian axes

     site n.     atom                  positions (alat units)
         1           Cr1 tau(   1) = (   0.0000000   0.0000000   0.0000000  )
         2           Cr2 tau(   2) = (   0.2550001   0.2550001   0.2549997  )
         3           Cr1 tau(   3) = (   0.0000000   0.0000000   0.5099995  )
         4           Cr2 tau(   4) = (   0.2550001   0.2550001   0.7650003  )
         5           Cr1 tau(   5) = (   0.0000000   0.5100002   0.0000000  )
         6           Cr2 tau(   6) = (   0.2550001   0.7650003   0.2549997  )
         7           Cr1 tau(   7) = (   0.0000000   0.5100002   0.5099995  )
         8           Cr2 tau(   8) = (   0.2550001   0.7650003   0.7650003  )
         9           Cr1 tau(   9) = (   0.5100002   0.0000000   0.0000000  )
        10           Cr2 tau(  10) = (   0.7650003   0.2550001   0.2549997  )
        11           Cr1 tau(  11) = (   0.5100002   0.0000000   0.5099995  )
        12           Cr2 tau(  12) = (   0.7650003   0.2550001   0.7650003  )
        13           Cr1 tau(  13) = (   0.5100002   0.5100002   0.0000000  )
        14           Cr2 tau(  14) = (   0.7650003   0.7650003   0.2549997  )
        15           Cr1 tau(  15) = (   0.5100002   0.5100002   0.5099995  )
        16           Cr2 tau(  16) = (   0.7650003   0.7650003   0.7650003  )

     number of k points=    35  Marzari-Vanderbilt smearing, width (Ry)=  0.0400
                       cart. coord. in units 2pi/alat
        k(    1) = (   0.0544662   0.0544662   0.0544662), wk =   0.0109739
        k(    2) = (   0.0544662   0.0544662   0.1633987), wk =   0.0329218
        k(    3) = (   0.0544662   0.0544662   0.2723312), wk =   0.0329218
        k(    4) = (   0.0544662   0.0544662   0.3812636), wk =   0.0329218
        k(    5) = (   0.0544662   0.0544662  -0.4901961), wk =   0.0164609
        k(    6) = (   0.0544662   0.1633987   0.1633987), wk =   0.0329218
        k(    7) = (   0.0544662   0.1633987   0.2723312), wk =   0.0658436
        k(    8) = (   0.0544662   0.1633987   0.3812636), wk =   0.0658436
        k(    9) = (   0.0544662   0.1633987  -0.4901961), wk =   0.0329218
        k(   10) = (   0.0544662   0.2723312   0.2723312), wk =   0.0329218
        k(   11) = (   0.0544662   0.2723312   0.3812636), wk =   0.0658436
        k(   12) = (   0.0544662   0.2723312  -0.4901961), wk =   0.0329218
        k(   13) = (   0.0544662   0.3812636   0.3812636), wk =   0.0329218
        k(   14) = (   0.0544662   0.3812636  -0.4901961), wk =   0.0329218
        k(   15) = (   0.0544662  -0.4901961  -0.4901961), wk =   0.0082305
        k(   16) = (   0.1633987   0.1633987   0.1633987), wk =   0.0109739
        k(   17) = (   0.1633987   0.1633987   0.2723312), wk =   0.0329218
        k(   18) = (   0.1633987   0.1633987   0.3812636), wk =   0.0329218
        k(   19) = (   0.1633987   0.1633987  -0.4901961), wk =   0.0164609
        k(   20) = (   0.1633987   0.2723312   0.2723312), wk =   0.0329218
        k(   21) = (   0.1633987   0.2723312   0.3812636), wk =   0.0658436
        k(   22) = (   0.1633987   0.2723312  -0.4901961), wk =   0.0329218
        k(   23) = (   0.1633987   0.3812636   0.3812636), wk =   0.0329218
        k(   24) = (   0.1633987   0.3812636  -0.4901961), wk =   0.0329218
        k(   25) = (   0.1633987  -0.4901961  -0.4901961), wk =   0.0082305
        k(   26) = (   0.2723312   0.2723312   0.2723312), wk =   0.0109739
        k(   27) = (   0.2723312   0.2723312   0.3812636), wk =   0.0329218
        k(   28) = (   0.2723312   0.2723312  -0.4901961), wk =   0.0164609
        k(   29) = (   0.2723312   0.3812636   0.3812636), wk =   0.0329218
        k(   30) = (   0.2723312   0.3812636  -0.4901961), wk =   0.0329218
        k(   31) = (   0.2723312  -0.4901961  -0.4901961), wk =   0.0082305
        k(   32) = (   0.3812636   0.3812636   0.3812636), wk =   0.0109739
        k(   33) = (   0.3812636   0.3812636  -0.4901961), wk =   0.0164609
        k(   34) = (   0.3812636  -0.4901961  -0.4901961), wk =   0.0082305
        k(   35) = (  -0.4901961  -0.4901961  -0.4901961), wk =   0.0013717

     Dense  grid:   198173 G-vectors     FFT dimensions: (  75,  75,  75)

     Smooth grid:   106143 G-vectors     FFT dimensions: (  60,  60,  60)

     Estimated max dynamical RAM per process >     151.38 MB

     Estimated total dynamical RAM >       2.96 GB
     Generating pointlists ...
     new r_m :   0.1822 (alat units)  1.9575 (a.u.) for type    1
     new r_m :   0.1822 (alat units)  1.9575 (a.u.) for type    2

     Check: negative/imaginary core charge=   -0.000008    0.000000

     Initial potential from superposition of free atoms

     starting charge  223.98764, renormalised to  224.00000
     Starting wfcs are  160 randomized atomic wfcs
     Checking if some PAW data can be deallocated... 

     total cpu time spent up to now is        9.3 secs

     Self-consistent Calculation

     iteration #  1     ecut=    71.00 Ry     beta= 0.10
     Davidson diagonalization with overlap
     ethr =  1.00E-02,  avg # of iterations =  3.3

     Threshold (ethr) on eigenvalues was too large:
     Diagonalizing with lowered threshold

     Davidson diagonalization with overlap
     ethr =  6.86E-04,  avg # of iterations =  3.7

     total cpu time spent up to now is       58.3 secs

     total energy              =   -3970.69076679 Ry
     Harris-Foulkes estimate   =   -3970.59768598 Ry
     estimated scf accuracy    <       1.61820986 Ry

     total magnetization       =    -0.00 Bohr mag/cell
     absolute magnetization    =    40.83 Bohr mag/cell

     iteration #  2     ecut=    71.00 Ry     beta= 0.10
     Davidson diagonalization with overlap
     ethr =  7.22E-04,  avg # of iterations =  1.1

     total cpu time spent up to now is       74.4 secs

     total energy              =   -3971.11209843 Ry
     Harris-Foulkes estimate   =   -3970.70031121 Ry
     estimated scf accuracy    <       1.22209571 Ry

     total magnetization       =     0.00 Bohr mag/cell
     absolute magnetization    =    40.93 Bohr mag/cell

     iteration #  3     ecut=    71.00 Ry     beta= 0.10
     Davidson diagonalization with overlap
     ethr =  5.46E-04,  avg # of iterations =  2.9

     total cpu time spent up to now is       99.6 secs

     total energy              =   -3971.31383859 Ry
     Harris-Foulkes estimate   =   -3971.28294830 Ry
     estimated scf accuracy    <       0.28155445 Ry

     total magnetization       =    -0.00 Bohr mag/cell
     absolute magnetization    =    40.11 Bohr mag/cell

     iteration #  4     ecut=    71.00 Ry     beta= 0.10
     Davidson diagonalization with overlap
     ethr =  1.26E-04,  avg # of iterations =  2.3

     total cpu time spent up to now is      118.8 secs

     total energy              =   -3971.33191100 Ry
     Harris-Foulkes estimate   =   -3971.32252589 Ry
     estimated scf accuracy    <       0.40087838 Ry

     total magnetization       =    -0.00 Bohr mag/cell
     absolute magnetization    =    40.45 Bohr mag/cell

     iteration #  5     ecut=    71.00 Ry     beta= 0.10
     Davidson diagonalization with overlap
     ethr =  1.26E-04,  avg # of iterations =  5.1

     total cpu time spent up to now is      151.6 secs

     total energy              =   -3971.44237505 Ry
     Harris-Foulkes estimate   =   -3971.43778978 Ry
     estimated scf accuracy    <       0.03215740 Ry

     total magnetization       =     0.00 Bohr mag/cell
     absolute magnetization    =    34.27 Bohr mag/cell

     iteration #  6     ecut=    71.00 Ry     beta= 0.10
     Davidson diagonalization with overlap
     ethr =  1.44E-05,  avg # of iterations =  3.8

     total cpu time spent up to now is      175.7 secs

     total energy              =   -3971.44370585 Ry
     Harris-Foulkes estimate   =   -3971.44397128 Ry
     estimated scf accuracy    <       0.02856635 Ry

     total magnetization       =     0.00 Bohr mag/cell
     absolute magnetization    =    34.02 Bohr mag/cell

     iteration #  7     ecut=    71.00 Ry     beta= 0.10
     Davidson diagonalization with overlap
     ethr =  1.28E-05,  avg # of iterations =  1.0

     total cpu time spent up to now is      191.6 secs

     total energy              =   -3971.45751048 Ry
     Harris-Foulkes estimate   =   -3971.44390272 Ry
     estimated scf accuracy    <       0.02911721 Ry

     total magnetization       =     0.00 Bohr mag/cell
     absolute magnetization    =    34.02 Bohr mag/cell

     iteration #  8     ecut=    71.00 Ry     beta= 0.10
     Davidson diagonalization with overlap
     ethr =  1.28E-05,  avg # of iterations =  4.7

     total cpu time spent up to now is      220.5 secs

     total energy              =   -3971.48144773 Ry
     Harris-Foulkes estimate   =   -3971.46346720 Ry
     estimated scf accuracy    <       0.02393303 Ry

     total magnetization       =     0.00 Bohr mag/cell
     absolute magnetization    =    32.39 Bohr mag/cell

     iteration #  9     ecut=    71.00 Ry     beta= 0.10
     Davidson diagonalization with overlap
     ethr =  1.07E-05,  avg # of iterations =  5.8

     total cpu time spent up to now is      258.1 secs

     total energy              =   -3971.49923927 Ry
     Harris-Foulkes estimate   =   -3971.49136835 Ry
     estimated scf accuracy    <       0.01147503 Ry

     total magnetization       =     0.01 Bohr mag/cell
     absolute magnetization    =    30.03 Bohr mag/cell

     iteration # 10     ecut=    71.00 Ry     beta= 0.10
     Davidson diagonalization with overlap
     ethr =  5.12E-06,  avg # of iterations =  4.3

     total cpu time spent up to now is      284.8 secs

     total energy              =   -3971.50382649 Ry
     Harris-Foulkes estimate   =   -3971.50160583 Ry
     estimated scf accuracy    <       0.00877484 Ry

     total magnetization       =     0.00 Bohr mag/cell
     absolute magnetization    =    28.81 Bohr mag/cell

     iteration # 11     ecut=    71.00 Ry     beta= 0.10
     Davidson diagonalization with overlap
     ethr =  3.92E-06,  avg # of iterations =  2.7

     total cpu time spent up to now is      304.8 secs

     total energy              =   -3971.50878245 Ry
     Harris-Foulkes estimate   =   -3971.50405896 Ry
     estimated scf accuracy    <       0.00743135 Ry

     total magnetization       =     0.00 Bohr mag/cell
     absolute magnetization    =    28.55 Bohr mag/cell

     iteration # 12     ecut=    71.00 Ry     beta= 0.10
     Davidson diagonalization with overlap
     ethr =  3.32E-06,  avg # of iterations =  5.3

     total cpu time spent up to now is      343.4 secs

     total energy              =   -3971.51900079 Ry
     Harris-Foulkes estimate   =   -3971.51788082 Ry
     estimated scf accuracy    <       0.00464155 Ry

     total magnetization       =    -0.00 Bohr mag/cell
     absolute magnetization    =    26.03 Bohr mag/cell

     iteration # 13     ecut=    71.00 Ry     beta= 0.10
     Davidson diagonalization with overlap
     ethr =  2.07E-06,  avg # of iterations =  4.8

     total cpu time spent up to now is      379.3 secs

     total energy              =   -3971.52616159 Ry
     Harris-Foulkes estimate   =   -3971.52518700 Ry
     estimated scf accuracy    <       0.00287709 Ry

     total magnetization       =    -0.00 Bohr mag/cell
     absolute magnetization    =    23.91 Bohr mag/cell

     iteration # 14     ecut=    71.00 Ry     beta= 0.10
     Davidson diagonalization with overlap
     ethr =  1.28E-06,  avg # of iterations =  4.2

     total cpu time spent up to now is      408.3 secs

     total energy              =   -3971.52666116 Ry
     Harris-Foulkes estimate   =   -3971.52721692 Ry
     estimated scf accuracy    <       0.00183076 Ry

     total magnetization       =     0.00 Bohr mag/cell
     absolute magnetization    =    23.06 Bohr mag/cell

     iteration # 15     ecut=    71.00 Ry     beta= 0.10
     Davidson diagonalization with overlap
     ethr =  8.17E-07,  avg # of iterations =  5.0

     total cpu time spent up to now is      443.9 secs

     total energy              =   -3971.52127373 Ry
     Harris-Foulkes estimate   =   -3971.52895041 Ry
     estimated scf accuracy    <       0.00057020 Ry

     total magnetization       =     0.00 Bohr mag/cell
     absolute magnetization    =    21.79 Bohr mag/cell

     iteration # 16     ecut=    71.00 Ry     beta= 0.10
     Davidson diagonalization with overlap
     ethr =  2.55E-07,  avg # of iterations =  6.0

     total cpu time spent up to now is      498.0 secs

     total energy              =   -3971.52878601 Ry
     Harris-Foulkes estimate   =   -3971.52988569 Ry
     estimated scf accuracy    <       0.00019881 Ry

     total magnetization       =    -0.00 Bohr mag/cell
     absolute magnetization    =    19.20 Bohr mag/cell

     iteration # 17     ecut=    71.00 Ry     beta= 0.10
     Davidson diagonalization with overlap
     ethr =  8.88E-08,  avg # of iterations =  5.4

     total cpu time spent up to now is      546.2 secs

     total energy              =   -3971.52998738 Ry
     Harris-Foulkes estimate   =   -3971.53004168 Ry
     estimated scf accuracy    <       0.00045499 Ry

     total magnetization       =    -0.00 Bohr mag/cell
     absolute magnetization    =    20.14 Bohr mag/cell

     iteration # 18     ecut=    71.00 Ry     beta= 0.10
     Davidson diagonalization with overlap
     ethr =  8.88E-08,  avg # of iterations =  4.0

     total cpu time spent up to now is      575.6 secs

     total energy              =   -3971.52991970 Ry
     Harris-Foulkes estimate   =   -3971.53007606 Ry
     estimated scf accuracy    <       0.00017912 Ry

     total magnetization       =     0.00 Bohr mag/cell
     absolute magnetization    =    19.93 Bohr mag/cell

     iteration # 19     ecut=    71.00 Ry     beta= 0.10
     Davidson diagonalization with overlap
     ethr =  8.00E-08,  avg # of iterations =  4.6

     total cpu time spent up to now is      608.6 secs

     total energy              =   -3971.52965436 Ry
     Harris-Foulkes estimate   =   -3971.53007113 Ry
     estimated scf accuracy    <       0.00003266 Ry

     total magnetization       =    -0.00 Bohr mag/cell
     absolute magnetization    =    19.61 Bohr mag/cell

     iteration # 20     ecut=    71.00 Ry     beta= 0.10
     Davidson diagonalization with overlap
     ethr =  1.46E-08,  avg # of iterations =  5.7

     total cpu time spent up to now is      650.5 secs

     total energy              =   -3971.52973649 Ry
     Harris-Foulkes estimate   =   -3971.53004586 Ry
     estimated scf accuracy    <       0.00006776 Ry

     total magnetization       =     0.00 Bohr mag/cell
     absolute magnetization    =    20.17 Bohr mag/cell

     iteration # 21     ecut=    71.00 Ry     beta= 0.10
     Davidson diagonalization with overlap
     ethr =  1.46E-08,  avg # of iterations =  5.6

     total cpu time spent up to now is      700.2 secs

     total energy              =   -3971.53007558 Ry
     Harris-Foulkes estimate   =   -3971.53010069 Ry
     estimated scf accuracy    <       0.00000861 Ry

     total magnetization       =     0.00 Bohr mag/cell
     absolute magnetization    =    19.65 Bohr mag/cell

     iteration # 22     ecut=    71.00 Ry     beta= 0.10
     Davidson diagonalization with overlap
     ethr =  3.84E-09,  avg # of iterations =  5.2

     total cpu time spent up to now is      746.1 secs

     total energy              =   -3971.53007734 Ry
     Harris-Foulkes estimate   =   -3971.53010342 Ry
     estimated scf accuracy    <       0.00000747 Ry

     total magnetization       =     0.00 Bohr mag/cell
     absolute magnetization    =    19.78 Bohr mag/cell

     iteration # 23     ecut=    71.00 Ry     beta= 0.10
     Davidson diagonalization with overlap
     ethr =  3.33E-09,  avg # of iterations =  5.3
 
     Magnetic moment per site:
     atom:    1    charge:   12.2675    magn:    1.1434    constr:    0.0000
     atom:    2    charge:   12.2674    magn:   -1.1439    constr:    0.0000
     atom:    3    charge:   12.2673    magn:    1.1439    constr:    0.0000
     atom:    4    charge:   12.2674    magn:   -1.1439    constr:    0.0000
     atom:    5    charge:   12.2673    magn:    1.1439    constr:    0.0000
     atom:    6    charge:   12.2674    magn:   -1.1439    constr:    0.0000
     atom:    7    charge:   12.2673    magn:    1.1440    constr:    0.0000
     atom:    8    charge:   12.2674    magn:   -1.1439    constr:    0.0000
     atom:    9    charge:   12.2673    magn:    1.1439    constr:    0.0000
     atom:   10    charge:   12.2674    magn:   -1.1439    constr:    0.0000
     atom:   11    charge:   12.2673    magn:    1.1440    constr:    0.0000
     atom:   12    charge:   12.2674    magn:   -1.1439    constr:    0.0000
     atom:   13    charge:   12.2673    magn:    1.1440    constr:    0.0000
     atom:   14    charge:   12.2674    magn:   -1.1439    constr:    0.0000
     atom:   15    charge:   12.2670    magn:    1.1436    constr:    0.0000
     atom:   16    charge:   12.2674    magn:   -1.1439    constr:    0.0000

     total cpu time spent up to now is      787.2 secs

     End of self-consistent calculation

 ------ SPIN UP ------------


          k = 0.0545 0.0545 0.0545 ( 13283 PWs)   bands (ev):

   -53.9002 -53.8724 -53.8724 -53.8721 -53.8594 -53.8594 -53.8590 -53.8468
   -52.6491 -52.6491 -52.6491 -52.6450 -52.6357 -52.6357 -52.6357 -52.6228
   -25.3757 -25.3756 -25.3756 -25.3736 -25.3736 -25.3735 -25.2818 -25.2818
   -25.2818 -25.2584 -25.2557 -25.2557 -25.2019 -25.2019 -25.1985 -25.1382
   -25.1382 -25.1380 -25.1360 -25.1359 -25.1359 -25.1226 -25.1226 -25.1226
   -24.0787 -24.0787 -24.0787 -24.0533 -24.0533 -24.0503 -23.9501 -23.9501
   -23.9501 -23.9475 -23.9475 -23.9475 -23.9290 -23.9289 -23.9289 -23.9273
   -23.9273 -23.9273 -23.9156 -23.9156 -23.9155 -23.8838 -23.8798 -23.8798
    10.6945  14.1275  14.1275  14.1275  14.2201  14.2204  14.2204  14.2697
    14.2698  14.2698  14.3880  14.3880  14.7487  14.7488  14.7488  15.7885
    15.8310  15.8310  16.0895  16.0895  16.0895  16.1036  16.1036  16.1036
    16.2996  16.2996  16.2997  16.5886  16.5905  16.5905  17.1292  17.1292
    17.1292  17.4783  17.4783  17.5001  17.5001  17.5002  17.5252  17.6494
    17.6495  17.6495  18.2416  18.2416  18.2416  18.6574  18.6574  18.6574
    18.8765  18.8765  18.8765  18.9151  18.9151  18.9152  19.1590  19.1593
    19.1593  19.4198  19.4198  19.4428  19.4430  19.4430  19.5618  19.5618
    19.6353  19.6353  19.6354  19.6715  19.6715  19.6715

          k = 0.0545 0.0545 0.1634 ( 13306 PWs)   bands (ev):

   -53.8985 -53.8740 -53.8716 -53.8714 -53.8602 -53.8599 -53.8585 -53.8476
   -52.6488 -52.6483 -52.6483 -52.6452 -52.6365 -52.6365 -52.6350 -52.6236
   -25.3700 -25.3700 -25.3689 -25.3671 -25.3606 -25.3604 -25.2874 -25.2874
   -25.2773 -25.2660 -25.2637 -25.2481 -25.2074 -25.1980 -25.1940 -25.1534
   -25.1533 -25.1418 -25.1402 -25.1357 -25.1357 -25.1307 -25.1235 -25.1235
   -24.0694 -24.0694 -24.0671 -24.0485 -24.0464 -24.0408 -23.9570 -23.9570
   -23.9561 -23.9534 -23.9467 -23.9467 -23.9312 -23.9312 -23.9259 -23.9256
   -23.9256 -23.9243 -23.9236 -23.9162 -23.9161 -23.8956 -23.8826 -23.8823
    10.8242  13.6816  14.1687  14.1687  14.2210  14.2717  14.2718  14.3146
    14.3147  14.3821  14.4533  14.4577  14.7756  14.7757  15.0092  15.6881
    15.8289  15.8321  16.0032  16.0663  16.0790  16.1409  16.1409  16.1845
    16.1845  16.2848  16.2849  16.4096  16.6903  16.7007  16.9369  16.9369
    17.3185  17.3797  17.3798  17.4490  17.4671  17.4676  17.5838  17.7569
    17.8818  17.8818  17.9469  17.9469  18.2521  18.3747  18.3748  18.7171
    18.7246  18.7246  18.7558  18.7559  18.7861  18.8492  18.8825  19.2420
    19.2420  19.3774  19.3776  19.4175  19.4199  19.4394  19.4762  19.5184
    19.5958  19.6037  19.6037  19.7041  19.9040  19.9216

          k = 0.0545 0.0545 0.2723 ( 13311 PWs)   bands (ev):

   -53.8954 -53.8772 -53.8702 -53.8699 -53.8617 -53.8614 -53.8571 -53.8490
   -52.6484 -52.6468 -52.6468 -52.6456 -52.6381 -52.6381 -52.6335 -52.6251
   -25.3592 -25.3592 -25.3562 -25.3549 -25.3358 -25.3356 -25.2978 -25.2978
   -25.2797 -25.2781 -25.2687 -25.2330 -25.2168 -25.1907 -25.1872 -25.1823
   -25.1822 -25.1485 -25.1479 -25.1462 -25.1341 -25.1341 -25.1251 -25.1251
   -24.0527 -24.0527 -24.0452 -24.0369 -24.0335 -24.0245 -23.9697 -23.9697
   -23.9675 -23.9647 -23.9451 -23.9451 -23.9388 -23.9338 -23.9338 -23.9240
   -23.9239 -23.9202 -23.9186 -23.9178 -23.9173 -23.9173 -23.8880 -23.8875
    11.0789  13.0753  14.2412  14.2412  14.3459  14.3461  14.3994  14.4006
    14.4006  14.5825  14.5872  14.5995  14.7917  14.7918  15.1103  15.4941
    15.6518  15.8278  15.8441  16.0244  16.0347  16.1008  16.2537  16.2538
    16.3119  16.3120  16.3312  16.3312  16.8310  16.8310  16.8894  16.9066
    17.1732  17.1733  17.3911  17.4232  17.4275  17.4494  17.4980  17.4980
    17.6701  17.7826  17.7827  18.0510  18.1944  18.2036  18.2036  18.3014
    18.3014  18.3552  18.4012  18.8411  18.8412  19.0012  19.0191  19.2936
    19.2937  19.3087  19.4136  19.4300  19.4433  19.4620  19.4704  19.4704
    19.6305  19.6305  19.6609  19.7686  20.0834  20.1116

          k = 0.0545 0.0545 0.3813 ( 13312 PWs)   bands (ev):

   -53.8911 -53.8815 -53.8682 -53.8679 -53.8636 -53.8634 -53.8552 -53.8509
   -52.6477 -52.6462 -52.6447 -52.6447 -52.6401 -52.6401 -52.6315 -52.6270
   -25.3448 -25.3448 -25.3387 -25.3379 -25.3121 -25.3121 -25.3016 -25.3015
   -25.2980 -25.2971 -25.2567 -25.2291 -25.2201 -25.2200 -25.2128 -25.1809
   -25.1782 -25.1665 -25.1581 -25.1576 -25.1319 -25.1319 -25.1272 -25.1271
   -24.0315 -24.0314 -24.0203 -24.0166 -24.0155 -24.0041 -23.9875 -23.9875
   -23.9833 -23.9801 -23.9587 -23.9477 -23.9427 -23.9427 -23.9368 -23.9368
   -23.9222 -23.9222 -23.9188 -23.9188 -23.9125 -23.9111 -23.8953 -23.8946
    11.4497  12.4739  14.3239  14.3240  14.3953  14.3954  14.5181  14.5181
    14.6456  14.7501  14.7501  14.7554  14.7729  14.9066  15.0666  15.2297
    15.3166  15.6698  15.8733  15.8951  15.9718  15.9799  16.4202  16.4202
    16.4583  16.4584  16.5394  16.5394  16.8093  16.8093  17.0245  17.0245
    17.1431  17.1431  17.1743  17.1917  17.2317  17.2319  17.4012  17.4031
    17.4035  17.4292  17.6730  17.6730  17.7841  17.9400  17.9469  18.0674
    18.4136  18.6476  18.6476  18.9788  18.9789  19.0669  19.1727  19.1728
    19.2500  19.2882  19.2883  19.3274  19.4097  19.4157  19.4498  19.4725
    19.7514  19.8615  19.9359  19.9800  19.9843  19.9843

          k = 0.0545 0.0545-0.4902 ( 13294 PWs)   bands (ev):

   -53.8863 -53.8863 -53.8660 -53.8658 -53.8657 -53.8656 -53.8531 -53.8530
   -52.6471 -52.6468 -52.6426 -52.6426 -52.6423 -52.6423 -52.6294 -52.6291
   -25.3283 -25.3283 -25.3282 -25.3282 -25.3183 -25.3182 -25.3181 -25.3181
   -25.2617 -25.2615 -25.2613 -25.2612 -25.2433 -25.2429 -25.1899 -25.1895
   -25.1697 -25.1695 -25.1680 -25.1678 -25.1297 -25.1296 -25.1295 -25.1295
   -24.0089 -24.0089 -24.0086 -24.0086 -24.0016 -24.0014 -23.9982 -23.9979
   -23.9818 -23.9816 -23.9814 -23.9812 -23.9400 -23.9400 -23.9397 -23.9397
   -23.9206 -23.9206 -23.9204 -23.9203 -23.9040 -23.9036 -23.9029 -23.9026
    11.9216  11.9219  14.3857  14.3858  14.3859  14.3859  14.6466  14.6466
    14.6467  14.6467  14.9300  14.9302  14.9336  14.9337  15.0199  15.0200
    15.2781  15.2785  15.9181  15.9182  15.9264  15.9264  16.6253  16.6253
    16.6254  16.6254  16.7316  16.7317  16.7318  16.7319  16.8534  16.8534
    16.8535  16.8536  17.2472  17.2473  17.2474  17.2474  17.3939  17.3939
    17.4129  17.4129  17.5312  17.5313  17.5418  17.5419  17.9208  17.9209
    18.7626  18.7627  18.9538  18.9538  18.9539  18.9539  19.1220  19.1222
    19.1222  19.1223  19.4086  19.4086  19.4668  19.4671  19.5766  19.5768
    19.6838  19.6841  19.8600  19.8602  19.9766  19.9769

          k = 0.0545 0.1634 0.1634 ( 13302 PWs)   bands (ev):

   -53.8969 -53.8733 -53.8731 -53.8707 -53.8609 -53.8594 -53.8591 -53.8483
   -52.6481 -52.6481 -52.6475 -52.6453 -52.6373 -52.6358 -52.6358 -52.6244
   -25.3647 -25.3639 -25.3637 -25.3545 -25.3545 -25.3477 -25.2921 -25.2829
   -25.2829 -25.2722 -25.2624 -25.2486 -25.2119 -25.1974 -25.1888 -25.1598
   -25.1556 -25.1556 -25.1432 -25.1397 -25.1395 -25.1319 -25.1319 -25.1245
   -24.0612 -24.0595 -24.0595 -24.0460 -24.0407 -24.0290 -23.9641 -23.9623
   -23.9623 -23.9533 -23.9532 -23.9438 -23.9365 -23.9280 -23.9280 -23.9229
   -23.9229 -23.9226 -23.9226 -23.9218 -23.9167 -23.9070 -23.8853 -23.8844
    10.9520  13.7463  13.7465  14.1524  14.2635  14.2635  14.3306  14.3973
    14.4257  14.4258  14.5169  14.5275  14.8143  15.0419  15.0420  15.6241
    15.8241  15.8356  16.0055  16.0056  16.1142  16.1142  16.1538  16.1538
    16.1652  16.2558  16.2909  16.5089  16.5191  16.7538  16.7657  17.1095
    17.1096  17.3315  17.3315  17.3746  17.3853  17.4464  17.6782  17.6839
    17.9729  17.9729  18.0199  18.0472  18.0473  18.1020  18.2410  18.2410
    18.4978  18.5237  18.5239  18.7748  18.8196  18.8196  19.1519  19.1519
    19.3543  19.3837  19.3838  19.4310  19.4339  19.4466  19.4615  19.5709
    19.5750  19.6351  19.6351  19.7748  19.7748  19.8026

          k = 0.0545 0.1634 0.2723 ( 13297 PWs)   bands (ev):

   -53.8938 -53.8763 -53.8716 -53.8693 -53.8625 -53.8608 -53.8579 -53.8497
   -52.6477 -52.6467 -52.6460 -52.6457 -52.6387 -52.6373 -52.6343 -52.6258
   -25.3543 -25.3543 -25.3522 -25.3432 -25.3306 -25.3240 -25.3010 -25.2933
   -25.2842 -25.2741 -25.2728 -25.2362 -25.2215 -25.1915 -25.1840 -25.1827
   -25.1820 -25.1600 -25.1477 -25.1468 -25.1446 -25.1377 -25.1338 -25.1264
   -24.0464 -24.0456 -24.0404 -24.0373 -24.0292 -24.0120 -23.9757 -23.9733
   -23.9727 -23.9653 -23.9533 -23.9419 -23.9414 -23.9350 -23.9307 -23.9275
   -23.9221 -23.9216 -23.9208 -23.9190 -23.9177 -23.9175 -23.8902 -23.8889
    11.2031  13.1575  13.8565  14.1401  14.3385  14.4186  14.4432  14.5087
    14.5272  14.6379  14.6411  14.6614  14.8519  15.0551  15.1533  15.4805
    15.6750  15.8041  15.8488  16.0656  16.0693  16.0998  16.2157  16.2161
    16.2519  16.2550  16.2881  16.4603  16.6307  16.7078  16.8959  16.9641
    17.1226  17.2234  17.2463  17.2881  17.3224  17.4000  17.4170  17.5402
    17.6347  17.6843  17.7933  17.9852  18.0385  18.0553  18.0750  18.1645
    18.2651  18.3708  18.3875  18.8799  18.8832  18.9975  19.0962  19.2120
    19.3158  19.3328  19.4035  19.4381  19.4638  19.4825  19.4933  19.4977
    19.6141  19.6198  19.6718  19.7050  19.8936  19.9617

          k = 0.0545 0.1634 0.3813 ( 13301 PWs)   bands (ev):

   -53.8897 -53.8804 -53.8695 -53.8673 -53.8646 -53.8627 -53.8560 -53.8516
   -52.6473 -52.6461 -52.6448 -52.6440 -52.6405 -52.6393 -52.6323 -52.6278
   -25.3416 -25.3400 -25.3364 -25.3275 -25.3132 -25.3074 -25.3003 -25.2976
   -25.2919 -25.2899 -25.2621 -25.2342 -25.2196 -25.2166 -25.2161 -25.1831
   -25.1751 -25.1686 -25.1663 -25.1561 -25.1426 -25.1365 -25.1350 -25.1290
   -24.0279 -24.0277 -24.0230 -24.0146 -24.0143 -23.9922 -23.9909 -23.9888
   -23.9876 -23.9807 -23.9545 -23.9524 -23.9515 -23.9468 -23.9388 -23.9333
   -23.9206 -23.9190 -23.9185 -23.9178 -23.9143 -23.9109 -23.8973 -23.8955
    11.5678  12.5715  13.9765  14.1200  14.4236  14.4835  14.6212  14.6856
    14.6885  14.8061  14.8321  14.8452  14.9455  14.9888  15.1182  15.2503
    15.3581  15.6632  15.8835  15.9884  16.0032  16.0364  16.2654  16.3551
    16.3633  16.3960  16.4684  16.5772  16.6835  16.8066  16.9747  17.0469
    17.0512  17.0616  17.1272  17.1684  17.1808  17.2401  17.2740  17.2967
    17.3062  17.3813  17.5788  17.5956  17.6508  17.7825  17.9174  18.1019
    18.5547  18.6630  18.7062  18.9943  19.0094  19.0552  19.1207  19.1408
    19.2127  19.2871  19.3061  19.3499  19.4312  19.4480  19.4692  19.5192
    19.6754  19.7127  19.8057  19.8127  19.8697  19.9525

          k = 0.0545 0.1634-0.4902 ( 13286 PWs)   bands (ev):

   -53.8851 -53.8850 -53.8671 -53.8670 -53.8650 -53.8650 -53.8539 -53.8537
   -52.6468 -52.6465 -52.6429 -52.6425 -52.6418 -52.6415 -52.6302 -52.6299
   -25.3274 -25.3272 -25.3238 -25.3236 -25.3185 -25.3183 -25.3090 -25.3089
   -25.2593 -25.2589 -25.2550 -25.2547 -25.2484 -25.2481 -25.1926 -25.1922
   -25.1742 -25.1741 -25.1661 -25.1659 -25.1397 -25.1395 -25.1321 -25.1319
   -24.0090 -24.0087 -24.0077 -24.0074 -24.0054 -24.0053 -23.9977 -23.9974
   -23.9848 -23.9846 -23.9713 -23.9712 -23.9503 -23.9502 -23.9363 -23.9361
   -23.9197 -23.9194 -23.9180 -23.9178 -23.9058 -23.9055 -23.9033 -23.9030
    12.0311  12.0314  14.0694  14.0696  14.4837  14.4838  14.7421  14.7422
    14.8508  14.8510  14.9706  14.9707  14.9842  14.9844  15.0772  15.0774
    15.3098  15.3101  15.9381  15.9382  15.9831  15.9831  16.4906  16.4906
    16.5720  16.5722  16.5791  16.5792  16.6059  16.6061  16.8798  16.8799
    16.9753  16.9754  17.2313  17.2314  17.2456  17.2456  17.2607  17.2608
    17.2980  17.2981  17.3440  17.3441  17.4294  17.4295  18.0332  18.0332
    18.8532  18.8534  18.8852  18.8853  19.0033  19.0035  19.1422  19.1423
    19.1640  19.1641  19.3637  19.3638  19.4563  19.4566  19.4708  19.4708
    19.6109  19.6111  19.8266  19.8268  19.9303  19.9305

          k = 0.0545 0.2723 0.2723 ( 13313 PWs)   bands (ev):

   -53.8910 -53.8746 -53.8744 -53.8678 -53.8642 -53.8595 -53.8592 -53.8512
   -52.6466 -52.6466 -52.6458 -52.6445 -52.6398 -52.6358 -52.6358 -52.6273
   -25.3452 -25.3451 -25.3446 -25.3209 -25.3208 -25.3071 -25.3027 -25.2931
   -25.2845 -25.2844 -25.2693 -25.2352 -25.2310 -25.1942 -25.1891 -25.1818
   -25.1818 -25.1774 -25.1570 -25.1505 -25.1505 -25.1443 -25.1441 -25.1291
   -24.0352 -24.0320 -24.0319 -24.0318 -24.0210 -23.9951 -23.9850 -23.9804
   -23.9804 -23.9672 -23.9672 -23.9508 -23.9446 -23.9370 -23.9291 -23.9291
   -23.9246 -23.9246 -23.9180 -23.9174 -23.9174 -23.9162 -23.8944 -23.8929
    11.4463  13.3086  13.3087  14.0237  14.5207  14.5207  14.5346  14.6792
    14.7190  14.7190  14.7416  14.8045  14.9353  15.1761  15.1762  15.4217
    15.7723  15.7777  15.7778  15.8552  16.1456  16.1456  16.1967  16.2160
    16.2161  16.3099  16.4052  16.4089  16.4570  16.6514  16.9338  17.0213
    17.0214  17.1321  17.1321  17.1596  17.1691  17.2142  17.2749  17.3687
    17.4918  17.4918  17.7222  17.8080  17.8083  17.8192  17.8193  17.9317
    18.5282  18.5282  18.5822  18.9647  18.9829  18.9829  19.0934  19.3157
    19.3157  19.3232  19.3522  19.3523  19.4656  19.4672  19.4674  19.5673
    19.5673  19.5910  19.6969  19.7239  19.7585  19.7585

          k = 0.0545 0.2723 0.3813 ( 13279 PWs)   bands (ev):

   -53.8871 -53.8784 -53.8721 -53.8666 -53.8658 -53.8613 -53.8574 -53.8531
   -52.6464 -52.6459 -52.6450 -52.6425 -52.6414 -52.6378 -52.6338 -52.6293
   -25.3358 -25.3329 -25.3307 -25.3156 -25.3075 -25.3052 -25.2986 -25.2903
   -25.2777 -25.2747 -25.2724 -25.2439 -25.2205 -25.2199 -25.2105 -25.1858
   -25.1820 -25.1723 -25.1706 -25.1600 -25.1540 -25.1528 -25.1406 -25.1325
   -24.0208 -24.0208 -24.0206 -24.0127 -24.0103 -23.9961 -23.9915 -23.9909
   -23.9835 -23.9763 -23.9672 -23.9664 -23.9585 -23.9416 -23.9330 -23.9271
   -23.9231 -23.9180 -23.9174 -23.9167 -23.9160 -23.9116 -23.9004 -23.8986
    11.7984  12.7571  13.5021  13.8808  14.6076  14.6351  14.7636  14.8206
    14.8410  14.8835  14.9718  15.0001  15.0156  15.1187  15.1560  15.2688
    15.4932  15.6576  15.8903  16.0103  16.0548  16.1388  16.1467  16.2252
    16.2381  16.3606  16.3741  16.4251  16.6522  16.7486  16.7976  16.9003
    16.9553  17.0282  17.0316  17.0589  17.0846  17.1239  17.1903  17.1981
    17.2279  17.3100  17.3991  17.4565  17.5053  17.5289  17.9935  18.0457
    18.7382  18.7515  18.8436  18.9620  19.0395  19.0764  19.1298  19.1968
    19.2358  19.2763  19.3700  19.3703  19.3946  19.4017  19.4586  19.4964
    19.6018  19.6167  19.6515  19.6870  19.7428  19.7764

          k = 0.0545 0.2723-0.4902 ( 13292 PWs)   bands (ev):

   -53.8828 -53.8827 -53.8694 -53.8693 -53.8636 -53.8635 -53.8553 -53.8552
   -52.6463 -52.6460 -52.6434 -52.6430 -52.6403 -52.6400 -52.6317 -52.6314
   -25.3256 -25.3255 -25.3191 -25.3189 -25.3147 -25.3146 -25.2923 -25.2922
   -25.2584 -25.2582 -25.2553 -25.2550 -25.2429 -25.2426 -25.1970 -25.1967
   -25.1834 -25.1833 -25.1622 -25.1620 -25.1577 -25.1576 -25.1367 -25.1365
   -24.0084 -24.0082 -24.0058 -24.0057 -24.0056 -24.0054 -23.9982 -23.9979
   -23.9902 -23.9901 -23.9642 -23.9642 -23.9579 -23.9579 -23.9299 -23.9298
   -23.9185 -23.9184 -23.9179 -23.9176 -23.9083 -23.9080 -23.9053 -23.9051
    12.2430  12.2432  13.7030  13.7032  14.6604  14.6606  14.9209  14.9209
    14.9957  14.9958  15.0302  15.0303  15.0378  15.0380  15.2323  15.2325
    15.3617  15.3620  15.9622  15.9623  16.0889  16.0889  16.2923  16.2924
    16.3480  16.3482  16.4085  16.4087  16.5928  16.5928  16.8135  16.8137
    16.9346  16.9347  17.0602  17.0603  17.1606  17.1607  17.2008  17.2009
    17.2327  17.2328  17.2494  17.2494  17.2672  17.2673  18.0823  18.0823
    18.8540  18.8540  18.9892  18.9894  19.1130  19.1132  19.1906  19.1907
    19.2039  19.2040  19.2064  19.2065  19.4334  19.4337  19.4392  19.4394
    19.5406  19.5407  19.7649  19.7652  19.8166  19.8168

          k = 0.0545 0.3813 0.3813 ( 13300 PWs)   bands (ev):

   -53.8836 -53.8757 -53.8755 -53.8694 -53.8639 -53.8595 -53.8593 -53.8550
   -52.6458 -52.6452 -52.6452 -52.6425 -52.6404 -52.6359 -52.6358 -52.6313
   -25.3284 -25.3282 -25.3191 -25.3174 -25.3120 -25.2864 -25.2862 -25.2809
   -25.2808 -25.2691 -25.2572 -25.2522 -25.2295 -25.2169 -25.2033 -25.2032
   -25.1901 -25.1768 -25.1766 -25.1753 -25.1643 -25.1482 -25.1481 -25.1373
   -24.0131 -24.0123 -24.0099 -24.0099 -24.0053 -24.0014 -23.9957 -23.9956
   -23.9838 -23.9838 -23.9812 -23.9699 -23.9597 -23.9317 -23.9317 -23.9272
   -23.9193 -23.9192 -23.9179 -23.9170 -23.9134 -23.9134 -23.9045 -23.9038
    12.1295  13.0112  13.0114  13.6048  14.7910  14.8423  14.8423  14.9751
    14.9825  15.0976  15.0976  15.1069  15.1397  15.1398  15.2145  15.2273
    15.6036  15.7383  15.7384  15.9061  16.0979  16.0979  16.1271  16.2574
    16.2574  16.2581  16.3024  16.3960  16.4049  16.5124  16.7990  16.8223
    16.8224  16.8301  16.8301  16.9909  17.0546  17.1165  17.1166  17.1504
    17.1636  17.2240  17.2318  17.2904  17.2907  17.7413  17.7414  18.0798
    18.8843  18.8844  18.8985  19.0473  19.1306  19.1306  19.1681  19.1846
    19.2575  19.3381  19.3382  19.3569  19.4009  19.4010  19.4358  19.4869
    19.4976  19.4976  19.5397  19.6242  19.6803  19.6804

          k = 0.0545 0.3813-0.4902 ( 13328 PWs)   bands (ev):

   -53.8797 -53.8796 -53.8725 -53.8724 -53.8617 -53.8616 -53.8573 -53.8571
   -52.6456 -52.6453 -52.6440 -52.6437 -52.6383 -52.6380 -52.6337 -52.6334
   -25.3236 -25.3234 -25.3201 -25.3199 -25.3021 -25.3021 -25.2720 -25.2720
   -25.2718 -25.2717 -25.2524 -25.2521 -25.2277 -25.2275 -25.2004 -25.2001
   -25.1961 -25.1961 -25.1795 -25.1794 -25.1565 -25.1564 -25.1429 -25.1427
   -24.0063 -24.0062 -24.0036 -24.0032 -24.0017 -24.0016 -23.9988 -23.9986
   -23.9964 -23.9964 -23.9788 -23.9788 -23.9443 -23.9443 -23.9235 -23.9235
   -23.9226 -23.9226 -23.9156 -23.9153 -23.9113 -23.9111 -23.9090 -23.9087
    12.5424  12.5427  13.3051  13.3053  14.8692  14.8693  15.0731  15.0732
    15.0774  15.0775  15.0801  15.0802  15.1497  15.1497  15.3997  15.3999
    15.4674  15.4676  15.9745  15.9746  16.0550  16.0552  16.1102  16.1103
    16.2122  16.2123  16.2756  16.2758  16.5965  16.5967  16.6458  16.6458
    16.6779  16.6780  16.8879  16.8879  17.1221  17.1221  17.1414  17.1415
    17.1639  17.1640  17.1661  17.1662  17.4423  17.4423  17.9604  17.9604
    18.8835  18.8836  19.0655  19.0656  19.2296  19.2297  19.2579  19.2580
    19.2609  19.2610  19.2776  19.2778  19.3063  19.3064  19.3941  19.3943
    19.5914  19.5915  19.6573  19.6573  19.6635  19.6637

          k = 0.0545-0.4902-0.4902 ( 13300 PWs)   bands (ev):

   -53.8763 -53.8761 -53.8761 -53.8758 -53.8596 -53.8595 -53.8595 -53.8591
   -52.6449 -52.6448 -52.6446 -52.6444 -52.6361 -52.6360 -52.6358 -52.6356
   -25.3217 -25.3215 -25.3215 -25.3214 -25.2872 -25.2869 -25.2869 -25.2869
   -25.2563 -25.2561 -25.2560 -25.2560 -25.2115 -25.2113 -25.2112 -25.2112
   -25.1964 -25.1961 -25.1961 -25.1960 -25.1499 -25.1497 -25.1497 -25.1495
   -24.0021 -24.0021 -24.0020 -24.0020 -24.0015 -24.0014 -24.0012 -24.0011
   -23.9915 -23.9915 -23.9915 -23.9915 -23.9324 -23.9324 -23.9324 -23.9324
   -23.9157 -23.9157 -23.9157 -23.9157 -23.9129 -23.9127 -23.9125 -23.9124
    12.9066  12.9067  12.9069  12.9070  15.0293  15.0293  15.0294  15.0295
    15.1001  15.1002  15.1003  15.1003  15.3436  15.3436  15.3437  15.3438
    15.7512  15.7513  15.7514  15.7515  16.0025  16.0025  16.0026  16.0027
    16.2359  16.2360  16.2361  16.2362  16.5339  16.5340  16.5341  16.5342
    16.7463  16.7463  16.7464  16.7464  17.1141  17.1142  17.1144  17.1144
    17.1163  17.1164  17.1164  17.1165  17.7158  17.7159  17.7160  17.7160
    18.9754  18.9754  18.9755  18.9756  19.2839  19.2839  19.2839  19.2839
    19.3348  19.3349  19.3349  19.3351  19.4284  19.4284  19.4284  19.4285
    19.4704  19.4705  19.4706  19.4707  19.6377  19.6379

          k = 0.1634 0.1634 0.1634 ( 13271 PWs)   bands (ev):

   -53.8953 -53.8724 -53.8724 -53.8721 -53.8603 -53.8603 -53.8599 -53.8491
   -52.6474 -52.6473 -52.6473 -52.6455 -52.6365 -52.6365 -52.6365 -52.6252
   -25.3584 -25.3583 -25.3583 -25.3430 -25.3430 -25.3429 -25.2873 -25.2873
   -25.2872 -25.2747 -25.2562 -25.2562 -25.2079 -25.2079 -25.1820 -25.1603
   -25.1603 -25.1602 -25.1476 -25.1474 -25.1474 -25.1332 -25.1332 -25.1332
   -24.0524 -24.0524 -24.0524 -24.0392 -24.0392 -24.0189 -23.9694 -23.9694
   -23.9693 -23.9496 -23.9496 -23.9496 -23.9331 -23.9331 -23.9331 -23.9228
   -23.9228 -23.9228 -23.9194 -23.9193 -23.9193 -23.9165 -23.8874 -23.8874
    11.0783  13.8163  13.8165  13.8165  14.2547  14.2548  14.2548  14.5017
    14.5017  14.5017  14.5882  14.5882  15.0894  15.0895  15.0895  15.5794
    15.8449  15.8449  15.9907  15.9907  15.9908  16.1390  16.1391  16.1391
    16.2492  16.2492  16.2492  16.4858  16.6072  16.6072  16.9336  16.9336
    16.9336  17.2925  17.2925  17.2926  17.3665  17.3665  17.7757  17.7758
    17.7758  17.7766  17.9277  17.9277  17.9278  18.2102  18.2103  18.2103
    18.2639  18.2642  18.2642  18.8870  18.8870  18.8870  19.3294  19.3294
    19.3294  19.3543  19.3545  19.3545  19.4511  19.4511  19.5013  19.5013
    19.5979  19.5979  19.5979  19.7577  19.7577  19.7577

          k = 0.1634 0.1634 0.2723 ( 13295 PWs)   bands (ev):

   -53.8924 -53.8753 -53.8709 -53.8706 -53.8618 -53.8616 -53.8587 -53.8505
   -52.6471 -52.6460 -52.6460 -52.6457 -52.6379 -52.6379 -52.6351 -52.6266
   -25.3486 -25.3486 -25.3459 -25.3343 -25.3206 -25.3205 -25.2959 -25.2959
   -25.2831 -25.2782 -25.2702 -25.2412 -25.2208 -25.2004 -25.1831 -25.1829
   -25.1764 -25.1617 -25.1556 -25.1494 -25.1485 -25.1485 -25.1356 -25.1356
   -24.0398 -24.0398 -24.0356 -24.0328 -24.0268 -24.0038 -23.9792 -23.9791
   -23.9791 -23.9604 -23.9478 -23.9478 -23.9385 -23.9385 -23.9347 -23.9344
   -23.9270 -23.9221 -23.9221 -23.9175 -23.9174 -23.9150 -23.8931 -23.8914
    11.3260  13.2431  13.9365  13.9366  14.2478  14.2479  14.4482  14.6272
    14.6273  14.7049  14.7081  14.7202  15.1281  15.1282  15.2143  15.4771
    15.6804  15.8271  15.8689  16.0230  16.0230  16.0914  16.1764  16.2203
    16.2204  16.2461  16.3987  16.3987  16.6442  16.7706  16.7780  16.7780
    17.0695  17.1479  17.1480  17.2146  17.2821  17.3316  17.4758  17.4759
    17.5047  17.5047  17.7510  17.8553  17.8554  17.8960  17.8984  17.9027
    18.4123  18.4736  18.4736  18.9575  18.9575  19.0970  19.1936  19.2531
    19.2532  19.3656  19.3782  19.4625  19.4709  19.5053  19.5053  19.5760
    19.5939  19.5939  19.6644  19.6771  19.7088  19.8343

          k = 0.1634 0.1634 0.3813 ( 13319 PWs)   bands (ev):

   -53.8884 -53.8793 -53.8688 -53.8685 -53.8639 -53.8637 -53.8568 -53.8524
   -52.6468 -52.6460 -52.6441 -52.6441 -52.6398 -52.6398 -52.6331 -52.6286
   -25.3359 -25.3359 -25.3290 -25.3225 -25.3079 -25.3079 -25.2952 -25.2895
   -25.2893 -25.2886 -25.2656 -25.2355 -25.2201 -25.2163 -25.2162 -25.1902
   -25.1717 -25.1711 -25.1663 -25.1641 -25.1460 -25.1460 -25.1389 -25.1389
   -24.0238 -24.0238 -24.0217 -24.0126 -24.0105 -23.9925 -23.9916 -23.9916
   -23.9862 -23.9754 -23.9590 -23.9497 -23.9471 -23.9471 -23.9430 -23.9429
   -23.9203 -23.9203 -23.9189 -23.9172 -23.9171 -23.9094 -23.9009 -23.8968
    11.6855  12.6708  14.0694  14.0695  14.2289  14.2290  14.7093  14.7834
    14.7834  14.8840  14.8906  14.9944  15.0800  15.0801  15.1907  15.2772
    15.3800  15.6857  15.9105  16.0190  16.0306  16.0908  16.1885  16.1886
    16.3492  16.3492  16.5735  16.5735  16.6612  16.6612  16.8516  16.9914
    17.0239  17.0239  17.0252  17.0253  17.1608  17.1744  17.2152  17.2383
    17.2383  17.2846  17.4566  17.4566  17.5127  17.5141  18.0040  18.0145
    18.6679  18.7507  18.7507  19.0431  19.0432  19.1133  19.1284  19.1285
    19.1715  19.3538  19.3538  19.3837  19.3972  19.4164  19.4724  19.4853
    19.5915  19.6775  19.7694  19.8260  19.8261  19.9098

          k = 0.1634 0.1634-0.4902 ( 13284 PWs)   bands (ev):

   -53.8839 -53.8838 -53.8664 -53.8663 -53.8661 -53.8661 -53.8547 -53.8545
   -52.6465 -52.6462 -52.6421 -52.6421 -52.6418 -52.6418 -52.6310 -52.6307
   -25.3218 -25.3218 -25.3217 -25.3216 -25.3090 -25.3090 -25.3089 -25.3088
   -25.2535 -25.2534 -25.2532 -25.2531 -25.2510 -25.2507 -25.1958 -25.1954
   -25.1784 -25.1782 -25.1675 -25.1674 -25.1425 -25.1425 -25.1424 -25.1424
   -24.0075 -24.0073 -24.0071 -24.0071 -24.0069 -24.0068 -23.9927 -23.9924
   -23.9861 -23.9859 -23.9676 -23.9675 -23.9458 -23.9458 -23.9457 -23.9457
   -23.9183 -23.9183 -23.9182 -23.9181 -23.9099 -23.9096 -23.9030 -23.9028
    12.1412  12.1414  14.1733  14.1734  14.1735  14.1736  14.9473  14.9473
    14.9474  14.9474  15.0019  15.0020  15.0637  15.0639  15.1105  15.1107
    15.3450  15.3453  15.9670  15.9670  16.0183  16.0183  16.4557  16.4557
    16.4558  16.4559  16.5407  16.5407  16.5408  16.5409  16.9145  16.9145
    16.9146  16.9146  17.1527  17.1528  17.1764  17.1765  17.1870  17.1870
    17.1871  17.1871  17.2284  17.2284  17.2479  17.2480  18.0585  18.0586
    18.9319  18.9321  18.9760  18.9760  18.9761  18.9761  19.1754  19.1755
    19.1766  19.1766  19.1766  19.1767  19.4519  19.4522  19.5262  19.5263
    19.7232  19.7234  19.7963  19.7965  19.9011  19.9013

          k = 0.1634 0.2723 0.2723 ( 13308 PWs)   bands (ev):

   -53.8896 -53.8737 -53.8734 -53.8692 -53.8635 -53.8604 -53.8601 -53.8519
   -52.6460 -52.6459 -52.6456 -52.6446 -52.6391 -52.6365 -52.6365 -52.6281
   -25.3384 -25.3378 -25.3377 -25.3138 -25.3138 -25.3014 -25.3010 -25.2881
   -25.2864 -25.2863 -25.2667 -25.2423 -25.2268 -25.2021 -25.1915 -25.1818
   -25.1817 -25.1725 -25.1616 -25.1554 -25.1552 -25.1528 -25.1527 -25.1388
   -24.0294 -24.0271 -24.0271 -24.0258 -24.0188 -23.9909 -23.9865 -23.9855
   -23.9855 -23.9594 -23.9594 -23.9486 -23.9470 -23.9423 -23.9321 -23.9321
   -23.9311 -23.9311 -23.9232 -23.9156 -23.9144 -23.9144 -23.8976 -23.8961
    11.5670  13.4006  13.4008  14.0770  14.1372  14.4529  14.4529  14.7765
    14.8174  14.8197  14.8198  14.8560  15.2260  15.2655  15.2656  15.4426
    15.7539  15.7539  15.8358  15.8773  15.9834  16.1623  16.1623  16.2679
    16.2781  16.2945  16.2945  16.4610  16.5636  16.6098  16.7749  16.8982
    16.8983  17.0538  17.0761  17.0762  17.1313  17.1851  17.2638  17.3194
    17.3408  17.3408  17.5419  17.5712  17.5714  17.6325  17.6326  18.0051
    18.6368  18.6369  18.6672  19.0536  19.1132  19.1132  19.1626  19.3199
    19.3200  19.3679  19.4063  19.4458  19.4458  19.4800  19.4808  19.4928
    19.5453  19.5608  19.5608  19.7202  19.7589  19.7589

          k = 0.1634 0.2723 0.3813 ( 13296 PWs)   bands (ev):

   -53.8859 -53.8773 -53.8712 -53.8671 -53.8658 -53.8624 -53.8583 -53.8539
   -52.6460 -52.6456 -52.6443 -52.6427 -52.6407 -52.6383 -52.6345 -52.6300
   -25.3284 -25.3253 -25.3237 -25.3091 -25.3041 -25.2977 -25.2969 -25.2846
   -25.2771 -25.2741 -25.2729 -25.2409 -25.2254 -25.2170 -25.2106 -25.1953
   -25.1822 -25.1755 -25.1700 -25.1642 -25.1628 -25.1569 -25.1519 -25.1430
   -24.0166 -24.0164 -24.0162 -24.0093 -24.0059 -23.9952 -23.9947 -23.9932
   -23.9752 -23.9743 -23.9675 -23.9605 -23.9545 -23.9437 -23.9393 -23.9359
   -23.9256 -23.9235 -23.9220 -23.9167 -23.9158 -23.9104 -23.9049 -23.9011
    11.9152  12.8599  13.6029  13.9952  14.2378  14.4360  14.7314  14.9384
    14.9644  14.9691  15.0428  15.0893  15.2188  15.2380  15.2533  15.3028
    15.4931  15.7022  15.9232  15.9726  16.0667  16.0853  16.1124  16.1792
    16.2601  16.3844  16.4160  16.4953  16.5737  16.6793  16.7224  16.8245
    16.8967  16.9054  16.9283  16.9705  16.9925  17.0711  17.0878  17.1151
    17.1539  17.1979  17.2509  17.2725  17.2970  17.3450  17.7949  18.0460
    18.8443  18.8604  18.9063  19.0712  19.1223  19.1367  19.1851  19.2439
    19.2465  19.2523  19.3809  19.3809  19.3884  19.3966  19.4754  19.5307
    19.6215  19.6443  19.6994  19.7232  19.7953  19.8003

          k = 0.1634 0.2723-0.4902 ( 13288 PWs)   bands (ev):

   -53.8816 -53.8816 -53.8686 -53.8685 -53.8648 -53.8647 -53.8561 -53.8560
   -52.6460 -52.6456 -52.6427 -52.6423 -52.6407 -52.6403 -52.6324 -52.6321
   -25.3185 -25.3184 -25.3113 -25.3112 -25.3092 -25.3090 -25.2916 -25.2915
   -25.2573 -25.2570 -25.2508 -25.2505 -25.2429 -25.2426 -25.2011 -25.2007
   -25.1871 -25.1870 -25.1678 -25.1677 -25.1613 -25.1611 -25.1477 -25.1476
   -24.0055 -24.0054 -24.0053 -24.0051 -24.0038 -24.0036 -23.9906 -23.9903
   -23.9887 -23.9886 -23.9592 -23.9592 -23.9589 -23.9588 -23.9381 -23.9381
   -23.9202 -23.9201 -23.9189 -23.9187 -23.9142 -23.9139 -23.9059 -23.9057
    12.3540  12.3542  13.8124  13.8126  14.3677  14.3679  15.0392  15.0393
    15.0950  15.0951  15.1266  15.1267  15.1287  15.1288  15.2566  15.2568
    15.4079  15.4082  15.9982  15.9982  16.0958  16.0958  16.2700  16.2701
    16.3009  16.3011  16.4294  16.4295  16.5501  16.5502  16.7866  16.7867
    16.8289  16.8290  16.9985  16.9986  17.0175  17.0176  17.0786  17.0786
    17.1096  17.1097  17.1108  17.1109  17.1282  17.1282  17.9614  17.9614
    18.9940  18.9941  19.0537  19.0538  19.1309  19.1310  19.1538  19.1538
    19.2254  19.2254  19.2258  19.2258  19.4429  19.4432  19.5874  19.5875
    19.6638  19.6640  19.7424  19.7426  19.8226  19.8228

          k = 0.1634 0.3813 0.3813 ( 13293 PWs)   bands (ev):

   -53.8824 -53.8748 -53.8745 -53.8685 -53.8651 -53.8605 -53.8602 -53.8559
   -52.6454 -52.6446 -52.6446 -52.6419 -52.6408 -52.6364 -52.6364 -52.6320
   -25.3191 -25.3190 -25.3118 -25.3113 -25.3024 -25.2839 -25.2837 -25.2777
   -25.2776 -25.2673 -25.2532 -25.2524 -25.2254 -25.2235 -25.2044 -25.2042
   -25.1972 -25.1806 -25.1805 -25.1805 -25.1687 -25.1592 -25.1590 -25.1484
   -24.0077 -24.0075 -24.0056 -24.0056 -24.0008 -23.9987 -23.9957 -23.9956
   -23.9793 -23.9759 -23.9759 -23.9656 -23.9614 -23.9349 -23.9349 -23.9321
   -23.9268 -23.9268 -23.9226 -23.9198 -23.9139 -23.9139 -23.9091 -23.9076
    12.2446  13.1188  13.1189  13.7202  14.4421  14.7159  14.7159  15.0676
    15.0738  15.2195  15.2196  15.2399  15.2400  15.2405  15.2522  15.3758
    15.6559  15.7375  15.7376  15.9356  15.9956  16.1331  16.1331  16.2643
    16.2774  16.2774  16.3191  16.3682  16.3826  16.4947  16.7401  16.7401
    16.7410  16.7764  16.7764  16.8925  16.9552  16.9713  16.9977  16.9977
    17.0657  17.0847  17.1026  17.1028  17.1173  17.5127  17.5127  17.9424
    19.0212  19.0212  19.0530  19.1038  19.1510  19.2353  19.2536  19.2536
    19.2879  19.3526  19.3528  19.3755  19.4641  19.5091  19.5091  19.5447
    19.5447  19.5759  19.6013  19.7266  19.7267  19.7268

          k = 0.1634 0.3813-0.4902 ( 13318 PWs)   bands (ev):

   -53.8786 -53.8785 -53.8716 -53.8715 -53.8628 -53.8627 -53.8582 -53.8581
   -52.6452 -52.6449 -52.6434 -52.6431 -52.6387 -52.6384 -52.6344 -52.6340
   -25.3149 -25.3147 -25.3100 -25.3099 -25.2973 -25.2973 -25.2701 -25.2700
   -25.2679 -25.2677 -25.2487 -25.2485 -25.2292 -25.2290 -25.2056 -25.2053
   -25.1995 -25.1995 -25.1842 -25.1842 -25.1654 -25.1653 -25.1542 -25.1540
   -24.0022 -24.0021 -23.9999 -23.9997 -23.9997 -23.9995 -23.9927 -23.9926
   -23.9912 -23.9910 -23.9738 -23.9737 -23.9474 -23.9473 -23.9288 -23.9288
   -23.9263 -23.9263 -23.9192 -23.9190 -23.9174 -23.9172 -23.9115 -23.9113
    12.6546  12.6548  13.4175  13.4177  14.6197  14.6199  15.0166  15.0168
    15.1727  15.1728  15.1771  15.1772  15.3498  15.3498  15.4838  15.4839
    15.4920  15.4922  16.0046  16.0047  16.0535  16.0538  16.0867  16.0868
    16.2086  16.2087  16.3145  16.3146  16.5064  16.5065  16.6091  16.6092
    16.6139  16.6140  16.8495  16.8496  16.9717  16.9718  16.9895  16.9896
    17.0255  17.0256  17.0449  17.0449  17.2323  17.2323  17.7306  17.7306
    19.0748  19.0748  19.1707  19.1709  19.2897  19.2898  19.2970  19.2971
    19.3038  19.3038  19.3168  19.3169  19.4233  19.4235  19.5137  19.5138
    19.6272  19.6273  19.6808  19.6810  19.6908  19.6910

          k = 0.1634-0.4902-0.4902 ( 13336 PWs)   bands (ev):

   -53.8753 -53.8751 -53.8751 -53.8748 -53.8607 -53.8605 -53.8605 -53.8601
   -52.6444 -52.6442 -52.6440 -52.6439 -52.6366 -52.6365 -52.6363 -52.6362
   -25.3120 -25.3118 -25.3118 -25.3117 -25.2822 -25.2820 -25.2819 -25.2819
   -25.2532 -25.2529 -25.2529 -25.2529 -25.2142 -25.2140 -25.2139 -25.2139
   -25.2022 -25.2020 -25.2019 -25.2019 -25.1607 -25.1605 -25.1605 -25.1603
   -23.9976 -23.9976 -23.9976 -23.9976 -23.9968 -23.9967 -23.9965 -23.9964
   -23.9866 -23.9866 -23.9866 -23.9866 -23.9359 -23.9359 -23.9358 -23.9358
   -23.9201 -23.9201 -23.9201 -23.9201 -23.9184 -23.9182 -23.9180 -23.9179
    13.0196  13.0197  13.0198  13.0199  14.8659  14.8660  14.8661  14.8661
    15.1967  15.1968  15.1969  15.1969  15.5048  15.5049  15.5049  15.5050
    15.7694  15.7695  15.7696  15.7697  15.9960  15.9960  15.9961  15.9961
    16.2570  16.2570  16.2571  16.2572  16.4497  16.4498  16.4498  16.4499
    16.7099  16.7100  16.7100  16.7100  16.9633  16.9633  16.9635  16.9636
    16.9918  16.9918  16.9918  16.9919  17.4651  17.4651  17.4651  17.4652
    19.1881  19.1881  19.1882  19.1882  19.3371  19.3372  19.3372  19.3373
    19.3779  19.3780  19.3780  19.3782  19.5067  19.5068  19.5070  19.5070
    19.5820  19.5821  19.5821  19.5821  19.6640  19.6642

          k = 0.2723 0.2723 0.2723 ( 13283 PWs)   bands (ev):

   -53.8870 -53.8720 -53.8720 -53.8716 -53.8621 -53.8621 -53.8617 -53.8534
   -52.6456 -52.6447 -52.6447 -52.6447 -52.6377 -52.6377 -52.6377 -52.6295
   -25.3267 -25.3266 -25.3266 -25.2978 -25.2978 -25.2978 -25.2904 -25.2904
   -25.2903 -25.2848 -25.2554 -25.2554 -25.2187 -25.2187 -25.1867 -25.1867
   -25.1867 -25.1706 -25.1703 -25.1702 -25.1702 -25.1568 -25.1568 -25.1568
   -24.0186 -24.0186 -24.0186 -24.0142 -24.0142 -23.9898 -23.9898 -23.9898
   -23.9829 -23.9573 -23.9523 -23.9523 -23.9523 -23.9401 -23.9401 -23.9401
   -23.9329 -23.9328 -23.9328 -23.9145 -23.9145 -23.9145 -23.9024 -23.9024
    11.8028  13.5711  13.5713  13.5713  14.3557  14.3558  14.3558  14.9573
    14.9573  14.9617  14.9617  14.9617  15.3962  15.3964  15.3964  15.4512
    15.7447  15.7447  15.7448  15.9213  15.9213  16.0457  16.2196  16.2196
    16.2196  16.4163  16.4163  16.4163  16.5570  16.5570  16.7456  16.7457
    16.7457  16.9574  16.9574  16.9575  17.0565  17.0565  17.0567  17.1302
    17.1302  17.2552  17.2554  17.2554  17.3778  17.3779  17.3779  18.0323
    18.8145  18.8145  18.8145  19.1870  19.2281  19.2281  19.2281  19.2754
    19.2755  19.2755  19.4560  19.4560  19.5139  19.5139  19.5334  19.5335
    19.5335  19.6525  19.6525  19.6525  19.7499  19.7499

          k = 0.2723 0.2723 0.3813 ( 13280 PWs)   bands (ev):

   -53.8835 -53.8754 -53.8697 -53.8694 -53.8644 -53.8642 -53.8600 -53.8554
   -52.6454 -52.6448 -52.6431 -52.6431 -52.6393 -52.6393 -52.6358 -52.6314
   -25.3155 -25.3155 -25.3106 -25.2967 -25.2967 -25.2939 -25.2860 -25.2750
   -25.2730 -25.2729 -25.2726 -25.2373 -25.2342 -25.2112 -25.2111 -25.2076
   -25.1819 -25.1811 -25.1809 -25.1720 -25.1715 -25.1715 -25.1621 -25.1621
   -24.0086 -24.0086 -24.0080 -24.0036 -23.9990 -23.9949 -23.9940 -23.9940
   -23.9718 -23.9705 -23.9661 -23.9504 -23.9504 -23.9469 -23.9469 -23.9454
   -23.9310 -23.9297 -23.9297 -23.9176 -23.9176 -23.9127 -23.9110 -23.9068
    12.1426  13.0558  13.7919  13.7920  14.2153  14.2154  14.6603  15.1043
    15.1232  15.1232  15.1358  15.2148  15.3264  15.4049  15.4049  15.4179
    15.5085  15.7557  15.8991  15.8991  15.9847  16.0316  16.1438  16.2489
    16.3086  16.3086  16.4828  16.5144  16.5145  16.6022  16.6022  16.6824
    16.7395  16.7395  16.8420  16.8420  16.8620  16.9137  16.9406  16.9493
    17.0130  17.0220  17.0220  17.0549  17.1281  17.1281  17.5030  17.9173
    18.9911  19.0216  19.0216  19.1526  19.2410  19.2410  19.2631  19.2631
    19.3278  19.3854  19.4282  19.4282  19.4801  19.4824  19.5061  19.5670
    19.5702  19.6428  19.7033  19.7728  19.7729  19.7927

          k = 0.2723 0.2723-0.4902 ( 13292 PWs)   bands (ev):

   -53.8795 -53.8794 -53.8671 -53.8670 -53.8668 -53.8668 -53.8578 -53.8576
   -52.6453 -52.6449 -52.6413 -52.6413 -52.6410 -52.6410 -52.6338 -52.6334
   -25.3054 -25.3054 -25.3053 -25.3053 -25.2920 -25.2918 -25.2896 -25.2895
   -25.2569 -25.2566 -25.2427 -25.2425 -25.2424 -25.2423 -25.2081 -25.2077
   -25.1949 -25.1947 -25.1758 -25.1757 -25.1676 -25.1676 -25.1674 -25.1674
   -24.0012 -24.0011 -23.9999 -23.9999 -23.9997 -23.9997 -23.9869 -23.9868
   -23.9826 -23.9823 -23.9590 -23.9589 -23.9504 -23.9504 -23.9504 -23.9503
   -23.9233 -23.9233 -23.9232 -23.9232 -23.9211 -23.9208 -23.9104 -23.9102
    12.5685  12.5688  14.0208  14.0209  14.0209  14.0210  15.0130  15.0132
    15.2833  15.2833  15.2834  15.2834  15.2909  15.2911  15.3100  15.3103
    15.4988  15.4990  16.0618  16.0618  16.1049  16.1050  16.2016  16.2017
    16.2018  16.2019  16.4741  16.4741  16.4742  16.4742  16.6566  16.6568
    16.7726  16.7727  16.7727  16.7727  16.8194  16.8194  16.9353  16.9353
    16.9573  16.9573  16.9573  16.9574  16.9645  16.9646  17.7037  17.7037
    19.1685  19.1687  19.1993  19.1993  19.1994  19.1995  19.2819  19.2820
    19.2876  19.2877  19.2877  19.2878  19.4628  19.4631  19.6358  19.6359
    19.7005  19.7007  19.7918  19.7920  19.7981  19.7983

          k = 0.2723 0.3813 0.3813 ( 13301 PWs)   bands (ev):

   -53.8802 -53.8729 -53.8727 -53.8673 -53.8669 -53.8623 -53.8621 -53.8575
   -52.6448 -52.6436 -52.6436 -52.6414 -52.6406 -52.6375 -52.6375 -52.6333
   -25.3029 -25.3028 -25.3010 -25.2967 -25.2847 -25.2799 -25.2798 -25.2710
   -25.2709 -25.2635 -25.2550 -25.2435 -25.2356 -25.2180 -25.2115 -25.2058
   -25.2057 -25.1902 -25.1874 -25.1874 -25.1793 -25.1792 -25.1764 -25.1685
   -23.9996 -23.9980 -23.9980 -23.9972 -23.9938 -23.9929 -23.9929 -23.9924
   -23.9767 -23.9648 -23.9647 -23.9644 -23.9578 -23.9412 -23.9407 -23.9406
   -23.9372 -23.9372 -23.9326 -23.9231 -23.9184 -23.9184 -23.9169 -23.9147
    12.4681  13.3243  13.3244  13.9429  14.0412  14.5219  14.5220  15.1953
    15.2259  15.2621  15.3253  15.3718  15.3719  15.4324  15.4325  15.5971
    15.7296  15.7297  15.7514  15.8509  15.9920  16.1092  16.2001  16.2001
    16.3233  16.3233  16.3306  16.3483  16.4707  16.4773  16.6092  16.6093
    16.6318  16.6777  16.6951  16.6952  16.7006  16.8147  16.8149  16.8184
    16.8184  16.8593  16.8884  16.9332  16.9538  17.2009  17.2010  17.6633
    19.1596  19.1597  19.1963  19.2783  19.2913  19.3717  19.3770  19.3937
    19.3938  19.4268  19.4592  19.4593  19.5204  19.5386  19.5387  19.5555
    19.6056  19.7204  19.7233  19.7234  19.7357  19.7358

          k = 0.2723 0.3813-0.4902 ( 13278 PWs)   bands (ev):

   -53.8766 -53.8765 -53.8699 -53.8698 -53.8648 -53.8647 -53.8599 -53.8598
   -52.6444 -52.6440 -52.6423 -52.6419 -52.6396 -52.6392 -52.6355 -52.6352
   -25.2987 -25.2986 -25.2911 -25.2909 -25.2885 -25.2885 -25.2670 -25.2668
   -25.2609 -25.2607 -25.2423 -25.2420 -25.2317 -25.2315 -25.2148 -25.2144
   -25.2065 -25.2064 -25.1925 -25.1924 -25.1810 -25.1809 -25.1747 -25.1745
   -23.9946 -23.9945 -23.9933 -23.9930 -23.9929 -23.9927 -23.9866 -23.9866
   -23.9800 -23.9798 -23.9646 -23.9645 -23.9531 -23.9530 -23.9394 -23.9394
   -23.9315 -23.9314 -23.9266 -23.9265 -23.9264 -23.9262 -23.9181 -23.9180
    12.8712  12.8715  13.6335  13.6337  14.3037  14.3039  14.8766  14.8768
    15.3470  15.3472  15.3685  15.3687  15.5330  15.5331  15.5385  15.5387
    15.6277  15.6278  16.0450  16.0452  16.0600  16.0602  16.0645  16.0646
    16.1924  16.1924  16.3790  16.3792  16.4174  16.4176  16.5436  16.5436
    16.5459  16.5459  16.6964  16.6965  16.7784  16.7785  16.7800  16.7800
    16.8121  16.8123  16.8680  16.8680  16.9376  16.9376  17.3951  17.3951
    19.2883  19.2885  19.3091  19.3093  19.3664  19.3666  19.3793  19.3794
    19.4185  19.4186  19.4804  19.4806  19.5171  19.5172  19.6546  19.6548
    19.6618  19.6618  19.7252  19.7254  19.7263  19.7265

          k = 0.2723-0.4902-0.4902 ( 13284 PWs)   bands (ev):

   -53.8734 -53.8732 -53.8732 -53.8729 -53.8625 -53.8624 -53.8623 -53.8620
   -52.6434 -52.6432 -52.6430 -52.6429 -52.6376 -52.6375 -52.6373 -52.6372
   -25.2936 -25.2934 -25.2934 -25.2933 -25.2723 -25.2721 -25.2720 -25.2720
   -25.2471 -25.2469 -25.2468 -25.2468 -25.2195 -25.2193 -25.2192 -25.2192
   -25.2130 -25.2128 -25.2127 -25.2127 -25.1803 -25.1801 -25.1801 -25.1800
   -23.9895 -23.9895 -23.9894 -23.9894 -23.9877 -23.9876 -23.9874 -23.9873
   -23.9775 -23.9775 -23.9775 -23.9775 -23.9422 -23.9422 -23.9422 -23.9422
   -23.9283 -23.9282 -23.9282 -23.9282 -23.9282 -23.9282 -23.9280 -23.9279
    13.2374  13.2375  13.2377  13.2378  14.6148  14.6149  14.6150  14.6151
    15.3810  15.3810  15.3811  15.3812  15.7211  15.7211  15.7212  15.7212
    15.8034  15.8035  15.8036  15.8037  15.9769  15.9769  15.9770  15.9771
    16.3032  16.3032  16.3033  16.3034  16.3560  16.3561  16.3561  16.3562
    16.6431  16.6432  16.6432  16.6432  16.7160  16.7161  16.7162  16.7163
    16.8007  16.8007  16.8007  16.8008  17.1165  17.1166  17.1166  17.1166
    19.3580  19.3580  19.3582  19.3582  19.4520  19.4520  19.4521  19.4522
    19.5350  19.5350  19.5351  19.5352  19.5887  19.5888  19.5889  19.5890
    19.6477  19.6478  19.6479  19.6480  19.7074  19.7075

          k = 0.3813 0.3813 0.3813 ( 13271 PWs)   bands (ev):

   -53.8772 -53.8705 -53.8705 -53.8701 -53.8648 -53.8648 -53.8644 -53.8597
   -52.6440 -52.6422 -52.6421 -52.6421 -52.6389 -52.6389 -52.6389 -52.6350
   -25.2862 -25.2861 -25.2861 -25.2769 -25.2769 -25.2767 -25.2681 -25.2578
   -25.2578 -25.2578 -25.2514 -25.2514 -25.2313 -25.2313 -25.2081 -25.2081
   -25.2081 -25.2030 -25.2029 -25.2029 -25.1953 -25.1953 -25.1952 -25.1861
   -23.9895 -23.9895 -23.9894 -23.9878 -23.9878 -23.9878 -23.9836 -23.9836
   -23.9761 -23.9663 -23.9537 -23.9537 -23.9537 -23.9473 -23.9473 -23.9473
   -23.9456 -23.9456 -23.9456 -23.9266 -23.9266 -23.9265 -23.9243 -23.9243
    12.7861  13.6072  13.6074  13.6074  14.2544  14.2546  14.2546  14.9740
    15.4294  15.4294  15.5199  15.5200  15.5200  15.7003  15.7005  15.7005
    15.7016  15.7016  15.7017  15.8729  16.0697  16.0697  16.2519  16.2519
    16.2519  16.3831  16.3831  16.4128  16.4128  16.4128  16.4457  16.4457
    16.4458  16.5866  16.5867  16.5867  16.6110  16.6112  16.6112  16.6520
    16.6520  16.6521  16.7988  16.7988  16.8939  16.8939  16.8939  17.3345
    19.3001  19.3001  19.3001  19.4592  19.4593  19.4593  19.4874  19.4874
    19.5367  19.5544  19.5544  19.5544  19.5952  19.5952  19.5952  19.5953
    19.5953  19.7024  19.7024  19.7024  19.7259  19.7260

          k = 0.3813 0.3813-0.4902 ( 13286 PWs)   bands (ev):

   -53.8738 -53.8737 -53.8677 -53.8676 -53.8674 -53.8674 -53.8622 -53.8621
   -52.6432 -52.6429 -52.6407 -52.6407 -52.6404 -52.6404 -52.6371 -52.6368
   -25.2779 -25.2778 -25.2778 -25.2777 -25.2690 -25.2689 -25.2617 -25.2615
   -25.2543 -25.2540 -25.2345 -25.2344 -25.2342 -25.2341 -25.2249 -25.2246
   -25.2174 -25.2172 -25.2017 -25.2017 -25.2016 -25.2016 -25.1972 -25.1971
   -23.9851 -23.9851 -23.9849 -23.9849 -23.9828 -23.9825 -23.9806 -23.9805
   -23.9686 -23.9683 -23.9591 -23.9589 -23.9528 -23.9528 -23.9527 -23.9527
   -23.9374 -23.9374 -23.9372 -23.9372 -23.9359 -23.9356 -23.9280 -23.9279
    13.1761  13.1763  13.9333  13.9335  13.9336  13.9337  14.6206  14.6208
    15.5577  15.5579  15.6213  15.6215  15.6343  15.6343  15.6344  15.6345
    15.7987  15.7989  16.0160  16.0161  16.0162  16.0163  16.1601  16.1602
    16.1617  16.1618  16.4019  16.4020  16.4168  16.4169  16.4604  16.4604
    16.4605  16.4606  16.5454  16.5454  16.5454  16.5455  16.6549  16.6550
    16.6550  16.6550  16.6895  16.6896  16.6955  16.6955  17.0470  17.0470
    19.4002  19.4003  19.4315  19.4315  19.4316  19.4317  19.5428  19.5430
    19.5838  19.5838  19.5839  19.5839  19.6157  19.6159  19.6624  19.6624
    19.7049  19.7049  19.7051  19.7051  19.7630  19.7632

          k = 0.3813-0.4902-0.4902 ( 13320 PWs)   bands (ev):

   -53.8709 -53.8707 -53.8707 -53.8704 -53.8651 -53.8649 -53.8649 -53.8645
   -52.6420 -52.6419 -52.6417 -52.6416 -52.6390 -52.6388 -52.6386 -52.6385
   -25.2692 -25.2690 -25.2690 -25.2689 -25.2589 -25.2587 -25.2586 -25.2586
   -25.2390 -25.2388 -25.2387 -25.2387 -25.2276 -25.2274 -25.2274 -25.2274
   -25.2273 -25.2271 -25.2270 -25.2270 -25.2056 -25.2055 -25.2055 -25.2054
   -23.9793 -23.9793 -23.9793 -23.9793 -23.9767 -23.9766 -23.9764 -23.9763
   -23.9656 -23.9656 -23.9656 -23.9656 -23.9503 -23.9503 -23.9503 -23.9503
   -23.9413 -23.9411 -23.9409 -23.9408 -23.9394 -23.9394 -23.9393 -23.9393
    13.5427  13.5428  13.5430  13.5431  14.2817  14.2818  14.2820  14.2821
    15.6320  15.6320  15.6321  15.6322  15.8484  15.8484  15.8485  15.8486
    15.9396  15.9397  15.9397  15.9398  15.9427  15.9428  15.9429  15.9429
    16.3211  16.3212  16.3212  16.3213  16.3742  16.3742  16.3742  16.3743
    16.4731  16.4731  16.4733  16.4733  16.5564  16.5564  16.5564  16.5565
    16.6063  16.6063  16.6063  16.6064  16.7559  16.7559  16.7559  16.7559
    19.4677  19.4678  19.4679  19.4680  19.5241  19.5241  19.5243  19.5244
    19.6202  19.6202  19.6204  19.6205  19.6712  19.6713  19.6714  19.6714
    19.7429  19.7429  19.7430  19.7431  19.7836  19.7836

          k =-0.4902-0.4902-0.4902 ( 13264 PWs)   bands (ev):

   -53.8681 -53.8679 -53.8679 -53.8678 -53.8678 -53.8677 -53.8676 -53.8671
   -52.6406 -52.6404 -52.6404 -52.6403 -52.6402 -52.6401 -52.6401 -52.6400
   -25.2433 -25.2433 -25.2432 -25.2432 -25.2432 -25.2431 -25.2430 -25.2430
   -25.2430 -25.2429 -25.2429 -25.2429 -25.2429 -25.2428 -25.2428 -25.2428
   -25.2276 -25.2274 -25.2274 -25.2273 -25.2273 -25.2273 -25.2273 -25.2273
   -23.9712 -23.9712 -23.9712 -23.9711 -23.9711 -23.9710 -23.9710 -23.9710
   -23.9524 -23.9524 -23.9524 -23.9523 -23.9523 -23.9523 -23.9523 -23.9522
   -23.9522 -23.9521 -23.9521 -23.9521 -23.9521 -23.9520 -23.9520 -23.9520
    13.9058  13.9058  13.9060  13.9060  13.9060  13.9062  13.9062  13.9063
    15.8973  15.8974  15.8974  15.8974  15.8974  15.8975  15.8975  15.8975
    15.8975  15.8975  15.8976  15.8976  15.8976  15.8977  15.8977  15.8977
    16.4390  16.4390  16.4390  16.4390  16.4390  16.4390  16.4390  16.4390
    16.4623  16.4623  16.4624  16.4624  16.4624  16.4624  16.4624  16.4624
    16.4625  16.4625  16.4625  16.4625  16.4625  16.4625  16.4625  16.4626
    19.5794  19.5795  19.5795  19.5795  19.5795  19.5796  19.5796  19.5796
    19.5796  19.5797  19.5797  19.5797  19.5798  19.5798  19.5798  19.5798
    19.9721  19.9721  19.9721  19.9722  19.9722  19.9722

 ------ SPIN DOWN ----------


          k = 0.0545 0.0545 0.0545 ( 13283 PWs)   bands (ev):

   -53.9002 -53.8723 -53.8723 -53.8723 -53.8593 -53.8592 -53.8592 -53.8468
   -52.6492 -52.6491 -52.6491 -52.6450 -52.6359 -52.6358 -52.6358 -52.6229
   -25.3757 -25.3757 -25.3756 -25.3737 -25.3736 -25.3736 -25.2819 -25.2818
   -25.2818 -25.2584 -25.2557 -25.2557 -25.2019 -25.2019 -25.1985 -25.1382
   -25.1381 -25.1381 -25.1360 -25.1360 -25.1359 -25.1227 -25.1226 -25.1226
   -24.0788 -24.0788 -24.0788 -24.0533 -24.0533 -24.0504 -23.9503 -23.9502
   -23.9502 -23.9476 -23.9476 -23.9475 -23.9290 -23.9290 -23.9289 -23.9274
   -23.9273 -23.9273 -23.9156 -23.9156 -23.9156 -23.8838 -23.8799 -23.8799
    10.6946  14.1274  14.1275  14.1275  14.2202  14.2203  14.2203  14.2698
    14.2698  14.2698  14.3880  14.3880  14.7486  14.7489  14.7489  15.7885
    15.8310  15.8310  16.0894  16.0894  16.0895  16.1035  16.1036  16.1036
    16.2996  16.2996  16.2996  16.5886  16.5905  16.5905  17.1292  17.1292
    17.1293  17.4783  17.4783  17.5001  17.5002  17.5002  17.5251  17.6494
    17.6494  17.6495  18.2415  18.2416  18.2416  18.6573  18.6573  18.6574
    18.8764  18.8765  18.8765  18.9151  18.9151  18.9153  19.1591  19.1593
    19.1593  19.4198  19.4198  19.4428  19.4429  19.4429  19.5618  19.5618
    19.6353  19.6353  19.6355  19.6715  19.6715  19.6715

          k = 0.0545 0.0545 0.1634 ( 13306 PWs)   bands (ev):

   -53.8985 -53.8740 -53.8715 -53.8715 -53.8600 -53.8600 -53.8585 -53.8476
   -52.6489 -52.6484 -52.6483 -52.6453 -52.6366 -52.6366 -52.6350 -52.6237
   -25.3700 -25.3699 -25.3689 -25.3672 -25.3605 -25.3605 -25.2874 -25.2873
   -25.2773 -25.2660 -25.2637 -25.2481 -25.2075 -25.1980 -25.1940 -25.1533
   -25.1533 -25.1418 -25.1402 -25.1357 -25.1357 -25.1308 -25.1235 -25.1234
   -24.0695 -24.0695 -24.0672 -24.0486 -24.0465 -24.0408 -23.9571 -23.9570
   -23.9562 -23.9535 -23.9468 -23.9467 -23.9313 -23.9312 -23.9260 -23.9257
   -23.9256 -23.9244 -23.9236 -23.9162 -23.9162 -23.8957 -23.8827 -23.8824
    10.8242  13.6817  14.1686  14.1687  14.2210  14.2717  14.2718  14.3147
    14.3147  14.3821  14.4533  14.4578  14.7756  14.7758  15.0092  15.6881
    15.8289  15.8321  16.0032  16.0663  16.0789  16.1409  16.1409  16.1844
    16.1845  16.2849  16.2849  16.4096  16.6903  16.7007  16.9368  16.9370
    17.3185  17.3797  17.3797  17.4489  17.4671  17.4676  17.5838  17.7569
    17.8817  17.8818  17.9469  17.9470  18.2521  18.3748  18.3748  18.7171
    18.7246  18.7246  18.7557  18.7561  18.7860  18.8492  18.8825  19.2419
    19.2420  19.3775  19.3775  19.4175  19.4199  19.4394  19.4762  19.5184
    19.5958  19.6037  19.6037  19.7041  19.9040  19.9216

          k = 0.0545 0.0545 0.2723 ( 13311 PWs)   bands (ev):

   -53.8954 -53.8772 -53.8700 -53.8700 -53.8615 -53.8615 -53.8571 -53.8490
   -52.6484 -52.6469 -52.6468 -52.6457 -52.6382 -52.6381 -52.6336 -52.6251
   -25.3593 -25.3592 -25.3562 -25.3549 -25.3357 -25.3357 -25.2979 -25.2978
   -25.2797 -25.2782 -25.2687 -25.2330 -25.2168 -25.1908 -25.1873 -25.1823
   -25.1823 -25.1485 -25.1479 -25.1462 -25.1342 -25.1341 -25.1251 -25.1250
   -24.0527 -24.0527 -24.0453 -24.0369 -24.0336 -24.0245 -23.9698 -23.9698
   -23.9675 -23.9647 -23.9452 -23.9451 -23.9388 -23.9339 -23.9338 -23.9240
   -23.9240 -23.9202 -23.9187 -23.9179 -23.9173 -23.9173 -23.8880 -23.8875
    11.0790  13.0753  14.2411  14.2412  14.3460  14.3461  14.3994  14.4006
    14.4006  14.5825  14.5872  14.5995  14.7917  14.7919  15.1103  15.4941
    15.6518  15.8278  15.8440  16.0244  16.0347  16.1008  16.2537  16.2537
    16.3119  16.3120  16.3312  16.3312  16.8309  16.8311  16.8894  16.9066
    17.1732  17.1732  17.3911  17.4231  17.4274  17.4493  17.4979  17.4980
    17.6701  17.7827  17.7827  18.0510  18.1944  18.2034  18.2038  18.3014
    18.3015  18.3552  18.4012  18.8411  18.8411  19.0012  19.0190  19.2936
    19.2936  19.3087  19.4136  19.4300  19.4433  19.4620  19.4704  19.4704
    19.6304  19.6305  19.6609  19.7686  20.0834  20.1116

          k = 0.0545 0.0545 0.3813 ( 13312 PWs)   bands (ev):

   -53.8911 -53.8815 -53.8681 -53.8681 -53.8635 -53.8635 -53.8552 -53.8509
   -52.6478 -52.6463 -52.6448 -52.6448 -52.6402 -52.6401 -52.6316 -52.6271
   -25.3448 -25.3447 -25.3387 -25.3380 -25.3121 -25.3120 -25.3016 -25.3016
   -25.2980 -25.2971 -25.2567 -25.2291 -25.2201 -25.2201 -25.2128 -25.1809
   -25.1782 -25.1665 -25.1581 -25.1576 -25.1320 -25.1319 -25.1272 -25.1271
   -24.0315 -24.0315 -24.0204 -24.0166 -24.0156 -24.0041 -23.9875 -23.9875
   -23.9833 -23.9802 -23.9587 -23.9478 -23.9428 -23.9427 -23.9370 -23.9368
   -23.9223 -23.9223 -23.9188 -23.9188 -23.9125 -23.9112 -23.8954 -23.8946
    11.4497  12.4739  14.3239  14.3240  14.3954  14.3954  14.5181  14.5181
    14.6456  14.7501  14.7502  14.7555  14.7729  14.9066  15.0666  15.2297
    15.3166  15.6698  15.8732  15.8951  15.9718  15.9799  16.4202  16.4202
    16.4583  16.4583  16.5393  16.5394  16.8093  16.8093  17.0244  17.0246
    17.1430  17.1431  17.1743  17.1917  17.2318  17.2318  17.4011  17.4031
    17.4034  17.4291  17.6729  17.6732  17.7841  17.9400  17.9469  18.0674
    18.4136  18.6475  18.6476  18.9789  18.9789  19.0669  19.1728  19.1728
    19.2499  19.2882  19.2883  19.3274  19.4097  19.4157  19.4498  19.4725
    19.7514  19.8615  19.9358  19.9800  19.9842  19.9843

          k = 0.0545 0.0545-0.4902 ( 13294 PWs)   bands (ev):

   -53.8865 -53.8861 -53.8659 -53.8659 -53.8656 -53.8656 -53.8532 -53.8529
   -52.6471 -52.6470 -52.6426 -52.6425 -52.6425 -52.6424 -52.6294 -52.6293
   -25.3285 -25.3284 -25.3281 -25.3281 -25.3184 -25.3183 -25.3181 -25.3180
   -25.2616 -25.2616 -25.2613 -25.2613 -25.2432 -25.2429 -25.1899 -25.1896
   -25.1698 -25.1695 -25.1681 -25.1678 -25.1298 -25.1297 -25.1294 -25.1294
   -24.0089 -24.0089 -24.0086 -24.0086 -24.0017 -24.0015 -23.9983 -23.9979
   -23.9820 -23.9816 -23.9815 -23.9812 -23.9401 -23.9401 -23.9398 -23.9396
   -23.9207 -23.9207 -23.9204 -23.9204 -23.9040 -23.9037 -23.9029 -23.9026
    11.9217  11.9219  14.3858  14.3858  14.3859  14.3860  14.6466  14.6466
    14.6467  14.6467  14.9300  14.9302  14.9335  14.9338  15.0198  15.0201
    15.2782  15.2784  15.9180  15.9183  15.9263  15.9265  16.6252  16.6252
    16.6254  16.6254  16.7317  16.7318  16.7318  16.7319  16.8534  16.8535
    16.8535  16.8535  17.2471  17.2473  17.2474  17.2476  17.3938  17.3939
    17.4128  17.4130  17.5312  17.5313  17.5418  17.5419  17.9207  17.9210
    18.7626  18.7627  18.9537  18.9538  18.9539  18.9539  19.1221  19.1221
    19.1222  19.1222  19.4084  19.4087  19.4668  19.4670  19.5766  19.5767
    19.6838  19.6840  19.8600  19.8602  19.9766  19.9769

          k = 0.0545 0.1634 0.1634 ( 13302 PWs)   bands (ev):

   -53.8969 -53.8732 -53.8732 -53.8707 -53.8609 -53.8593 -53.8593 -53.8483
   -52.6482 -52.6481 -52.6476 -52.6454 -52.6374 -52.6359 -52.6358 -52.6245
   -25.3647 -25.3638 -25.3638 -25.3546 -25.3545 -25.3477 -25.2921 -25.2829
   -25.2828 -25.2722 -25.2624 -25.2487 -25.2119 -25.1974 -25.1888 -25.1598
   -25.1557 -25.1556 -25.1432 -25.1396 -25.1396 -25.1319 -25.1318 -25.1245
   -24.0613 -24.0595 -24.0595 -24.0460 -24.0408 -24.0290 -23.9642 -23.9624
   -23.9623 -23.9533 -23.9533 -23.9439 -23.9365 -23.9281 -23.9281 -23.9230
   -23.9229 -23.9227 -23.9226 -23.9219 -23.9167 -23.9070 -23.8853 -23.8845
    10.9520  13.7464  13.7465  14.1525  14.2634  14.2635  14.3306  14.3973
    14.4257  14.4257  14.5169  14.5275  14.8143  15.0420  15.0421  15.6241
    15.8241  15.8356  16.0055  16.0056  16.1142  16.1142  16.1537  16.1538
    16.1652  16.2558  16.2909  16.5089  16.5191  16.7538  16.7657  17.1095
    17.1096  17.3314  17.3315  17.3746  17.3852  17.4463  17.6781  17.6838
    17.9728  17.9729  18.0199  18.0472  18.0473  18.1020  18.2409  18.2411
    18.4979  18.5238  18.5239  18.7748  18.8195  18.8196  19.1518  19.1519
    19.3543  19.3837  19.3837  19.4310  19.4338  19.4466  19.4615  19.5709
    19.5750  19.6351  19.6351  19.7747  19.7748  19.8026

          k = 0.0545 0.1634 0.2723 ( 13297 PWs)   bands (ev):

   -53.8938 -53.8762 -53.8716 -53.8693 -53.8625 -53.8608 -53.8579 -53.8497
   -52.6478 -52.6468 -52.6461 -52.6457 -52.6387 -52.6373 -52.6344 -52.6259
   -25.3543 -25.3543 -25.3522 -25.3433 -25.3306 -25.3240 -25.3010 -25.2933
   -25.2842 -25.2741 -25.2728 -25.2362 -25.2215 -25.1915 -25.1840 -25.1827
   -25.1821 -25.1600 -25.1477 -25.1468 -25.1446 -25.1377 -25.1338 -25.1264
   -24.0465 -24.0457 -24.0405 -24.0373 -24.0293 -24.0120 -23.9757 -23.9733
   -23.9727 -23.9654 -23.9533 -23.9420 -23.9414 -23.9350 -23.9307 -23.9275
   -23.9222 -23.9217 -23.9209 -23.9191 -23.9178 -23.9176 -23.8902 -23.8890
    11.2031  13.1576  13.8565  14.1402  14.3385  14.4186  14.4432  14.5087
    14.5272  14.6380  14.6411  14.6614  14.8519  15.0551  15.1533  15.4805
    15.6750  15.8040  15.8488  16.0655  16.0693  16.0998  16.2157  16.2161
    16.2519  16.2550  16.2881  16.4603  16.6307  16.7078  16.8959  16.9640
    17.1226  17.2234  17.2463  17.2880  17.3223  17.4000  17.4170  17.5402
    17.6347  17.6843  17.7933  17.9852  18.0385  18.0553  18.0750  18.1645
    18.2651  18.3708  18.3875  18.8798  18.8831  18.9975  19.0961  19.2120
    19.3157  19.3328  19.4035  19.4380  19.4638  19.4825  19.4933  19.4977
    19.6141  19.6198  19.6718  19.7050  19.8936  19.9617

          k = 0.0545 0.1634 0.3813 ( 13301 PWs)   bands (ev):

   -53.8897 -53.8804 -53.8695 -53.8673 -53.8646 -53.8627 -53.8560 -53.8516
   -52.6473 -52.6462 -52.6449 -52.6440 -52.6406 -52.6394 -52.6324 -52.6279
   -25.3416 -25.3400 -25.3364 -25.3275 -25.3132 -25.3074 -25.3003 -25.2976
   -25.2919 -25.2899 -25.2621 -25.2342 -25.2196 -25.2166 -25.2161 -25.1831
   -25.1751 -25.1686 -25.1663 -25.1561 -25.1426 -25.1365 -25.1350 -25.1290
   -24.0279 -24.0277 -24.0231 -24.0146 -24.0143 -23.9923 -23.9909 -23.9889
   -23.9876 -23.9808 -23.9546 -23.9525 -23.9516 -23.9468 -23.9389 -23.9334
   -23.9206 -23.9191 -23.9186 -23.9179 -23.9144 -23.9109 -23.8974 -23.8955
    11.5679  12.5715  13.9765  14.1200  14.4236  14.4836  14.6212  14.6856
[...]
    19.3037  19.3038  19.3167  19.3169  19.4232  19.4234  19.5136  19.5137
    19.6271  19.6273  19.6807  19.6810  19.6907  19.6910

          k = 0.1634-0.4902-0.4902 ( 13336 PWs)   bands (ev):

   -53.8753 -53.8752 -53.8750 -53.8748 -53.8607 -53.8605 -53.8603 -53.8602
   -52.6443 -52.6442 -52.6442 -52.6441 -52.6365 -52.6365 -52.6365 -52.6363
   -25.3121 -25.3120 -25.3118 -25.3116 -25.2820 -25.2820 -25.2820 -25.2819
   -25.2530 -25.2530 -25.2529 -25.2529 -25.2141 -25.2141 -25.2140 -25.2140
   -25.2021 -25.2021 -25.2020 -25.2020 -25.1607 -25.1606 -25.1604 -25.1603
   -23.9977 -23.9977 -23.9977 -23.9975 -23.9969 -23.9967 -23.9965 -23.9965
   -23.9867 -23.9867 -23.9867 -23.9866 -23.9360 -23.9360 -23.9359 -23.9358
   -23.9202 -23.9202 -23.9202 -23.9200 -23.9185 -23.9182 -23.9180 -23.9180
    13.0196  13.0197  13.0199  13.0200  14.8659  14.8660  14.8661  14.8662
    15.1967  15.1968  15.1969  15.1970  15.5048  15.5048  15.5049  15.5050
    15.7694  15.7695  15.7697  15.7697  15.9960  15.9960  15.9961  15.9961
    16.2570  16.2570  16.2572  16.2572  16.4496  16.4497  16.4498  16.4499
    16.7099  16.7099  16.7100  16.7100  16.9633  16.9633  16.9635  16.9635
    16.9917  16.9918  16.9918  16.9919  17.4651  17.4651  17.4651  17.4651
    19.1880  19.1881  19.1882  19.1882  19.3371  19.3371  19.3372  19.3373
    19.3779  19.3779  19.3780  19.3781  19.5067  19.5068  19.5070  19.5070
    19.5820  19.5820  19.5821  19.5821  19.6641  19.6641

          k = 0.2723 0.2723 0.2723 ( 13283 PWs)   bands (ev):

   -53.8870 -53.8718 -53.8718 -53.8718 -53.8620 -53.8620 -53.8620 -53.8534
   -52.6456 -52.6448 -52.6447 -52.6447 -52.6378 -52.6377 -52.6377 -52.6296
   -25.3266 -25.3266 -25.3266 -25.2979 -25.2978 -25.2978 -25.2904 -25.2903
   -25.2903 -25.2848 -25.2554 -25.2554 -25.2187 -25.2187 -25.1868 -25.1867
   -25.1867 -25.1706 -25.1703 -25.1703 -25.1702 -25.1569 -25.1568 -25.1568
   -24.0186 -24.0186 -24.0186 -24.0143 -24.0143 -23.9900 -23.9898 -23.9898
   -23.9829 -23.9573 -23.9524 -23.9524 -23.9523 -23.9402 -23.9402 -23.9401
   -23.9329 -23.9329 -23.9329 -23.9146 -23.9145 -23.9145 -23.9025 -23.9025
    11.8029  13.5711  13.5713  13.5713  14.3557  14.3558  14.3558  14.9573
    14.9573  14.9617  14.9617  14.9617  15.3963  15.3964  15.3964  15.4512
    15.7447  15.7447  15.7449  15.9213  15.9213  16.0457  16.2195  16.2195
    16.2196  16.4162  16.4163  16.4163  16.5570  16.5570  16.7456  16.7456
    16.7457  16.9573  16.9575  16.9575  17.0565  17.0565  17.0567  17.1302
    17.1302  17.2552  17.2554  17.2554  17.3778  17.3779  17.3779  18.0323
    18.8144  18.8144  18.8146  19.1870  19.2280  19.2280  19.2281  19.2754
    19.2755  19.2755  19.4560  19.4560  19.5138  19.5138  19.5334  19.5334
    19.5334  19.6525  19.6525  19.6525  19.7499  19.7499

          k = 0.2723 0.2723 0.3813 ( 13280 PWs)   bands (ev):

   -53.8835 -53.8754 -53.8695 -53.8695 -53.8643 -53.8643 -53.8600 -53.8554
   -52.6454 -52.6449 -52.6431 -52.6431 -52.6394 -52.6393 -52.6358 -52.6315
   -25.3156 -25.3155 -25.3106 -25.2968 -25.2967 -25.2939 -25.2860 -25.2750
   -25.2730 -25.2730 -25.2726 -25.2373 -25.2342 -25.2112 -25.2112 -25.2076
   -25.1819 -25.1811 -25.1810 -25.1720 -25.1716 -25.1715 -25.1622 -25.1621
   -24.0086 -24.0086 -24.0080 -24.0037 -23.9990 -23.9949 -23.9941 -23.9940
   -23.9719 -23.9706 -23.9662 -23.9505 -23.9505 -23.9470 -23.9470 -23.9455
   -23.9311 -23.9298 -23.9297 -23.9177 -23.9176 -23.9127 -23.9110 -23.9068
    12.1427  13.0558  13.7919  13.7920  14.2154  14.2155  14.6603  15.1043
    15.1232  15.1232  15.1358  15.2148  15.3264  15.4049  15.4049  15.4180
    15.5085  15.7557  15.8991  15.8992  15.9847  16.0316  16.1438  16.2489
    16.3085  16.3086  16.4828  16.5144  16.5145  16.6022  16.6022  16.6824
    16.7395  16.7395  16.8419  16.8420  16.8620  16.9137  16.9406  16.9493
    17.0130  17.0219  17.0221  17.0549  17.1281  17.1281  17.5030  17.9173
    18.9911  19.0216  19.0217  19.1525  19.2409  19.2410  19.2630  19.2631
    19.3278  19.3853  19.4281  19.4282  19.4800  19.4824  19.5060  19.5669
    19.5702  19.6428  19.7033  19.7728  19.7728  19.7928

          k = 0.2723 0.2723-0.4902 ( 13292 PWs)   bands (ev):

   -53.8796 -53.8793 -53.8671 -53.8671 -53.8668 -53.8668 -53.8579 -53.8575
   -52.6452 -52.6451 -52.6413 -52.6413 -52.6412 -52.6412 -52.6337 -52.6336
   -25.3055 -25.3054 -25.3053 -25.3052 -25.2921 -25.2917 -25.2897 -25.2894
   -25.2569 -25.2567 -25.2426 -25.2426 -25.2424 -25.2424 -25.2081 -25.2078
   -25.1950 -25.1947 -25.1759 -25.1756 -25.1677 -25.1676 -25.1674 -25.1673
   -24.0012 -24.0011 -24.0000 -24.0000 -23.9998 -23.9998 -23.9870 -23.9868
   -23.9827 -23.9823 -23.9591 -23.9589 -23.9505 -23.9504 -23.9504 -23.9504
   -23.9234 -23.9233 -23.9233 -23.9232 -23.9212 -23.9208 -23.9104 -23.9103
    12.5686  12.5688  14.0208  14.0209  14.0209  14.0211  15.0130  15.0132
    15.2833  15.2833  15.2834  15.2834  15.2909  15.2912  15.3101  15.3103
    15.4989  15.4990  16.0617  16.0619  16.1048  16.1050  16.2016  16.2017
    16.2018  16.2020  16.4741  16.4741  16.4742  16.4742  16.6566  16.6568
    16.7726  16.7726  16.7727  16.7728  16.8193  16.8195  16.9352  16.9353
    16.9572  16.9573  16.9573  16.9574  16.9645  16.9646  17.7037  17.7037
    19.1685  19.1687  19.1993  19.1994  19.1994  19.1995  19.2819  19.2819
    19.2876  19.2876  19.2877  19.2878  19.4628  19.4630  19.6357  19.6359
    19.7004  19.7007  19.7918  19.7919  19.7980  19.7983

          k = 0.2723 0.3813 0.3813 ( 13301 PWs)   bands (ev):

   -53.8802 -53.8728 -53.8728 -53.8673 -53.8669 -53.8622 -53.8622 -53.8575
   -52.6449 -52.6437 -52.6436 -52.6414 -52.6407 -52.6376 -52.6375 -52.6333
   -25.3029 -25.3029 -25.3010 -25.2967 -25.2847 -25.2799 -25.2798 -25.2710
   -25.2709 -25.2635 -25.2551 -25.2435 -25.2356 -25.2180 -25.2115 -25.2058
   -25.2057 -25.1902 -25.1875 -25.1874 -25.1793 -25.1793 -25.1764 -25.1685
   -23.9996 -23.9981 -23.9980 -23.9973 -23.9939 -23.9930 -23.9929 -23.9924
   -23.9768 -23.9649 -23.9647 -23.9644 -23.9579 -23.9413 -23.9407 -23.9407
   -23.9373 -23.9372 -23.9326 -23.9231 -23.9185 -23.9184 -23.9169 -23.9148
    12.4681  13.3243  13.3245  13.9429  14.0412  14.5219  14.5220  15.1953
    15.2259  15.2621  15.3253  15.3718  15.3718  15.4324  15.4325  15.5971
    15.7296  15.7296  15.7514  15.8509  15.9920  16.1092  16.2000  16.2001
    16.3233  16.3233  16.3306  16.3483  16.4707  16.4773  16.6091  16.6093
    16.6318  16.6776  16.6951  16.6952  16.7006  16.8148  16.8149  16.8184
    16.8184  16.8592  16.8884  16.9332  16.9538  17.2009  17.2009  17.6633
    19.1596  19.1597  19.1963  19.2783  19.2913  19.3717  19.3769  19.3937
    19.3937  19.4268  19.4592  19.4592  19.5204  19.5386  19.5387  19.5555
    19.6056  19.7204  19.7233  19.7233  19.7357  19.7358

          k = 0.2723 0.3813-0.4902 ( 13278 PWs)   bands (ev):

   -53.8767 -53.8764 -53.8700 -53.8697 -53.8649 -53.8646 -53.8600 -53.8597
   -52.6443 -52.6442 -52.6422 -52.6421 -52.6395 -52.6394 -52.6355 -52.6354
   -25.2988 -25.2985 -25.2912 -25.2909 -25.2886 -25.2885 -25.2670 -25.2668
   -25.2609 -25.2607 -25.2422 -25.2421 -25.2316 -25.2315 -25.2147 -25.2145
   -25.2066 -25.2063 -25.1926 -25.1923 -25.1811 -25.1808 -25.1748 -25.1745
   -23.9946 -23.9945 -23.9933 -23.9931 -23.9929 -23.9928 -23.9867 -23.9866
   -23.9801 -23.9799 -23.9646 -23.9646 -23.9532 -23.9530 -23.9395 -23.9395
   -23.9315 -23.9315 -23.9266 -23.9265 -23.9264 -23.9263 -23.9181 -23.9180
    12.8713  12.8715  13.6336  13.6338  14.3038  14.3039  14.8766  14.8768
    15.3470  15.3472  15.3685  15.3687  15.5330  15.5331  15.5386  15.5388
    15.6277  15.6278  16.0450  16.0453  16.0600  16.0602  16.0644  16.0646
    16.1923  16.1924  16.3790  16.3791  16.4174  16.4176  16.5435  16.5436
    16.5458  16.5460  16.6963  16.6965  16.7784  16.7785  16.7800  16.7800
    16.8121  16.8123  16.8679  16.8680  16.9375  16.9376  17.3951  17.3951
    19.2883  19.2884  19.3091  19.3092  19.3664  19.3666  19.3793  19.3794
    19.4185  19.4186  19.4804  19.4806  19.5171  19.5171  19.6546  19.6548
    19.6617  19.6619  19.7252  19.7254  19.7263  19.7265

          k = 0.2723-0.4902-0.4902 ( 13284 PWs)   bands (ev):

   -53.8734 -53.8733 -53.8731 -53.8730 -53.8625 -53.8624 -53.8622 -53.8621
   -52.6433 -52.6432 -52.6432 -52.6431 -52.6375 -52.6375 -52.6375 -52.6373
   -25.2937 -25.2936 -25.2934 -25.2932 -25.2721 -25.2721 -25.2721 -25.2721
   -25.2470 -25.2470 -25.2469 -25.2469 -25.2194 -25.2194 -25.2193 -25.2193
   -25.2129 -25.2129 -25.2128 -25.2128 -25.1804 -25.1802 -25.1800 -25.1799
   -23.9896 -23.9896 -23.9895 -23.9894 -23.9879 -23.9876 -23.9874 -23.9874
   -23.9776 -23.9776 -23.9776 -23.9775 -23.9423 -23.9423 -23.9422 -23.9421
   -23.9284 -23.9283 -23.9283 -23.9282 -23.9282 -23.9281 -23.9280 -23.9280
    13.2374  13.2375  13.2377  13.2378  14.6148  14.6149  14.6150  14.6151
    15.3809  15.3810  15.3811  15.3812  15.7210  15.7211  15.7212  15.7212
    15.8035  15.8035  15.8037  15.8037  15.9769  15.9769  15.9770  15.9771
    16.3032  16.3032  16.3033  16.3034  16.3559  16.3560  16.3561  16.3562
    16.6431  16.6431  16.6432  16.6432  16.7160  16.7161  16.7162  16.7163
    16.8006  16.8007  16.8007  16.8008  17.1165  17.1165  17.1165  17.1165
    19.3579  19.3581  19.3581  19.3582  19.4520  19.4520  19.4521  19.4522
    19.5349  19.5350  19.5351  19.5351  19.5887  19.5888  19.5889  19.5890
    19.6477  19.6478  19.6479  19.6480  19.7074  19.7074

          k = 0.3813 0.3813 0.3813 ( 13271 PWs)   bands (ev):

   -53.8772 -53.8703 -53.8703 -53.8703 -53.8647 -53.8647 -53.8647 -53.8597
   -52.6441 -52.6423 -52.6422 -52.6422 -52.6390 -52.6389 -52.6389 -52.6351
   -25.2861 -25.2861 -25.2861 -25.2769 -25.2768 -25.2768 -25.2681 -25.2579
   -25.2578 -25.2578 -25.2514 -25.2514 -25.2313 -25.2313 -25.2082 -25.2081
   -25.2081 -25.2029 -25.2029 -25.2029 -25.1953 -25.1952 -25.1952 -25.1861
   -23.9895 -23.9895 -23.9895 -23.9880 -23.9878 -23.9878 -23.9837 -23.9837
   -23.9761 -23.9663 -23.9538 -23.9538 -23.9537 -23.9474 -23.9474 -23.9473
   -23.9456 -23.9456 -23.9456 -23.9267 -23.9265 -23.9265 -23.9244 -23.9244
    12.7861  13.6072  13.6075  13.6075  14.2544  14.2546  14.2546  14.9740
    15.4294  15.4294  15.5200  15.5200  15.5200  15.7004  15.7005  15.7005
    15.7016  15.7016  15.7018  15.8729  16.0696  16.0696  16.2518  16.2518
    16.2520  16.3831  16.3831  16.4127  16.4127  16.4127  16.4457  16.4457
    16.4458  16.5866  16.5866  16.5867  16.6110  16.6112  16.6112  16.6519
    16.6521  16.6521  16.7988  16.7988  16.8939  16.8939  16.8939  17.3345
    19.3000  19.3000  19.3002  19.4592  19.4593  19.4593  19.4874  19.4874
    19.5366  19.5544  19.5544  19.5544  19.5951  19.5951  19.5952  19.5953
    19.5953  19.7024  19.7024  19.7025  19.7260  19.7260

          k = 0.3813 0.3813-0.4902 ( 13286 PWs)   bands (ev):

   -53.8739 -53.8736 -53.8677 -53.8677 -53.8674 -53.8674 -53.8624 -53.8620
   -52.6432 -52.6431 -52.6407 -52.6406 -52.6406 -52.6405 -52.6371 -52.6370
   -25.2779 -25.2779 -25.2777 -25.2777 -25.2691 -25.2688 -25.2618 -25.2615
   -25.2542 -25.2541 -25.2344 -25.2344 -25.2342 -25.2342 -25.2249 -25.2247
   -25.2175 -25.2172 -25.2019 -25.2018 -25.2016 -25.2015 -25.1972 -25.1970
   -23.9851 -23.9851 -23.9850 -23.9850 -23.9828 -23.9826 -23.9806 -23.9805
   -23.9687 -23.9683 -23.9592 -23.9589 -23.9528 -23.9528 -23.9528 -23.9528
   -23.9374 -23.9374 -23.9374 -23.9373 -23.9360 -23.9357 -23.9280 -23.9280
    13.1762  13.1764  13.9334  13.9335  13.9336  13.9337  14.6206  14.6208
    15.5577  15.5579  15.6213  15.6215  15.6343  15.6343  15.6344  15.6344
    15.7987  15.7989  16.0160  16.0161  16.0162  16.0163  16.1600  16.1602
    16.1617  16.1618  16.4018  16.4020  16.4167  16.4169  16.4604  16.4604
    16.4605  16.4605  16.5453  16.5454  16.5454  16.5455  16.6549  16.6550
    16.6550  16.6550  16.6895  16.6896  16.6954  16.6956  17.0470  17.0470
    19.4002  19.4003  19.4314  19.4315  19.4316  19.4317  19.5428  19.5430
    19.5838  19.5838  19.5839  19.5839  19.6157  19.6159  19.6623  19.6625
    19.7049  19.7049  19.7051  19.7051  19.7630  19.7632

          k = 0.3813-0.4902-0.4902 ( 13320 PWs)   bands (ev):

   -53.8709 -53.8707 -53.8705 -53.8704 -53.8651 -53.8650 -53.8648 -53.8646
   -52.6419 -52.6419 -52.6419 -52.6417 -52.6389 -52.6388 -52.6388 -52.6387
   -25.2693 -25.2692 -25.2690 -25.2688 -25.2587 -25.2587 -25.2587 -25.2587
   -25.2388 -25.2388 -25.2388 -25.2387 -25.2275 -25.2274 -25.2274 -25.2274
   -25.2272 -25.2272 -25.2271 -25.2271 -25.2057 -25.2056 -25.2054 -25.2053
   -23.9794 -23.9794 -23.9793 -23.9793 -23.9768 -23.9766 -23.9764 -23.9764
   -23.9657 -23.9657 -23.9657 -23.9656 -23.9504 -23.9504 -23.9504 -23.9503
   -23.9414 -23.9411 -23.9409 -23.9409 -23.9395 -23.9395 -23.9394 -23.9393
    13.5427  13.5428  13.5430  13.5431  14.2818  14.2818  14.2820  14.2821
    15.6320  15.6320  15.6322  15.6323  15.8484  15.8484  15.8486  15.8486
    15.9396  15.9397  15.9398  15.9398  15.9427  15.9428  15.9429  15.9429
    16.3211  16.3211  16.3213  16.3213  16.3741  16.3741  16.3743  16.3743
    16.4731  16.4731  16.4732  16.4733  16.5563  16.5563  16.5565  16.5565
    16.6063  16.6063  16.6063  16.6064  16.7559  16.7559  16.7559  16.7559
    19.4677  19.4678  19.4679  19.4680  19.5241  19.5241  19.5243  19.5243
    19.6202  19.6203  19.6204  19.6205  19.6712  19.6712  19.6714  19.6714
    19.7429  19.7429  19.7430  19.7431  19.7835  19.7836

          k =-0.4902-0.4902-0.4902 ( 13264 PWs)   bands (ev):

   -53.8680 -53.8679 -53.8679 -53.8678 -53.8677 -53.8676 -53.8676 -53.8675
   -52.6405 -52.6404 -52.6404 -52.6404 -52.6404 -52.6402 -52.6402 -52.6402
   -25.2433 -25.2432 -25.2432 -25.2432 -25.2432 -25.2432 -25.2431 -25.2431
   -25.2430 -25.2430 -25.2430 -25.2429 -25.2429 -25.2429 -25.2428 -25.2428
   -25.2275 -25.2275 -25.2274 -25.2274 -25.2274 -25.2273 -25.2273 -25.2273
   -23.9712 -23.9712 -23.9712 -23.9712 -23.9712 -23.9712 -23.9711 -23.9710
   -23.9525 -23.9525 -23.9525 -23.9524 -23.9523 -23.9523 -23.9523 -23.9522
   -23.9522 -23.9522 -23.9522 -23.9522 -23.9521 -23.9520 -23.9520 -23.9519
    13.9057  13.9058  13.9060  13.9060  13.9061  13.9062  13.9062  13.9063
    15.8973  15.8974  15.8974  15.8974  15.8974  15.8975  15.8975  15.8975
    15.8975  15.8976  15.8976  15.8976  15.8977  15.8977  15.8977  15.8978
    16.4390  16.4390  16.4390  16.4390  16.4390  16.4390  16.4390  16.4390
    16.4622  16.4622  16.4623  16.4623  16.4623  16.4624  16.4624  16.4624
    16.4624  16.4624  16.4625  16.4625  16.4625  16.4625  16.4625  16.4626
    19.5794  19.5794  19.5795  19.5795  19.5796  19.5796  19.5796  19.5796
    19.5797  19.5797  19.5797  19.5797  19.5797  19.5798  19.5798  19.5798
    19.9721  19.9721  19.9721  19.9721  19.9722  19.9722

     the Fermi energy is    18.2536 ev

!    total energy              =   -3971.53012764 Ry
     Harris-Foulkes estimate   =   -3971.53010859 Ry
     estimated scf accuracy    <       0.00000043 Ry

     total all-electron energy =    -33628.053007 Ry

     The total energy is the sum of the following terms:

     one-electron contribution =    -945.02826033 Ry
     hartree contribution      =     600.49318277 Ry
     xc contribution           =    -356.37847586 Ry
     ewald contribution        =   -2082.77816595 Ry
     one-center paw contrib.   =   -1187.90752089 Ry
     smearing contrib. (-TS)   =       0.06911262 Ry

     total magnetization       =    -0.00 Bohr mag/cell
     absolute magnetization    =    19.63 Bohr mag/cell

     convergence has been achieved in  23 iterations

     Forces acting on atoms (cartesian axes, Ry/au):

     atom    1 type  1   force =     0.00000000   -0.00000000    0.00000000
     atom    2 type  2   force =    -0.00000656   -0.00000656   -0.00000656
     atom    3 type  1   force =     0.00000000    0.00000000    0.00000000
     atom    4 type  2   force =    -0.00000656   -0.00000656    0.00000656
     atom    5 type  1   force =     0.00000000   -0.00000000    0.00000000
     atom    6 type  2   force =    -0.00000656    0.00000656   -0.00000656
     atom    7 type  1   force =     0.00000000    0.00000000    0.00000000
     atom    8 type  2   force =    -0.00000656    0.00000656    0.00000656
     atom    9 type  1   force =     0.00000000    0.00000000    0.00000000
     atom   10 type  2   force =     0.00000656   -0.00000656   -0.00000656
     atom   11 type  1   force =     0.00000000    0.00000000    0.00000000
     atom   12 type  2   force =     0.00000656   -0.00000656    0.00000656
     atom   13 type  1   force =     0.00000000    0.00000000    0.00000000
     atom   14 type  2   force =     0.00000656    0.00000656   -0.00000656
     atom   15 type  1   force =     0.00000000    0.00000000    0.00000000
     atom   16 type  2   force =     0.00000656    0.00000656    0.00000656

     Total force =     0.000032     Total SCF correction =     0.000171
     SCF correction compared to forces is large: reduce conv_thr to get better values


     Computing stress (Cartesian axis) and pressure

          total   stress  (Ry/bohr**3)                   (kbar)     P=  -84.02
  -0.00057113   0.00000000   0.00000000        -84.02      0.00      0.00
   0.00000000  -0.00057113   0.00000000          0.00    -84.02      0.00
   0.00000000   0.00000000  -0.00057113          0.00      0.00    -84.02


     Writing output data file yHbSzEmxkNYtWlFX.save/
 
     init_run     :      7.48s CPU      7.78s WALL (       1 calls)
     electrons    :    762.23s CPU    777.95s WALL (       1 calls)
     forces       :      2.31s CPU      2.45s WALL (       1 calls)
     stress       :      9.78s CPU      9.85s WALL (       1 calls)

     Called by init_run:
     wfcinit      :      6.85s CPU      7.09s WALL (       1 calls)
     potinit      :      0.30s CPU      0.32s WALL (       1 calls)
     hinit0       :      0.13s CPU      0.13s WALL (       1 calls)

     Called by electrons:
     c_bands      :    702.16s CPU    715.05s WALL (      24 calls)
     sum_band     :     52.11s CPU     54.30s WALL (      24 calls)
     v_of_rho     :      0.65s CPU      0.70s WALL (      24 calls)
     newd         :      1.34s CPU      1.64s WALL (      24 calls)
     PAW_pot      :      5.96s CPU      6.23s WALL (      24 calls)
     mix_rho      :      0.19s CPU      0.20s WALL (      24 calls)

     Called by c_bands:
     init_us_2    :      3.97s CPU      4.03s WALL (    3570 calls)
     cegterg      :    680.70s CPU    693.38s WALL (    1680 calls)

     Called by sum_band:
     sum_band:bec :      0.55s CPU      0.56s WALL (    1680 calls)
     addusdens    :      2.65s CPU      3.00s WALL (      24 calls)

     Called by *egterg:
     h_psi        :    248.94s CPU    256.94s WALL (    8886 calls)
     s_psi        :     19.91s CPU     20.01s WALL (    8886 calls)
     g_psi        :      1.04s CPU      1.05s WALL (    7136 calls)
     cdiaghg      :    333.56s CPU    334.48s WALL (    8746 calls)

     Called by h_psi:
     h_psi:pot    :    247.20s CPU    255.17s WALL (    8886 calls)
     h_psi:calbec :     22.61s CPU     24.87s WALL (    8886 calls)
     vloc_psi     :    203.87s CPU    209.47s WALL (    8886 calls)
     add_vuspsi   :     20.66s CPU     20.78s WALL (    8886 calls)

     General routines
     calbec       :     32.63s CPU     35.82s WALL (   10916 calls)
     fft          :      0.53s CPU      0.59s WALL (     642 calls)
     ffts         :      0.05s CPU      0.05s WALL (      96 calls)
     fftw         :    225.59s CPU    231.73s WALL ( 1472868 calls)
     interpolate  :      0.07s CPU      0.08s WALL (      48 calls)
 
     Parallel routines
     fft_scatt_xy :     18.21s CPU     18.69s WALL ( 1473606 calls)
     fft_scatt_yz :    131.28s CPU    135.07s WALL ( 1473606 calls)
 
     PWSCF        : 13m 5.17s CPU    13m28.94s WALL

 
   This run was terminated on:   5: 3: 6  16Jun2020            

=------------------------------------------------------------------------------=
   JOB DONE.
=------------------------------------------------------------------------------=
