--------------------------------------------------------------------------
WARNING: There was an error initializing an OpenFabrics device.

  Local host:   bear-pg0211u06a
  Local device: mlx5_0
--------------------------------------------------------------------------

     Program PWSCF v.6.3 starts on 15Jun2020 at 20:29:10 

     This program is part of the open-source Quantum ESPRESSO suite
     for quantum simulation of materials; please cite
         "P. Giannozzi et al., J. Phys.:Condens. Matter 21 395502 (2009);
         "P. Giannozzi et al., J. Phys.:Condens. Matter 29 465901 (2017);
          URL http://www.quantum-espresso.org", 
     in publications or presentations arising from this work. More details at
     http://www.quantum-espresso.org/quote

     Parallel version (MPI & OpenMP), running on      20 processor cores
     Number of MPI processes:                20
     Threads/MPI process:                     1

     MPI processes distributed on     1 nodes
     R & G space division:  proc/nbgrp/npool/nimage =      20
     Reading input from wd/eos/eos_003.in
Warning: card &IONS ignored
Warning: card ION_DYNAMICS = 'BFGS', ignored
Warning: card / ignored
Warning: card &CELL ignored
Warning: card CELL_DYNAMICS = 'BFGS', ignored
Warning: card CELL_FACTOR = 2.0, ignored
Warning: card PRESS = 0.0, ignored
Warning: card / ignored

     Current dimensions of program PWSCF are:
     Max number of different atomic species (ntypx) = 10
     Max number of k-points (npk) =  40000
     Max angular momentum in pseudopotentials (lmaxx) =  3
     Message from routine read_upf::
     Pseudo file /rds/homes/b/bxp912/pp/Cr.pbe-spn-kjpaw_psl.1.0.0.UPF has been successfully fixed on the fly.
To avoid this message in the future you can permanently fix 
 your pseudo files following instructions given in: 
https://gitlab.com/QEF/q-e/blob/master/upftools/how_to_fix_upf.md
               file Cr.pbe-spn-kjpaw_psl.1.0.0.UPF: wavefunction(s)  3S 3P 3D renormalized
     Message from routine read_upf::
     Pseudo file /rds/homes/b/bxp912/pp/Cr.pbe-spn-kjpaw_psl.1.0.0.UPF has been successfully fixed on the fly.
To avoid this message in the future you can permanently fix 
 your pseudo files following instructions given in: 
https://gitlab.com/QEF/q-e/blob/master/upftools/how_to_fix_upf.md
               file Cr.pbe-spn-kjpaw_psl.1.0.0.UPF: wavefunction(s)  3S 3P 3D renormalized

     Subspace diagonalization in iterative solution of the eigenvalue problem:
     a serial algorithm will be used

     Found symmetry operation: I + (  0.0000  0.0000  0.5000)
     This is a supercell, fractional translations are disabled
 
     Parallelization info
     --------------------
     sticks:   dense  smooth     PW     G-vecs:    dense   smooth      PW
     Min         191     126     35                 8945     4802     717
     Max         192     127     36                 8948     4807     720
     Sum        3833    2537    717               178925    96105   14363
 


     bravais-lattice index     =            0
     lattice parameter (alat)  =      10.7442  a.u.
     unit-cell volume          =    1187.8770 (a.u.)^3
     number of atoms/cell      =           16
     number of atomic types    =            2
     number of electrons       =       224.00
     number of Kohn-Sham states=          134
     kinetic-energy cutoff     =      71.0000  Ry
     charge density cutoff     =     430.0000  Ry
     convergence threshold     =      1.0E-06
     mixing beta               =       0.1000
     number of iterations used =           10  plain     mixing
     Exchange-correlation      = SLA PW PBX PBC ( 1  4  3  4 0 0)

     celldm(1)=  10.744168  celldm(2)=   0.000000  celldm(3)=   0.000000
     celldm(4)=   0.000000  celldm(5)=   0.000000  celldm(6)=   0.000000

     crystal axes: (cart. coord. in units of alat)
               a(1) = (   0.985714   0.000000   0.000000 )  
               a(2) = (   0.000000   0.985714   0.000000 )  
               a(3) = (   0.000000   0.000000   0.985714 )  

     reciprocal axes: (cart. coord. in units 2 pi/alat)
               b(1) = (  1.014493  0.000000  0.000000 )  
               b(2) = (  0.000000  1.014493  0.000000 )  
               b(3) = (  0.000000  0.000000  1.014493 )  


     PseudoPot. # 1 for Cr read from file:
     /rds/homes/b/bxp912/pp/Cr.pbe-spn-kjpaw_psl.1.0.0.UPF
     MD5 check sum: cb1c17117da000fe5e03c4f1a6841d9c
     Pseudo is Projector augmented-wave + core cor, Zval = 14.0
     Generated using "atomic" code by A. Dal Corso v.5.1
     Shape of augmentation charge: PSQ
     Using radial grid of 1183 points,  6 beta functions with: 
                l(1) =   0
                l(2) =   0
                l(3) =   1
                l(4) =   1
                l(5) =   2
                l(6) =   2
     Q(r) pseudized with 0 coefficients 


     PseudoPot. # 2 for Cr read from file:
     /rds/homes/b/bxp912/pp/Cr.pbe-spn-kjpaw_psl.1.0.0.UPF
     MD5 check sum: cb1c17117da000fe5e03c4f1a6841d9c
     Pseudo is Projector augmented-wave + core cor, Zval = 14.0
     Generated using "atomic" code by A. Dal Corso v.5.1
     Shape of augmentation charge: PSQ
     Using radial grid of 1183 points,  6 beta functions with: 
                l(1) =   0
                l(2) =   0
                l(3) =   1
                l(4) =   1
                l(5) =   2
                l(6) =   2
     Q(r) pseudized with 0 coefficients 


     atomic species   valence    mass     pseudopotential
        Cr1           14.00    55.84500     Cr( 1.00)
        Cr2           14.00    55.84500     Cr( 1.00)

     Starting magnetic structure 
     atomic species   magnetization
        Cr1          0.300
        Cr2         -0.300

     48 Sym. Ops., with inversion, found



   Cartesian axes

     site n.     atom                  positions (alat units)
         1           Cr1 tau(   1) = (   0.0000000   0.0000000   0.0000000  )
         2           Cr2 tau(   2) = (   0.2464286   0.2464286   0.2464283  )
         3           Cr1 tau(   3) = (   0.0000000   0.0000000   0.4928567  )
         4           Cr2 tau(   4) = (   0.2464286   0.2464286   0.7392860  )
         5           Cr1 tau(   5) = (   0.0000000   0.4928573   0.0000000  )
         6           Cr2 tau(   6) = (   0.2464286   0.7392860   0.2464283  )
         7           Cr1 tau(   7) = (   0.0000000   0.4928573   0.4928567  )
         8           Cr2 tau(   8) = (   0.2464286   0.7392860   0.7392860  )
         9           Cr1 tau(   9) = (   0.4928573   0.0000000   0.0000000  )
        10           Cr2 tau(  10) = (   0.7392860   0.2464286   0.2464283  )
        11           Cr1 tau(  11) = (   0.4928573   0.0000000   0.4928567  )
        12           Cr2 tau(  12) = (   0.7392860   0.2464286   0.7392860  )
        13           Cr1 tau(  13) = (   0.4928573   0.4928573   0.0000000  )
        14           Cr2 tau(  14) = (   0.7392860   0.7392860   0.2464283  )
        15           Cr1 tau(  15) = (   0.4928573   0.4928573   0.4928567  )
        16           Cr2 tau(  16) = (   0.7392860   0.7392860   0.7392860  )

     number of k points=    35  Marzari-Vanderbilt smearing, width (Ry)=  0.0400
                       cart. coord. in units 2pi/alat
        k(    1) = (   0.0563607   0.0563607   0.0563607), wk =   0.0109739
        k(    2) = (   0.0563607   0.0563607   0.1690821), wk =   0.0329218
        k(    3) = (   0.0563607   0.0563607   0.2818035), wk =   0.0329218
        k(    4) = (   0.0563607   0.0563607   0.3945250), wk =   0.0329218
        k(    5) = (   0.0563607   0.0563607  -0.5072464), wk =   0.0164609
        k(    6) = (   0.0563607   0.1690821   0.1690821), wk =   0.0329218
        k(    7) = (   0.0563607   0.1690821   0.2818035), wk =   0.0658436
        k(    8) = (   0.0563607   0.1690821   0.3945250), wk =   0.0658436
        k(    9) = (   0.0563607   0.1690821  -0.5072464), wk =   0.0329218
        k(   10) = (   0.0563607   0.2818035   0.2818035), wk =   0.0329218
        k(   11) = (   0.0563607   0.2818035   0.3945250), wk =   0.0658436
        k(   12) = (   0.0563607   0.2818035  -0.5072464), wk =   0.0329218
        k(   13) = (   0.0563607   0.3945250   0.3945250), wk =   0.0329218
        k(   14) = (   0.0563607   0.3945250  -0.5072464), wk =   0.0329218
        k(   15) = (   0.0563607  -0.5072464  -0.5072464), wk =   0.0082305
        k(   16) = (   0.1690821   0.1690821   0.1690821), wk =   0.0109739
        k(   17) = (   0.1690821   0.1690821   0.2818035), wk =   0.0329218
        k(   18) = (   0.1690821   0.1690821   0.3945250), wk =   0.0329218
        k(   19) = (   0.1690821   0.1690821  -0.5072464), wk =   0.0164609
        k(   20) = (   0.1690821   0.2818035   0.2818035), wk =   0.0329218
        k(   21) = (   0.1690821   0.2818035   0.3945250), wk =   0.0658436
        k(   22) = (   0.1690821   0.2818035  -0.5072464), wk =   0.0329218
        k(   23) = (   0.1690821   0.3945250   0.3945250), wk =   0.0329218
        k(   24) = (   0.1690821   0.3945250  -0.5072464), wk =   0.0329218
        k(   25) = (   0.1690821  -0.5072464  -0.5072464), wk =   0.0082305
        k(   26) = (   0.2818035   0.2818035   0.2818035), wk =   0.0109739
        k(   27) = (   0.2818035   0.2818035   0.3945250), wk =   0.0329218
        k(   28) = (   0.2818035   0.2818035  -0.5072464), wk =   0.0164609
        k(   29) = (   0.2818035   0.3945250   0.3945250), wk =   0.0329218
        k(   30) = (   0.2818035   0.3945250  -0.5072464), wk =   0.0329218
        k(   31) = (   0.2818035  -0.5072464  -0.5072464), wk =   0.0082305
        k(   32) = (   0.3945250   0.3945250   0.3945250), wk =   0.0109739
        k(   33) = (   0.3945250   0.3945250  -0.5072464), wk =   0.0164609
        k(   34) = (   0.3945250  -0.5072464  -0.5072464), wk =   0.0082305
        k(   35) = (  -0.5072464  -0.5072464  -0.5072464), wk =   0.0013717

     Dense  grid:   178925 G-vectors     FFT dimensions: (  72,  72,  72)

     Smooth grid:    96105 G-vectors     FFT dimensions: (  60,  60,  60)

     Estimated max dynamical RAM per process >     137.36 MB

     Estimated total dynamical RAM >       2.68 GB
     Generating pointlists ...
     new r_m :   0.1761 (alat units)  1.8917 (a.u.) for type    1
     new r_m :   0.1761 (alat units)  1.8917 (a.u.) for type    2

     Check: negative/imaginary core charge=   -0.000009    0.000000

     Initial potential from superposition of free atoms

     starting charge  223.98764, renormalised to  224.00000
     Starting wfcs are  160 randomized atomic wfcs
     Checking if some PAW data can be deallocated... 

     total cpu time spent up to now is        9.5 secs

     Self-consistent Calculation

     iteration #  1     ecut=    71.00 Ry     beta= 0.10
     Davidson diagonalization with overlap
     ethr =  1.00E-02,  avg # of iterations =  3.1

     Threshold (ethr) on eigenvalues was too large:
     Diagonalizing with lowered threshold

     Davidson diagonalization with overlap
     ethr =  8.36E-04,  avg # of iterations =  3.3

     total cpu time spent up to now is       55.5 secs

     total energy              =   -3970.46224603 Ry
     Harris-Foulkes estimate   =   -3970.36621659 Ry
     estimated scf accuracy    <       1.93809389 Ry

     total magnetization       =    -0.00 Bohr mag/cell
     absolute magnetization    =    37.39 Bohr mag/cell

     iteration #  2     ecut=    71.00 Ry     beta= 0.10
     Davidson diagonalization with overlap
     ethr =  8.65E-04,  avg # of iterations =  1.0

     total cpu time spent up to now is       71.0 secs

     total energy              =   -3970.91863343 Ry
     Harris-Foulkes estimate   =   -3970.47363787 Ry
     estimated scf accuracy    <       1.47156860 Ry

     total magnetization       =     0.00 Bohr mag/cell
     absolute magnetization    =    37.35 Bohr mag/cell

     iteration #  3     ecut=    71.00 Ry     beta= 0.10
     Davidson diagonalization with overlap
     ethr =  6.57E-04,  avg # of iterations =  3.0

     total cpu time spent up to now is       96.1 secs

     total energy              =   -3971.20325366 Ry
     Harris-Foulkes estimate   =   -3971.14988470 Ry
     estimated scf accuracy    <       0.35364583 Ry

     total magnetization       =    -0.00 Bohr mag/cell
     absolute magnetization    =    35.54 Bohr mag/cell

     iteration #  4     ecut=    71.00 Ry     beta= 0.10
     Davidson diagonalization with overlap
     ethr =  1.58E-04,  avg # of iterations =  2.2

     total cpu time spent up to now is      114.5 secs

     total energy              =   -3971.20392191 Ry
     Harris-Foulkes estimate   =   -3971.21556709 Ry
     estimated scf accuracy    <       0.53216054 Ry

     total magnetization       =    -0.00 Bohr mag/cell
     absolute magnetization    =    35.97 Bohr mag/cell

     iteration #  5     ecut=    71.00 Ry     beta= 0.10
     Davidson diagonalization with overlap
     ethr =  1.58E-04,  avg # of iterations =  5.4

     total cpu time spent up to now is      148.2 secs

     total energy              =   -3971.35760159 Ry
     Harris-Foulkes estimate   =   -3971.35295153 Ry
     estimated scf accuracy    <       0.05203706 Ry

     total magnetization       =     0.00 Bohr mag/cell
     absolute magnetization    =    28.45 Bohr mag/cell

     iteration #  6     ecut=    71.00 Ry     beta= 0.10
     Davidson diagonalization with overlap
     ethr =  2.32E-05,  avg # of iterations =  3.1

     total cpu time spent up to now is      169.3 secs

     total energy              =   -3971.34755871 Ry
     Harris-Foulkes estimate   =   -3971.35882485 Ry
     estimated scf accuracy    <       0.04859559 Ry

     total magnetization       =     0.00 Bohr mag/cell
     absolute magnetization    =    28.27 Bohr mag/cell

     iteration #  7     ecut=    71.00 Ry     beta= 0.10
     Davidson diagonalization with overlap
     ethr =  2.17E-05,  avg # of iterations =  1.0

     total cpu time spent up to now is      184.7 secs

     total energy              =   -3971.37826620 Ry
     Harris-Foulkes estimate   =   -3971.34843251 Ry
     estimated scf accuracy    <       0.06316671 Ry

     total magnetization       =     0.00 Bohr mag/cell
     absolute magnetization    =    28.74 Bohr mag/cell

     iteration #  8     ecut=    71.00 Ry     beta= 0.10
     Davidson diagonalization with overlap
     ethr =  2.17E-05,  avg # of iterations =  5.9

     total cpu time spent up to now is      224.7 secs

     total energy              =   -3971.44825069 Ry
     Harris-Foulkes estimate   =   -3971.44250747 Ry
     estimated scf accuracy    <       0.02571621 Ry

     total magnetization       =    -0.00 Bohr mag/cell
     absolute magnetization    =    22.50 Bohr mag/cell

     iteration #  9     ecut=    71.00 Ry     beta= 0.10
     Davidson diagonalization with overlap
     ethr =  1.15E-05,  avg # of iterations =  1.3

     total cpu time spent up to now is      240.8 secs

     total energy              =   -3971.45708894 Ry
     Harris-Foulkes estimate   =   -3971.44885283 Ry
     estimated scf accuracy    <       0.01822388 Ry

     total magnetization       =    -0.00 Bohr mag/cell
     absolute magnetization    =    22.05 Bohr mag/cell

     iteration # 10     ecut=    71.00 Ry     beta= 0.10
     Davidson diagonalization with overlap
     ethr =  8.14E-06,  avg # of iterations =  3.8

     total cpu time spent up to now is      265.5 secs

     total energy              =   -3971.46908279 Ry
     Harris-Foulkes estimate   =   -3971.46004234 Ry
     estimated scf accuracy    <       0.01611759 Ry

     total magnetization       =    -0.00 Bohr mag/cell
     absolute magnetization    =    20.70 Bohr mag/cell

     iteration # 11     ecut=    71.00 Ry     beta= 0.10
     Davidson diagonalization with overlap
     ethr =  7.20E-06,  avg # of iterations =  5.3

     total cpu time spent up to now is      299.3 secs

     total energy              =   -3971.48307722 Ry
     Harris-Foulkes estimate   =   -3971.47793899 Ry
     estimated scf accuracy    <       0.00888075 Ry

     total magnetization       =    -0.00 Bohr mag/cell
     absolute magnetization    =    18.27 Bohr mag/cell

     iteration # 12     ecut=    71.00 Ry     beta= 0.10
     Davidson diagonalization with overlap
     ethr =  3.96E-06,  avg # of iterations =  4.5

     total cpu time spent up to now is      330.0 secs

     total energy              =   -3971.48926907 Ry
     Harris-Foulkes estimate   =   -3971.48806658 Ry
     estimated scf accuracy    <       0.00490315 Ry

     total magnetization       =     0.00 Bohr mag/cell
     absolute magnetization    =    16.42 Bohr mag/cell

     iteration # 13     ecut=    71.00 Ry     beta= 0.10
     Davidson diagonalization with overlap
     ethr =  2.19E-06,  avg # of iterations =  1.2

     total cpu time spent up to now is      345.7 secs

     total energy              =   -3971.49165619 Ry
     Harris-Foulkes estimate   =   -3971.48936350 Ry
     estimated scf accuracy    <       0.00423485 Ry

     total magnetization       =    -0.00 Bohr mag/cell
     absolute magnetization    =    16.23 Bohr mag/cell

     iteration # 14     ecut=    71.00 Ry     beta= 0.10
     Davidson diagonalization with overlap
     ethr =  1.89E-06,  avg # of iterations =  4.2

     total cpu time spent up to now is      372.5 secs

     total energy              =   -3971.49427072 Ry
     Harris-Foulkes estimate   =   -3971.49284768 Ry
     estimated scf accuracy    <       0.00317440 Ry

     total magnetization       =    -0.00 Bohr mag/cell
     absolute magnetization    =    15.34 Bohr mag/cell

     iteration # 15     ecut=    71.00 Ry     beta= 0.10
     Davidson diagonalization with overlap
     ethr =  1.42E-06,  avg # of iterations =  2.5

     total cpu time spent up to now is      391.6 secs

     total energy              =   -3971.49548783 Ry
     Harris-Foulkes estimate   =   -3971.49448319 Ry
     estimated scf accuracy    <       0.00240248 Ry

     total magnetization       =     0.00 Bohr mag/cell
     absolute magnetization    =    15.04 Bohr mag/cell

     iteration # 16     ecut=    71.00 Ry     beta= 0.10
     Davidson diagonalization with overlap
     ethr =  1.07E-06,  avg # of iterations =  5.3

     total cpu time spent up to now is      428.8 secs

     total energy              =   -3971.49843057 Ry
     Harris-Foulkes estimate   =   -3971.49980801 Ry
     estimated scf accuracy    <       0.00160371 Ry

     total magnetization       =    -0.00 Bohr mag/cell
     absolute magnetization    =    13.29 Bohr mag/cell

     iteration # 17     ecut=    71.00 Ry     beta= 0.10
     Davidson diagonalization with overlap
     ethr =  7.16E-07,  avg # of iterations =  3.0

     total cpu time spent up to now is      450.3 secs

     total energy              =   -3971.49731698 Ry
     Harris-Foulkes estimate   =   -3971.49864659 Ry
     estimated scf accuracy    <       0.00196759 Ry

     total magnetization       =    -0.00 Bohr mag/cell
     absolute magnetization    =    13.68 Bohr mag/cell

     iteration # 18     ecut=    71.00 Ry     beta= 0.10
     Davidson diagonalization with overlap
     ethr =  7.16E-07,  avg # of iterations =  3.3

     total cpu time spent up to now is      472.9 secs

     total energy              =   -3971.49269385 Ry
     Harris-Foulkes estimate   =   -3971.49752700 Ry
     estimated scf accuracy    <       0.00210796 Ry

     total magnetization       =    -0.00 Bohr mag/cell
     absolute magnetization    =    14.05 Bohr mag/cell

     iteration # 19     ecut=    71.00 Ry     beta= 0.10
     Davidson diagonalization with overlap
     ethr =  7.16E-07,  avg # of iterations =  5.8

     total cpu time spent up to now is      516.4 secs

     total energy              =   -3971.50345034 Ry
     Harris-Foulkes estimate   =   -3971.50509694 Ry
     estimated scf accuracy    <       0.00101757 Ry

     total magnetization       =     0.00 Bohr mag/cell
     absolute magnetization    =    10.95 Bohr mag/cell

     iteration # 20     ecut=    71.00 Ry     beta= 0.10
     Davidson diagonalization with overlap
     ethr =  4.54E-07,  avg # of iterations =  5.5

     total cpu time spent up to now is      554.2 secs

     total energy              =   -3971.50182550 Ry
     Harris-Foulkes estimate   =   -3971.50780908 Ry
     estimated scf accuracy    <       0.00051274 Ry

     total magnetization       =     0.00 Bohr mag/cell
     absolute magnetization    =     9.09 Bohr mag/cell

     iteration # 21     ecut=    71.00 Ry     beta= 0.10
     Davidson diagonalization with overlap
     ethr =  2.29E-07,  avg # of iterations =  5.5

     total cpu time spent up to now is      593.0 secs

     total energy              =   -3971.50117195 Ry
     Harris-Foulkes estimate   =   -3971.50539180 Ry
     estimated scf accuracy    <       0.00080821 Ry

     total magnetization       =     0.00 Bohr mag/cell
     absolute magnetization    =    10.76 Bohr mag/cell

     iteration # 22     ecut=    71.00 Ry     beta= 0.10
     Davidson diagonalization with overlap
     ethr =  2.29E-07,  avg # of iterations =  5.3

     total cpu time spent up to now is      629.6 secs

     total energy              =   -3971.48855219 Ry
     Harris-Foulkes estimate   =   -3971.50305536 Ry
     estimated scf accuracy    <       0.00108207 Ry

     total magnetization       =     0.00 Bohr mag/cell
     absolute magnetization    =    11.98 Bohr mag/cell

     iteration # 23     ecut=    71.00 Ry     beta= 0.10
     Davidson diagonalization with overlap
     ethr =  2.29E-07,  avg # of iterations =  5.6

     total cpu time spent up to now is      681.0 secs

     total energy              =   -3971.49301422 Ry
     Harris-Foulkes estimate   =   -3971.50922543 Ry
     estimated scf accuracy    <       0.00115489 Ry

     total magnetization       =     0.01 Bohr mag/cell
     absolute magnetization    =     7.92 Bohr mag/cell

     iteration # 24     ecut=    71.00 Ry     beta= 0.10
     Davidson diagonalization with overlap
     ethr =  2.29E-07,  avg # of iterations =  5.8

     total cpu time spent up to now is      735.6 secs

     total energy              =   -3971.51126083 Ry
     Harris-Foulkes estimate   =   -3971.51170850 Ry
     estimated scf accuracy    <       0.00059125 Ry

     total magnetization       =     0.00 Bohr mag/cell
     absolute magnetization    =     4.00 Bohr mag/cell

     iteration # 25     ecut=    71.00 Ry     beta= 0.10
     Davidson diagonalization with overlap
     ethr =  2.29E-07,  avg # of iterations =  4.5

     total cpu time spent up to now is      767.0 secs

     total energy              =   -3971.51182906 Ry
     Harris-Foulkes estimate   =   -3971.51196963 Ry
     estimated scf accuracy    <       0.00047292 Ry

     total magnetization       =     0.00 Bohr mag/cell
     absolute magnetization    =     3.24 Bohr mag/cell

     iteration # 26     ecut=    71.00 Ry     beta= 0.10
     Davidson diagonalization with overlap
     ethr =  2.11E-07,  avg # of iterations =  4.2

     total cpu time spent up to now is      795.2 secs

     total energy              =   -3971.50936676 Ry
     Harris-Foulkes estimate   =   -3971.51209404 Ry
     estimated scf accuracy    <       0.00021696 Ry

     total magnetization       =     0.00 Bohr mag/cell
     absolute magnetization    =     2.79 Bohr mag/cell

     iteration # 27     ecut=    71.00 Ry     beta= 0.10
     Davidson diagonalization with overlap
     ethr =  9.69E-08,  avg # of iterations =  5.6

     total cpu time spent up to now is      835.7 secs

     total energy              =   -3971.51154100 Ry
     Harris-Foulkes estimate   =   -3971.51167494 Ry
     estimated scf accuracy    <       0.00020979 Ry

     total magnetization       =     0.00 Bohr mag/cell
     absolute magnetization    =     4.17 Bohr mag/cell

     iteration # 28     ecut=    71.00 Ry     beta= 0.10
     Davidson diagonalization with overlap
     ethr =  9.37E-08,  avg # of iterations =  4.0

     total cpu time spent up to now is      861.6 secs

     total energy              =   -3971.50395419 Ry
     Harris-Foulkes estimate   =   -3971.51160065 Ry
     estimated scf accuracy    <       0.00025765 Ry

     total magnetization       =     0.00 Bohr mag/cell
     absolute magnetization    =     4.38 Bohr mag/cell

     iteration # 29     ecut=    71.00 Ry     beta= 0.10
     Davidson diagonalization with overlap
     ethr =  9.37E-08,  avg # of iterations =  6.0

     total cpu time spent up to now is      916.9 secs

     total energy              =   -3971.51000896 Ry
     Harris-Foulkes estimate   =   -3971.51229739 Ry
     estimated scf accuracy    <       0.00002332 Ry

     total magnetization       =     0.00 Bohr mag/cell
     absolute magnetization    =     1.77 Bohr mag/cell

     iteration # 30     ecut=    71.00 Ry     beta= 0.10
     Davidson diagonalization with overlap
     ethr =  1.04E-08,  avg # of iterations =  6.3

     total cpu time spent up to now is      973.4 secs

     total energy              =   -3971.51199635 Ry
     Harris-Foulkes estimate   =   -3971.51241556 Ry
     estimated scf accuracy    <       0.00001006 Ry

     total magnetization       =     0.00 Bohr mag/cell
     absolute magnetization    =     0.35 Bohr mag/cell

     iteration # 31     ecut=    71.00 Ry     beta= 0.10
     Davidson diagonalization with overlap
     ethr =  4.49E-09,  avg # of iterations =  6.2

     total cpu time spent up to now is     1030.4 secs

     total energy              =   -3971.51241435 Ry
     Harris-Foulkes estimate   =   -3971.51241886 Ry
     estimated scf accuracy    <       0.00000745 Ry

     total magnetization       =     0.00 Bohr mag/cell
     absolute magnetization    =     0.24 Bohr mag/cell

     iteration # 32     ecut=    71.00 Ry     beta= 0.10
     Davidson diagonalization with overlap
     ethr =  3.32E-09,  avg # of iterations =  4.0

     total cpu time spent up to now is     1058.9 secs

     total energy              =   -3971.51232407 Ry
     Harris-Foulkes estimate   =   -3971.51241705 Ry
     estimated scf accuracy    <       0.00000232 Ry

     total magnetization       =     0.00 Bohr mag/cell
     absolute magnetization    =     0.27 Bohr mag/cell

     iteration # 33     ecut=    71.00 Ry     beta= 0.10
     Davidson diagonalization with overlap
     ethr =  1.04E-09,  avg # of iterations =  5.9

     total cpu time spent up to now is     1112.7 secs

     total energy              =   -3971.51228494 Ry
     Harris-Foulkes estimate   =   -3971.51242206 Ry
     estimated scf accuracy    <       0.00000144 Ry

     total magnetization       =     0.00 Bohr mag/cell
     absolute magnetization    =     0.01 Bohr mag/cell

     iteration # 34     ecut=    71.00 Ry     beta= 0.10
     Davidson diagonalization with overlap
     ethr =  6.42E-10,  avg # of iterations =  6.2
 
     Magnetic moment per site:
     atom:    1    charge:   12.1861    magn:    0.0204    constr:    0.0000
     atom:    2    charge:   12.1860    magn:   -0.0198    constr:    0.0000
     atom:    3    charge:   12.1862    magn:    0.0199    constr:    0.0000
     atom:    4    charge:   12.1860    magn:   -0.0198    constr:    0.0000
     atom:    5    charge:   12.1862    magn:    0.0199    constr:    0.0000
     atom:    6    charge:   12.1860    magn:   -0.0198    constr:    0.0000
     atom:    7    charge:   12.1862    magn:    0.0197    constr:    0.0000
     atom:    8    charge:   12.1860    magn:   -0.0198    constr:    0.0000
     atom:    9    charge:   12.1862    magn:    0.0199    constr:    0.0000
     atom:   10    charge:   12.1860    magn:   -0.0198    constr:    0.0000
     atom:   11    charge:   12.1862    magn:    0.0197    constr:    0.0000
     atom:   12    charge:   12.1860    magn:   -0.0198    constr:    0.0000
     atom:   13    charge:   12.1862    magn:    0.0197    constr:    0.0000
     atom:   14    charge:   12.1860    magn:   -0.0198    constr:    0.0000
     atom:   15    charge:   12.1860    magn:    0.0199    constr:    0.0000
     atom:   16    charge:   12.1860    magn:   -0.0198    constr:    0.0000

     total cpu time spent up to now is     1169.7 secs

     End of self-consistent calculation

 ------ SPIN UP ------------


          k = 0.0564 0.0564 0.0564 ( 11960 PWs)   bands (ev):

   -51.2580 -51.0506 -51.0506 -51.0506 -51.0190 -51.0190 -51.0190 -51.0077
   -51.0077 -51.0077 -50.9988 -50.9970 -50.9970 -50.9970 -50.9771 -50.8366
   -23.0043 -23.0043 -23.0043 -22.9990 -22.9990 -22.9990 -22.6662 -22.6662
   -22.6545 -22.5581 -22.5533 -22.5533 -22.5533 -22.5128 -22.5128 -22.4882
   -22.4882 -22.4882 -22.4174 -22.4174 -22.3724 -22.3225 -22.3225 -22.3224
   -22.3024 -22.3024 -22.3024 -22.2800 -22.2800 -22.2800 -22.2578 -22.2578
   -22.2577 -22.2546 -22.2546 -22.2546 -22.2368 -22.2367 -22.2367 -21.9477
   -21.9477 -21.9477 -21.9449 -21.9419 -21.9419 -21.9418 -21.9328 -21.9328
    12.6518  15.9861  15.9861  15.9861  16.0065  16.0066  16.0066  16.0596
    16.0596  16.3854  16.3855  16.3855  16.8015  16.8015  16.8015  18.0224
    18.0473  18.0473  18.0473  18.0643  18.0643  18.0643  18.1361  18.1361
    18.3243  18.3243  18.3929  18.4387  18.4387  18.4387  18.9266  18.9266
    18.9267  19.6926  19.6926  19.7519  20.0628  20.0629  20.0629  20.1868
    20.1868  20.1868  20.2969  20.2969  20.2969  20.4139  20.4139  20.4139
    21.3557  21.3557  21.3558  21.4675  21.4675  21.4676  21.6687  21.6687
    21.6687  21.7283  21.7284  21.7284  21.8912  21.8912  21.8912  21.8980
    21.8980  21.9598  21.9598  21.9598  22.2825  22.2826

          k = 0.0564 0.0564 0.1691 ( 11985 PWs)   bands (ev):

   -51.2506 -51.0861 -51.0488 -51.0488 -51.0212 -51.0212 -51.0178 -51.0069
   -51.0069 -51.0000 -50.9974 -50.9974 -50.9958 -50.9783 -50.9744 -50.8419
   -22.9891 -22.9890 -22.9878 -22.9830 -22.9737 -22.9737 -22.6740 -22.6546
   -22.6368 -22.6259 -22.6071 -22.6071 -22.6042 -22.6022 -22.5458 -22.5458
   -22.4833 -22.4277 -22.4157 -22.3853 -22.3640 -22.3272 -22.3221 -22.3221
   -22.3020 -22.2925 -22.2840 -22.2840 -22.2699 -22.2566 -22.2566 -22.2554
   -22.2554 -22.2531 -22.2531 -22.1931 -22.1909 -22.1909 -22.1763 -21.9736
   -21.9642 -21.9641 -21.9622 -21.9575 -21.9474 -21.9474 -21.9427 -21.9373
    12.7938  15.8309  16.0232  16.0232  16.0853  16.0853  16.1031  16.1224
    16.1335  16.1463  16.4227  16.4228  16.8297  16.8297  17.0311  17.8829
    17.9646  18.0101  18.0275  18.0429  18.0493  18.1085  18.1085  18.1593
    18.1593  18.1862  18.4026  18.4027  18.5716  18.5774  18.8287  18.8287
    19.3873  19.6582  19.6843  19.7971  19.7972  19.8283  19.8826  20.0163
    20.0163  20.0558  20.3966  20.3966  20.5451  20.5451  20.5845  20.7098
    20.8707  20.8707  21.0534  21.1775  21.1775  21.1882  21.3287  21.6466
    21.6466  21.7956  21.8016  21.8016  21.9071  21.9071  21.9168  21.9389
    21.9482  21.9519  21.9519  21.9815  22.2864  22.3098

          k = 0.0564 0.0564 0.2818 ( 12000 PWs)   bands (ev):

   -51.2360 -51.1224 -51.0455 -51.0455 -51.0251 -51.0251 -51.0155 -51.0055
   -51.0055 -51.0023 -50.9983 -50.9983 -50.9936 -50.9805 -50.9422 -50.8523
   -22.9553 -22.9546 -22.9546 -22.9515 -22.9292 -22.9292 -22.7029 -22.6924
   -22.6826 -22.6825 -22.6783 -22.6381 -22.6316 -22.6260 -22.6260 -22.6106
   -22.4533 -22.4467 -22.4255 -22.4143 -22.3330 -22.3182 -22.3182 -22.3158
   -22.2926 -22.2904 -22.2904 -22.2553 -22.2553 -22.2550 -22.2550 -22.2409
   -22.2257 -22.1911 -22.1911 -22.1341 -22.1329 -22.1329 -22.1186 -22.0217
   -21.9913 -21.9913 -21.9911 -21.9884 -21.9640 -21.9640 -21.9634 -21.9546
    13.0720  15.2056  16.1100  16.1100  16.2173  16.2174  16.2801  16.3087
    16.3281  16.3447  16.4586  16.4586  16.8302  16.8302  17.0703  17.5223
    17.7009  17.7767  17.9391  17.9932  18.0063  18.0173  18.2454  18.2454
    18.3294  18.3294  18.4353  18.4354  18.7831  18.7831  18.8771  18.8974
    19.4388  19.4388  19.6337  19.6356  19.6356  19.6592  19.6718  19.7539
    19.9408  20.1606  20.2275  20.2275  20.4764  20.4765  20.7161  20.7161
    20.7276  20.7654  20.7654  20.7686  20.7776  20.9286  21.0667  21.5957
    21.6618  21.6618  21.7951  21.7951  21.9653  21.9863  22.0177  22.0325
    22.0325  22.2557  22.2694  22.2856  22.2936  22.3262

          k = 0.0564 0.0564 0.3945 ( 12003 PWs)   bands (ev):

   -51.2149 -51.1570 -51.0410 -51.0409 -51.0302 -51.0301 -51.0124 -51.0054
   -51.0036 -51.0036 -50.9997 -50.9997 -50.9905 -50.9836 -50.9132 -50.8679
   -22.9077 -22.9056 -22.9030 -22.9029 -22.8682 -22.8682 -22.7786 -22.7740
   -22.7621 -22.7621 -22.7117 -22.7116 -22.6792 -22.6616 -22.5979 -22.5757
   -22.5037 -22.4818 -22.4192 -22.3882 -22.3468 -22.3223 -22.3125 -22.3125
   -22.2977 -22.2977 -22.2547 -22.2547 -22.2544 -22.2544 -22.2478 -22.1617
   -22.1528 -22.1301 -22.1301 -22.0864 -22.0803 -22.0774 -22.0774 -22.0663
   -22.0335 -22.0334 -22.0285 -22.0285 -21.9938 -21.9915 -21.9915 -21.9828
    13.4748  14.5731  16.2298  16.2298  16.3899  16.3899  16.4406  16.4407
    16.4970  16.5239  16.6420  16.6541  16.7430  16.7430  16.9587  17.1244
    17.3916  17.4126  17.9140  17.9409  17.9544  17.9657  18.4522  18.4522
    18.5672  18.5673  18.6390  18.6391  18.8788  18.8789  19.1174  19.1174
    19.2567  19.2568  19.2622  19.2824  19.6106  19.6106  19.6225  19.6624
    19.6729  19.6786  19.8263  19.8263  20.0923  20.2177  20.2256  20.5099
    20.5400  21.0141  21.0141  21.0533  21.0533  21.3078  21.3235  21.4740
    21.4781  21.4781  21.6122  21.6122  22.0314  22.0465  22.1296  22.1854
    22.1972  22.1988  22.3029  22.3217  22.3404  22.3470

          k = 0.0564 0.0564-0.5072 ( 12030 PWs)   bands (ev):

   -51.1883 -51.1881 -51.0358 -51.0358 -51.0355 -51.0355 -51.0091 -51.0087
   -51.0017 -51.0017 -51.0014 -51.0014 -50.9872 -50.9869 -50.8884 -50.8882
   -22.8473 -22.8471 -22.8467 -22.8465 -22.8374 -22.8374 -22.8374 -22.8374
   -22.7944 -22.7944 -22.7943 -22.7943 -22.6748 -22.6746 -22.5550 -22.5547
   -22.5324 -22.5322 -22.3830 -22.3827 -22.3561 -22.3558 -22.3055 -22.3055
   -22.3053 -22.3053 -22.2545 -22.2545 -22.2542 -22.2542 -22.1635 -22.1633
   -22.0920 -22.0917 -22.0879 -22.0877 -22.0752 -22.0751 -22.0751 -22.0751
   -22.0332 -22.0330 -22.0298 -22.0297 -22.0297 -22.0297 -22.0205 -22.0204
    13.9838  13.9841  16.3537  16.3537  16.3538  16.3538  16.5788  16.5788
    16.5789  16.5789  16.7567  16.7568  16.7801  16.7803  17.0143  17.0145
    17.0208  17.0211  17.9234  17.9235  17.9367  17.9369  18.7155  18.7155
    18.7155  18.7155  18.8351  18.8351  18.8351  18.8352  19.1069  19.1070
    19.1071  19.1071  19.3048  19.3049  19.3050  19.3050  19.6323  19.6324
    19.6640  19.6642  19.7148  19.7149  19.7265  19.7266  20.2828  20.2830
    20.9473  20.9475  21.2586  21.2586  21.2586  21.2586  21.3602  21.3602
    21.3602  21.3602  21.7553  21.7554  21.9149  21.9151  22.1076  22.1078
    22.1194  22.1197  22.2691  22.2693  22.3126  22.3128

          k = 0.0564 0.1691 0.1691 ( 11996 PWs)   bands (ev):

   -51.2433 -51.0832 -51.0832 -51.0471 -51.0285 -51.0199 -51.0199 -51.0061
   -51.0013 -50.9963 -50.9963 -50.9926 -50.9794 -50.9747 -50.9747 -50.8469
   -22.9843 -22.9732 -22.9732 -22.9593 -22.9592 -22.9384 -22.6873 -22.6688
   -22.6532 -22.6532 -22.6481 -22.6415 -22.6315 -22.6087 -22.5840 -22.5017
   -22.4742 -22.4742 -22.4079 -22.3838 -22.3837 -22.3341 -22.3142 -22.3142
   -22.2990 -22.2981 -22.2981 -22.2904 -22.2687 -22.2687 -22.2645 -22.2492
   -22.2441 -22.2122 -22.1952 -22.1951 -22.1553 -22.1327 -22.1327 -22.0124
   -21.9912 -21.9755 -21.9755 -21.9618 -21.9618 -21.9515 -21.9415 -21.9330
    12.9334  15.8880  15.8880  16.0076  16.1412  16.1412  16.1969  16.1997
    16.1997  16.2096  16.2289  16.4721  16.8746  17.0639  17.0639  17.7548
    17.8959  17.9697  17.9697  18.0851  18.0851  18.1172  18.1306  18.1306
    18.1352  18.2752  18.2872  18.3411  18.5675  18.5952  18.7133  19.1958
    19.1959  19.5792  19.6320  19.6320  19.6623  19.6929  19.8638  19.9561
    20.2865  20.2865  20.3502  20.3502  20.3901  20.4928  20.6266  20.6953
    20.6954  20.7641  20.7641  20.9074  20.9074  21.0391  21.3446  21.3446
    21.6531  21.7789  21.8309  21.8309  21.8718  21.9089  21.9100  21.9100
    21.9256  22.1336  22.2446  22.2528  22.2528  22.2887

          k = 0.0564 0.1691 0.2818 ( 11997 PWs)   bands (ev):

   -51.2291 -51.1185 -51.0777 -51.0438 -51.0387 -51.0237 -51.0175 -51.0047
   -51.0037 -50.9972 -50.9941 -50.9872 -50.9816 -50.9756 -50.9436 -50.8570
   -22.9601 -22.9419 -22.9407 -22.9311 -22.9177 -22.8848 -22.7236 -22.7234
   -22.7011 -22.6988 -22.6986 -22.6856 -22.6465 -22.6259 -22.5737 -22.5571
   -22.4789 -22.4442 -22.3986 -22.3965 -22.3763 -22.3711 -22.3379 -22.3245
   -22.3166 -22.3069 -22.2910 -22.2690 -22.2679 -22.2507 -22.2314 -22.2206
   -22.1987 -22.1885 -22.1613 -22.1375 -22.1102 -22.0796 -22.0787 -22.0692
   -22.0278 -21.9983 -21.9975 -21.9903 -21.9749 -21.9714 -21.9468 -21.9398
    13.2067  15.2853  15.9756  16.0271  16.2280  16.3303  16.3501  16.3543
    16.3676  16.3929  16.4182  16.5302  16.9044  17.0544  17.1139  17.5578
    17.6169  17.7333  18.0269  18.0446  18.0675  18.0820  18.1496  18.2113
    18.2374  18.2837  18.3254  18.4887  18.6243  18.7621  18.8227  19.0638
    19.3080  19.4232  19.4437  19.5050  19.5274  19.5848  19.6360  19.8414
    19.8895  20.1134  20.1185  20.2977  20.3734  20.4677  20.4682  20.4721
    20.6084  20.7224  20.7519  20.8202  20.8555  21.0529  21.0557  21.4817
    21.6269  21.6949  21.7320  21.7987  21.8426  21.8888  21.9429  21.9682
    22.1737  22.2325  22.2458  22.2737  22.3193  22.3365

          k = 0.0564 0.1691 0.3945 ( 11992 PWs)   bands (ev):

   -51.2085 -51.1521 -51.0698 -51.0496 -51.0393 -51.0287 -51.0143 -51.0069
   -51.0027 -50.9987 -50.9912 -50.9845 -50.9827 -50.9770 -50.9156 -50.8719
   -22.9186 -22.8966 -22.8925 -22.8907 -22.8611 -22.8156 -22.7958 -22.7829
   -22.7714 -22.7657 -22.7194 -22.7101 -22.7047 -22.6466 -22.5929 -22.5327
   -22.5003 -22.4422 -22.4329 -22.3788 -22.3650 -22.3601 -22.3344 -22.3342
   -22.3198 -22.3170 -22.3065 -22.2699 -22.2682 -22.2203 -22.2040 -22.1864
   -22.1498 -22.1399 -22.1296 -22.1111 -22.0851 -22.0732 -22.0659 -22.0324
   -22.0319 -22.0310 -22.0305 -22.0277 -22.0008 -21.9969 -21.9634 -21.9593
    13.6017  14.6729  16.0500  16.0607  16.3460  16.5012  16.5358  16.5465
    16.5525  16.6146  16.6827  16.7189  16.8412  16.9402  17.0078  17.1864
    17.3896  17.4339  17.9607  17.9989  18.0254  18.0298  18.3362  18.3927
    18.4102  18.4594  18.4804  18.6382  18.7536  18.9183  19.1003  19.1598
    19.1743  19.2140  19.2898  19.2927  19.4430  19.4530  19.4839  19.5432
    19.5572  19.6067  19.7132  19.8771  19.9705  19.9826  20.3101  20.7398
    20.7808  20.9809  20.9827  21.0584  21.0667  21.0900  21.3041  21.3779
    21.4155  21.5152  21.6141  21.6733  21.8400  21.9692  22.0044  22.0825
    22.1293  22.1532  22.1672  22.2541  22.3175  22.3233

          k = 0.0564 0.1691-0.5072 ( 11998 PWs)   bands (ev):

   -51.1826 -51.1824 -51.0604 -51.0601 -51.0342 -51.0339 -51.0108 -51.0105
   -51.0008 -51.0005 -50.9880 -50.9877 -50.9795 -50.9792 -50.8917 -50.8915
   -22.8626 -22.8626 -22.8404 -22.8401 -22.8390 -22.8387 -22.8325 -22.8324
   -22.7933 -22.7932 -22.7348 -22.7348 -22.7121 -22.7120 -22.5507 -22.5504
   -22.4855 -22.4854 -22.4010 -22.4008 -22.3509 -22.3507 -22.3507 -22.3505
   -22.3268 -22.3266 -22.2693 -22.2691 -22.2208 -22.2207 -22.2112 -22.2110
   -22.1265 -22.1265 -22.0860 -22.0858 -22.0767 -22.0765 -22.0660 -22.0659
   -22.0391 -22.0389 -22.0275 -22.0275 -21.9917 -21.9917 -21.9901 -21.9900
    14.0993  14.0995  16.0777  16.0778  16.4637  16.4638  16.6869  16.6870
    16.7532  16.7533  16.7957  16.7959  16.8737  16.8739  17.0538  17.0540
    17.0645  17.0648  17.9635  17.9637  17.9983  17.9984  18.5840  18.5841
    18.6120  18.6121  18.6450  18.6451  18.7446  18.7447  19.1159  19.1160
    19.1933  19.1934  19.2840  19.2841  19.4182  19.4183  19.4306  19.4307
    19.5158  19.5159  19.5520  19.5521  19.5782  19.5784  20.5309  20.5310
    21.0695  21.0696  21.1336  21.1336  21.2996  21.2996  21.3635  21.3636
    21.3995  21.3996  21.4160  21.4161  21.8253  21.8255  22.0614  22.0617
    22.0828  22.0830  22.2268  22.2270  22.3170  22.3172

          k = 0.0564 0.2818 0.2818 ( 12005 PWs)   bands (ev):

   -51.2156 -51.1109 -51.1109 -51.0549 -51.0406 -51.0212 -51.0212 -51.0063
   -51.0031 -50.9952 -50.9952 -50.9836 -50.9757 -50.9466 -50.9466 -50.8662
   -22.9467 -22.9136 -22.9135 -22.8956 -22.8955 -22.8231 -22.7528 -22.7492
   -22.7491 -22.7306 -22.7287 -22.7262 -22.6849 -22.6055 -22.5297 -22.4802
   -22.4774 -22.4774 -22.4333 -22.4333 -22.3894 -22.3557 -22.3445 -22.3373
   -22.3373 -22.3106 -22.3106 -22.2910 -22.2910 -22.2830 -22.2081 -22.1746
   -22.1447 -22.1447 -22.1445 -22.1358 -22.1228 -22.0797 -22.0724 -22.0318
   -22.0318 -22.0109 -22.0109 -21.9968 -21.9968 -21.9899 -21.9402 -21.9340
    13.4697  15.4262  15.4263  15.9542  16.4534  16.4534  16.4738  16.5175
    16.5443  16.5443  16.5638  16.6341  16.9978  17.1129  17.1129  17.5377
    17.6336  17.7101  17.7101  18.0965  18.1529  18.1530  18.1996  18.2075
    18.2075  18.2182  18.3036  18.4689  18.7050  18.7198  18.8008  19.1743
    19.1744  19.3125  19.3125  19.3343  19.3723  19.3823  19.4414  19.5870
    19.8928  19.8929  19.9805  19.9805  20.1604  20.1975  20.1975  20.3387
    20.8223  20.8223  20.9084  20.9645  21.0167  21.0167  21.2980  21.4292
    21.4292  21.6216  21.7626  21.7626  21.8112  21.8305  21.8305  21.8523
    21.9328  22.1725  22.1793  22.1844  22.3171  22.3354

          k = 0.0564 0.2818 0.3945 ( 11996 PWs)   bands (ev):

   -51.1961 -51.1426 -51.1000 -51.0712 -51.0363 -51.0259 -51.0177 -51.0098
   -51.0011 -50.9968 -50.9925 -50.9863 -50.9657 -50.9511 -50.9206 -50.8801
   -22.9156 -22.8749 -22.8728 -22.8645 -22.8478 -22.8129 -22.7889 -22.7757
   -22.7746 -22.7602 -22.7471 -22.7462 -22.7361 -22.5742 -22.5691 -22.4865
   -22.4807 -22.4564 -22.4168 -22.3945 -22.3767 -22.3738 -22.3712 -22.3660
   -22.3629 -22.3503 -22.3197 -22.2922 -22.2908 -22.2454 -22.2143 -22.1874
   -22.1555 -22.1245 -22.1217 -22.1011 -22.0957 -22.0859 -22.0507 -22.0327
   -22.0294 -22.0293 -22.0172 -22.0087 -21.9919 -21.9917 -21.9455 -21.9411
    13.8479  14.8594  15.5944  15.8689  16.5653  16.6444  16.6958  16.6965
    16.7092  16.7631  16.8001  16.8329  17.0033  17.0212  17.0223  17.3797
    17.3999  17.4360  18.0138  18.0510  18.0884  18.1165  18.1271  18.2470
    18.2940  18.3426  18.4140  18.4399  18.8867  18.8879  18.8916  18.9824
    19.0255  19.1670  19.1827  19.2565  19.2658  19.2784  19.4057  19.4337
    19.4988  19.5303  19.5944  19.6002  19.7452  19.7745  20.5577  20.5829
    21.0032  21.0159  21.1343  21.1446  21.1537  21.1654  21.1715  21.2710
    21.4048  21.4817  21.5938  21.6508  21.6900  21.8228  21.8595  21.8992
    21.9871  22.0075  22.0813  22.0935  22.2135  22.3242

          k = 0.0564 0.2818-0.5072 ( 12024 PWs)   bands (ev):

   -51.1715 -51.1713 -51.0867 -51.0864 -51.0313 -51.0310 -51.0140 -51.0136
   -50.9990 -50.9987 -50.9895 -50.9892 -50.9576 -50.9574 -50.8984 -50.8981
   -22.8699 -22.8699 -22.8283 -22.8281 -22.8269 -22.8267 -22.8245 -22.8244
   -22.7928 -22.7928 -22.7586 -22.7586 -22.6610 -22.6610 -22.5341 -22.5338
   -22.4279 -22.4279 -22.4188 -22.4187 -22.3958 -22.3956 -22.3601 -22.3600
   -22.3494 -22.3492 -22.3005 -22.3005 -22.2932 -22.2930 -22.1826 -22.1826
   -22.1699 -22.1697 -22.0721 -22.0719 -22.0629 -22.0628 -22.0545 -22.0545
   -22.0530 -22.0527 -22.0267 -22.0267 -21.9629 -21.9629 -21.9609 -21.9608
    14.3206  14.3208  15.7500  15.7502  16.6648  16.6649  16.8423  16.8425
    16.8715  16.8716  16.8829  16.8830  17.0769  17.0771  17.1152  17.1153
    17.1462  17.1464  18.0429  18.0430  18.0808  18.0809  18.3691  18.3693
    18.4010  18.4012  18.4233  18.4235  18.6395  18.6395  19.1832  19.1834
    19.1925  19.1926  19.1952  19.1952  19.2141  19.2142  19.2758  19.2759
    19.3755  19.3755  19.4254  19.4255  19.4721  19.4722  20.8468  20.8469
    20.9659  20.9659  21.0434  21.0435  21.2586  21.2587  21.3913  21.3914
    21.4167  21.4168  21.4647  21.4647  21.6068  21.6069  21.9715  21.9717
    21.9924  21.9926  22.1498  22.1501  22.1970  22.1971

          k = 0.0564 0.3945 0.3945 ( 12032 PWs)   bands (ev):

   -51.1781 -51.1290 -51.1290 -51.0924 -51.0321 -51.0223 -51.0222 -51.0137
   -50.9989 -50.9943 -50.9943 -50.9887 -50.9506 -50.9280 -50.9280 -50.8922
   -22.8956 -22.8463 -22.8463 -22.8309 -22.8309 -22.8144 -22.8144 -22.7991
   -22.7915 -22.7913 -22.7782 -22.7617 -22.6661 -22.5455 -22.4830 -22.4830
   -22.4652 -22.4652 -22.4511 -22.4251 -22.4064 -22.3898 -22.3898 -22.3850
   -22.3648 -22.3204 -22.3204 -22.3080 -22.3053 -22.3053 -22.2994 -22.1810
   -22.1579 -22.1116 -22.1116 -22.0878 -22.0737 -22.0634 -22.0416 -22.0379
   -22.0370 -22.0370 -22.0282 -22.0282 -21.9619 -21.9619 -21.9387 -21.9354
    14.1981  15.1071  15.1072  15.6417  16.7654  16.8272  16.8516  16.8566
    16.8566  16.9789  16.9789  16.9941  16.9942  17.0575  17.1337  17.3651
    17.3795  17.6857  17.6857  18.0998  18.1301  18.1316  18.1886  18.1887
    18.2040  18.2040  18.2756  18.4798  18.5377  18.8086  18.9113  18.9114
    18.9222  19.0763  19.1049  19.1548  19.2247  19.2247  19.2490  19.2491
    19.3348  19.3390  19.3390  19.4523  19.5356  20.1217  20.1217  20.8760
    20.9547  21.0483  21.1270  21.1270  21.2962  21.2962  21.3263  21.3394
    21.5061  21.5062  21.5340  21.6640  21.6723  21.7092  21.7093  21.7367
    21.7367  21.9730  21.9734  21.9830  22.1029  22.2277

          k = 0.0564 0.3945-0.5072 ( 12012 PWs)   bands (ev):

   -51.1556 -51.1553 -51.1121 -51.1119 -51.0274 -51.0271 -51.0181 -51.0178
   -50.9967 -50.9964 -50.9916 -50.9913 -50.9382 -50.9379 -50.9084 -50.9081
   -22.8607 -22.8607 -22.8174 -22.8172 -22.8166 -22.8165 -22.8133 -22.8131
   -22.8019 -22.8019 -22.7949 -22.7948 -22.5762 -22.5762 -22.5089 -22.5087
   -22.4383 -22.4381 -22.4264 -22.4263 -22.3951 -22.3951 -22.3939 -22.3938
   -22.3619 -22.3619 -22.3463 -22.3462 -22.3176 -22.3175 -22.2420 -22.2420
   -22.1326 -22.1323 -22.0734 -22.0732 -22.0555 -22.0554 -22.0512 -22.0511
   -22.0468 -22.0467 -22.0304 -22.0304 -21.9441 -21.9440 -21.9426 -21.9426
    14.6286  14.6288  15.3801  15.3803  16.8938  16.8939  16.9088  16.9089
    16.9288  16.9290  17.1118  17.1118  17.1574  17.1575  17.2371  17.2373
    17.3610  17.3612  18.0641  18.0643  18.1164  18.1165  18.1230  18.1231
    18.1738  18.1740  18.2390  18.2392  18.6976  18.6976  18.9615  18.9616
    18.9840  18.9840  19.0372  19.0373  19.0478  19.0478  19.0976  19.0976
    19.3808  19.3808  19.3887  19.3888  19.7075  19.7075  20.5186  20.5186
    21.0426  21.0426  21.1850  21.1850  21.3584  21.3585  21.4509  21.4510
    21.5293  21.5294  21.5344  21.5345  21.5356  21.5358  21.8432  21.8434
    21.8558  21.8560  21.8773  21.8774  22.0618  22.0620

          k = 0.0564-0.5072-0.5072 ( 12012 PWs)   bands (ev):

   -51.1355 -51.1354 -51.1352 -51.1351 -51.0229 -51.0227 -51.0225 -51.0224
   -50.9942 -50.9941 -50.9939 -50.9938 -50.9217 -50.9216 -50.9215 -50.9214
   -22.8370 -22.8370 -22.8370 -22.8370 -22.8133 -22.8132 -22.8131 -22.8130
   -22.8018 -22.8017 -22.8016 -22.8016 -22.4852 -22.4852 -22.4852 -22.4852
   -22.4764 -22.4763 -22.4762 -22.4761 -22.4181 -22.4181 -22.4181 -22.4181
   -22.3363 -22.3363 -22.3363 -22.3363 -22.3030 -22.3030 -22.3030 -22.3030
   -22.1002 -22.1001 -22.0999 -22.0998 -22.0461 -22.0460 -22.0460 -22.0459
   -22.0400 -22.0399 -22.0399 -22.0398 -21.9370 -21.9370 -21.9370 -21.9370
    14.9939  14.9940  14.9941  14.9943  16.9303  16.9303  16.9304  16.9305
    17.1016  17.1016  17.1017  17.1017  17.2561  17.2561  17.2562  17.2562
    17.7000  17.7001  17.7002  17.7003  18.1014  18.1015  18.1015  18.1016
    18.1540  18.1540  18.1541  18.1541  18.8148  18.8148  18.8148  18.8148
    18.9147  18.9148  18.9148  18.9148  19.0071  19.0072  19.0072  19.0072
    19.3570  19.3570  19.3571  19.3571  20.0931  20.0931  20.0931  20.0931
    21.1536  21.1536  21.1537  21.1537  21.5208  21.5209  21.5209  21.5209
    21.5722  21.5722  21.5723  21.5723  21.6890  21.6890  21.6891  21.6892
    21.6938  21.6939  21.6940  21.6941  22.0307  22.0307

          k = 0.1691 0.1691 0.1691 ( 12005 PWs)   bands (ev):

   -51.2362 -51.0804 -51.0804 -51.0804 -51.0270 -51.0269 -51.0269 -51.0031
   -50.9917 -50.9917 -50.9917 -50.9801 -50.9751 -50.9750 -50.9750 -50.8518
   -22.9681 -22.9681 -22.9680 -22.9266 -22.9266 -22.9266 -22.7063 -22.6837
   -22.6837 -22.6837 -22.6752 -22.6752 -22.5913 -22.5913 -22.5730 -22.5150
   -22.5150 -22.5150 -22.3987 -22.3987 -22.3987 -22.3192 -22.3192 -22.3170
   -22.3170 -22.3170 -22.2692 -22.2692 -22.2692 -22.2540 -22.2540 -22.2540
   -22.2011 -22.2011 -22.2011 -22.2007 -22.1032 -22.1031 -22.1031 -22.0515
   -21.9975 -21.9974 -21.9974 -21.9569 -21.9569 -21.9568 -21.9437 -21.9437
    13.0710  15.9534  15.9535  15.9535  16.1291  16.1291  16.1291  16.2977
    16.2977  16.3085  16.3085  16.3085  17.1193  17.1193  17.1193  17.6462
    17.9474  17.9474  17.9475  18.0154  18.0154  18.1118  18.1118  18.1119
    18.2464  18.2464  18.2464  18.4674  18.4889  18.4889  19.0209  19.0209
    19.0209  19.5404  19.5404  19.5404  19.5603  19.5603  20.0551  20.0551
    20.0551  20.0990  20.2730  20.2730  20.2731  20.4889  20.4889  20.4890
    20.7213  20.7214  20.7214  20.8609  20.8609  20.8609  21.5960  21.5960
    21.5960  21.7015  21.7015  21.7015  21.8264  21.8264  21.9133  21.9133
    21.9133  22.2494  22.2494  22.2494  22.2900  22.2900

          k = 0.1691 0.1691 0.2818 ( 11991 PWs)   bands (ev):

   -51.2224 -51.1147 -51.0750 -51.0750 -51.0368 -51.0368 -51.0240 -51.0063
   -50.9901 -50.9866 -50.9866 -50.9814 -50.9758 -50.9758 -50.9450 -50.8614
   -22.9447 -22.9447 -22.9360 -22.9036 -22.8766 -22.8765 -22.7465 -22.7350
   -22.7350 -22.7113 -22.6987 -22.6776 -22.6514 -22.5814 -22.5814 -22.5463
   -22.5317 -22.4617 -22.4364 -22.4018 -22.4018 -22.3505 -22.3387 -22.3387
   -22.3322 -22.3261 -22.2715 -22.2398 -22.2398 -22.2344 -22.2146 -22.2146
   -22.2066 -22.2065 -22.1514 -22.1405 -22.1106 -22.0641 -22.0641 -22.0556
   -22.0277 -22.0277 -22.0115 -21.9869 -21.9647 -21.9606 -21.9606 -21.9448
    13.3401  15.3704  16.0570  16.0570  16.1511  16.1511  16.3632  16.4339
    16.4623  16.4643  16.4643  16.5202  17.1461  17.1461  17.1877  17.5474
    17.5628  17.8649  17.9643  17.9986  17.9986  18.0708  18.1782  18.2084
    18.2085  18.2953  18.4236  18.4236  18.5777  18.7559  18.8639  18.8639
    19.2287  19.3190  19.3190  19.4240  19.4581  19.5255  19.7365  19.7365
    19.7667  19.7668  20.0489  20.2250  20.2250  20.2544  20.2889  20.2954
    20.6291  20.7773  20.7773  20.9718  20.9718  21.1756  21.3078  21.5473
    21.5473  21.6664  21.7891  21.8343  21.8343  21.8757  21.9162  21.9403
    21.9420  21.9420  22.2261  22.2399  22.2579  22.2914

          k = 0.1691 0.1691 0.3945 ( 11996 PWs)   bands (ev):

   -51.2023 -51.1473 -51.0673 -51.0673 -51.0475 -51.0475 -51.0200 -51.0106
   -50.9880 -50.9833 -50.9824 -50.9824 -50.9771 -50.9771 -50.9180 -50.8758
   -22.9056 -22.9056 -22.8892 -22.8714 -22.8124 -22.8124 -22.7950 -22.7950
   -22.7892 -22.7580 -22.7249 -22.7163 -22.6589 -22.6589 -22.6169 -22.5204
   -22.4969 -22.4864 -22.3947 -22.3941 -22.3941 -22.3857 -22.3601 -22.3601
   -22.3481 -22.3290 -22.2932 -22.2284 -22.2284 -22.2124 -22.2124 -22.1831
   -22.1601 -22.1601 -22.1565 -22.1053 -22.0849 -22.0651 -22.0651 -22.0339
   -22.0311 -22.0269 -22.0269 -22.0143 -21.9960 -21.9737 -21.9736 -21.9576
    13.7283  14.7757  16.1508  16.1509  16.1839  16.1839  16.6344  16.6564
    16.6564  16.6788  16.6913  16.8068  17.0495  17.0495  17.0997  17.2072
    17.3894  17.4986  17.9559  18.0224  18.1074  18.1248  18.2285  18.2286
    18.3669  18.3670  18.6251  18.6251  18.7482  18.7483  18.8946  19.0673
    19.1683  19.1683  19.2776  19.2776  19.3488  19.3582  19.3825  19.4029
    19.4029  19.4792  19.6981  19.6982  19.7463  19.7626  20.5078  20.6096
    20.8774  21.0225  21.0931  21.0931  21.1063  21.1063  21.3868  21.3868
    21.4280  21.4397  21.5528  21.6636  21.6637  21.9009  21.9989  22.0400
    22.1339  22.1591  22.2583  22.2583  22.2684  22.2873

          k = 0.1691 0.1691-0.5072 ( 12030 PWs)   bands (ev):

   -51.1771 -51.1768 -51.0580 -51.0580 -51.0578 -51.0577 -51.0155 -51.0152
   -50.9857 -50.9855 -50.9794 -50.9794 -50.9791 -50.9791 -50.8949 -50.8947
   -22.8542 -22.8542 -22.8542 -22.8542 -22.8323 -22.8321 -22.8293 -22.8290
   -22.7381 -22.7381 -22.7381 -22.7380 -22.7258 -22.7257 -22.5728 -22.5726
   -22.4450 -22.4448 -22.4369 -22.4368 -22.3796 -22.3796 -22.3794 -22.3794
   -22.3144 -22.3142 -22.2648 -22.2648 -22.2195 -22.2195 -22.2193 -22.2193
   -22.1097 -22.1097 -22.1097 -22.1097 -22.0885 -22.0882 -22.0655 -22.0653
   -22.0366 -22.0363 -21.9960 -21.9960 -21.9960 -21.9960 -21.9812 -21.9812
    14.2159  14.2161  16.1938  16.1938  16.1939  16.1940  16.8641  16.8641
    16.8642  16.8642  16.8944  16.8946  16.9090  16.9091  17.0838  17.0840
    17.1224  17.1226  17.9795  17.9796  18.0709  18.0710  18.5669  18.5669
    18.5669  18.5670  18.5700  18.5700  18.5702  18.5703  19.1326  19.1326
    19.1327  19.1327  19.3001  19.3002  19.3055  19.3055  19.3056  19.3056
    19.3461  19.3461  19.4064  19.4065  19.4229  19.4231  20.7528  20.7529
    20.9956  20.9957  21.1656  21.1658  21.2330  21.2330  21.2330  21.2330
    21.4124  21.4124  21.4125  21.4125  21.9719  21.9721  22.0208  22.0210
    22.0754  22.0757  22.1897  22.1899  22.2788  22.2790

          k = 0.1691 0.2818 0.2818 ( 11995 PWs)   bands (ev):

   -51.2092 -51.1072 -51.1072 -51.0697 -51.0525 -51.0333 -51.0333 -51.0109
   -50.9856 -50.9856 -50.9815 -50.9763 -50.9756 -50.9478 -50.9478 -50.8703
   -22.9309 -22.9145 -22.9144 -22.8611 -22.8611 -22.8192 -22.7686 -22.7596
   -22.7558 -22.7558 -22.7134 -22.6945 -22.6466 -22.6254 -22.5666 -22.5051
   -22.5051 -22.4839 -22.4642 -22.4642 -22.4238 -22.3782 -22.3782 -22.3719
   -22.3040 -22.2696 -22.2696 -22.2549 -22.2549 -22.2162 -22.2137 -22.2016
   -22.1739 -22.1693 -22.1471 -22.1470 -22.1147 -22.0647 -22.0425 -22.0303
   -22.0303 -22.0238 -22.0238 -21.9880 -21.9880 -21.9779 -21.9550 -21.9453
    13.6004  15.5219  15.5220  16.0830  16.1928  16.3899  16.3899  16.5661
    16.6225  16.6270  16.6714  16.6714  17.2253  17.2253  17.2628  17.5044
    17.6747  17.6747  17.7983  17.9393  18.0384  18.1576  18.1577  18.2742
    18.3166  18.3166  18.3434  18.4407  18.6233  18.6786  18.7236  19.0249
    19.0249  19.1999  19.2393  19.2393  19.3335  19.3404  19.4480  19.5097
    19.6181  19.6181  19.8347  19.8347  19.9091  19.9267  19.9268  20.5207
    20.9008  20.9009  20.9528  21.1215  21.2097  21.2097  21.3980  21.4256
    21.6638  21.6638  21.6683  21.6684  21.6748  21.8131  21.8607  21.8607
    21.8792  22.1833  22.1840  22.1946  22.2001  22.2730

          k = 0.1691 0.2818 0.3945 ( 12001 PWs)   bands (ev):

   -51.1902 -51.1381 -51.0966 -51.0684 -51.0623 -51.0434 -51.0284 -51.0166
   -50.9843 -50.9820 -50.9818 -50.9774 -50.9660 -50.9521 -50.9227 -50.8836
   -22.9010 -22.8805 -22.8708 -22.8402 -22.8079 -22.8069 -22.7962 -22.7918
   -22.7616 -22.7529 -22.7485 -22.7367 -22.6827 -22.6166 -22.5856 -22.5329
   -22.5224 -22.4526 -22.4336 -22.4306 -22.4283 -22.4219 -22.4035 -22.4035
   -22.3243 -22.2981 -22.2725 -22.2501 -22.2424 -22.2247 -22.2124 -22.1909
   -22.1576 -22.1402 -22.1259 -22.1085 -22.0928 -22.0823 -22.0557 -22.0395
   -22.0283 -22.0217 -22.0067 -21.9942 -21.9941 -21.9904 -21.9586 -21.9504
    13.9739  14.9683  15.7040  15.9981  16.3299  16.4195  16.7242  16.7404
    16.8074  16.8502  16.8617  16.9461  17.1393  17.1397  17.2399  17.3780
    17.4263  17.5215  17.9677  18.0232  18.0620  18.0976  18.2062  18.2087
    18.2923  18.4038  18.4356  18.5561  18.6360  18.7756  18.8075  18.9053
    18.9676  19.0656  19.1013  19.1562  19.2158  19.2254  19.2430  19.2698
    19.3791  19.3983  19.4022  19.4071  19.5325  19.5595  20.1949  20.7815
    20.9720  21.0970  21.1976  21.2037  21.2040  21.2633  21.2809  21.3682
    21.5271  21.5300  21.5353  21.6946  21.6952  21.8081  21.9249  21.9718
    22.0420  22.0884  22.1069  22.2020  22.2707  22.2712

          k = 0.1691 0.2818-0.5072 ( 12010 PWs)   bands (ev):

   -51.1662 -51.1660 -51.0836 -51.0833 -51.0535 -51.0532 -51.0228 -51.0225
   -50.9831 -50.9828 -50.9792 -50.9790 -50.9583 -50.9580 -50.9013 -50.9010
   -22.8586 -22.8586 -22.8390 -22.8390 -22.8165 -22.8163 -22.8155 -22.8152
   -22.7543 -22.7543 -22.7455 -22.7454 -22.6690 -22.6690 -22.5741 -22.5739
   -22.4824 -22.4823 -22.4314 -22.4312 -22.4224 -22.4223 -22.3823 -22.3822
   -22.3324 -22.3324 -22.2883 -22.2881 -22.2329 -22.2327 -22.1726 -22.1724
   -22.1579 -22.1578 -22.0876 -22.0875 -22.0800 -22.0798 -22.0567 -22.0566
   -22.0457 -22.0454 -22.0052 -22.0052 -21.9719 -21.9719 -21.9656 -21.9656
    14.4396  14.4398  15.8724  15.8726  16.4104  16.4106  16.9475  16.9477
    16.9868  16.9869  17.0687  17.0688  17.1079  17.1081  17.1209  17.1212
    17.2297  17.2298  18.0451  18.0453  18.1471  18.1471  18.3334  18.3336
    18.3703  18.3705  18.4416  18.4417  18.5880  18.5880  18.9895  18.9895
    19.0963  19.0964  19.1066  19.1067  19.1470  19.1471  19.1564  19.1565
    19.2180  19.2180  19.2571  19.2572  19.3068  19.3069  20.5501  20.5501
    21.0648  21.0648  21.2155  21.2155  21.3262  21.3264  21.3967  21.3967
    21.4660  21.4661  21.4766  21.4767  21.9015  21.9016  21.9564  21.9566
    22.0118  22.0120  22.1219  22.1221  22.2461  22.2463

          k = 0.1691 0.3945 0.3945 ( 12004 PWs)   bands (ev):

   -51.1726 -51.1248 -51.1248 -51.0891 -51.0554 -51.0377 -51.0377 -51.0236
   -50.9814 -50.9813 -50.9811 -50.9780 -50.9515 -50.9298 -50.9298 -50.8953
   -22.8805 -22.8458 -22.8458 -22.8054 -22.8054 -22.8040 -22.8008 -22.8008
   -22.7932 -22.7699 -22.7648 -22.7168 -22.6728 -22.5928 -22.5333 -22.5077
   -22.5077 -22.5028 -22.5028 -22.4575 -22.4541 -22.4541 -22.4442 -22.3802
   -22.3283 -22.2835 -22.2665 -22.2665 -22.2581 -22.2581 -22.2368 -22.1594
   -22.1557 -22.1083 -22.1082 -22.1039 -22.0945 -22.0642 -22.0508 -22.0508
   -22.0314 -22.0240 -22.0240 -22.0190 -21.9693 -21.9692 -21.9527 -21.9475
    14.3228  15.2243  15.2243  15.7720  16.5353  16.7425  16.7425  16.8668
    16.9416  17.1007  17.1109  17.1110  17.1262  17.1262  17.3943  17.4007
    17.4566  17.6863  17.6863  17.9694  18.0987  18.1852  18.2071  18.2071
    18.2512  18.2512  18.4083  18.4725  18.5015  18.5431  18.8500  18.8599
    18.8600  18.9244  19.0544  19.0544  19.0651  19.0983  19.0984  19.1192
    19.1230  19.1754  19.1755  19.2952  19.3300  19.7939  19.7940  20.5233
    21.0867  21.2427  21.3401  21.3401  21.3790  21.4055  21.4055  21.4331
    21.5834  21.6885  21.7004  21.7005  21.7458  21.7458  21.7769  21.7770
    21.9459  21.9993  22.0080  22.0132  22.1040  22.2169

          k = 0.1691 0.3945-0.5072 ( 12000 PWs)   bands (ev):

   -51.1506 -51.1504 -51.1083 -51.1081 -51.0471 -51.0468 -51.0311 -51.0308
   -50.9811 -50.9808 -50.9793 -50.9791 -50.9395 -50.9393 -50.9109 -50.9106
   -22.8471 -22.8471 -22.8213 -22.8212 -22.8060 -22.8058 -22.7959 -22.7958
   -22.7899 -22.7898 -22.7580 -22.7579 -22.5894 -22.5894 -22.5549 -22.5547
   -22.5017 -22.5017 -22.4797 -22.4795 -22.4655 -22.4655 -22.4177 -22.4177
   -22.3212 -22.3212 -22.2721 -22.2721 -22.2473 -22.2472 -22.2102 -22.2102
   -22.1303 -22.1301 -22.0690 -22.0689 -22.0659 -22.0656 -22.0621 -22.0619
   -22.0533 -22.0532 -22.0203 -22.0202 -21.9562 -21.9561 -21.9534 -21.9534
    14.7505  14.7508  15.5055  15.5057  16.6891  16.6893  17.0025  17.0026
    17.0451  17.0452  17.1030  17.1031  17.3147  17.3148  17.3664  17.3665
    17.3902  17.3904  18.0646  18.0648  18.1182  18.1184  18.1374  18.1375
    18.1470  18.1470  18.3122  18.3123  18.6559  18.6559  18.7369  18.7370
    18.8768  18.8769  18.9413  18.9413  18.9529  18.9529  19.0139  19.0139
    19.1985  19.1986  19.2239  19.2240  19.4317  19.4317  20.1206  20.1206
    21.2903  21.2903  21.3996  21.3996  21.5065  21.5066  21.5591  21.5592
    21.5782  21.5783  21.5838  21.5839  21.6906  21.6907  21.8656  21.8658
    21.8887  21.8889  22.0445  22.0447  22.0923  22.0924

          k = 0.1691-0.5072-0.5072 ( 12000 PWs)   bands (ev):

   -51.1311 -51.1310 -51.1308 -51.1307 -51.0395 -51.0394 -51.0392 -51.0391
   -50.9799 -50.9798 -50.9797 -50.9796 -50.9237 -50.9236 -50.9235 -50.9234
   -22.8229 -22.8229 -22.8229 -22.8229 -22.8080 -22.8079 -22.8078 -22.8078
   -22.7755 -22.7754 -22.7754 -22.7753 -22.5221 -22.5220 -22.5219 -22.5218
   -22.5035 -22.5035 -22.5035 -22.5035 -22.4953 -22.4953 -22.4953 -22.4953
   -22.2651 -22.2651 -22.2651 -22.2650 -22.2602 -22.2602 -22.2602 -22.2602
   -22.0945 -22.0944 -22.0943 -22.0942 -22.0573 -22.0573 -22.0572 -22.0572
   -22.0402 -22.0401 -22.0401 -22.0400 -21.9500 -21.9500 -21.9500 -21.9500
    15.1186  15.1187  15.1188  15.1190  16.9535  16.9536  16.9536  16.9537
    17.0435  17.0435  17.0436  17.0437  17.4496  17.4497  17.4497  17.4498
    17.7218  17.7219  17.7220  17.7221  18.0527  18.0528  18.0528  18.0529
    18.2170  18.2171  18.2171  18.2172  18.7087  18.7088  18.7088  18.7089
    18.7741  18.7741  18.7742  18.7742  18.9302  18.9303  18.9303  18.9303
    19.1830  19.1830  19.1831  19.1831  19.7394  19.7394  19.7394  19.7394
    21.4612  21.4612  21.4613  21.4613  21.5876  21.5877  21.5878  21.5878
    21.7355  21.7355  21.7356  21.7357  21.7405  21.7406  21.7407  21.7407
    21.7773  21.7773  21.7773  21.7774  22.0221  22.0222

          k = 0.2818 0.2818 0.2818 ( 11983 PWs)   bands (ev):

   -51.1967 -51.1001 -51.1001 -51.1001 -51.0481 -51.0481 -51.0481 -51.0180
   -50.9790 -50.9755 -50.9754 -50.9754 -50.9503 -50.9502 -50.9502 -50.8785
   -22.8998 -22.8998 -22.8998 -22.8120 -22.8120 -22.8120 -22.7788 -22.7725
   -22.7725 -22.7725 -22.6884 -22.6884 -22.6502 -22.6502 -22.5543 -22.5543
   -22.5543 -22.4900 -22.4900 -22.4899 -22.4321 -22.4191 -22.4190 -22.4190
   -22.2349 -22.2227 -22.2227 -22.2226 -22.2223 -22.2223 -22.2192 -22.2192
   -22.2192 -22.1525 -22.1525 -22.1525 -22.0884 -22.0560 -22.0560 -22.0560
   -22.0113 -22.0112 -22.0112 -21.9840 -21.9840 -21.9839 -21.9675 -21.9675
    13.8546  15.6948  15.6949  15.6949  16.3323  16.3324  16.3324  16.7378
    16.7378  16.8329  16.8329  16.8329  17.3926  17.3926  17.3926  17.5132
    17.6513  17.6513  17.6514  18.0229  18.0229  18.0589  18.2215  18.2215
    18.2215  18.4671  18.4671  18.4671  18.5203  18.5203  18.8468  18.8468
    18.8468  19.0866  19.0867  19.0867  19.2359  19.2359  19.2360  19.2804
    19.2804  19.5230  19.5231  19.5231  19.5958  19.5958  19.5959  20.7805
    20.9559  21.0786  21.0786  21.0787  21.3706  21.3706  21.3706  21.5655
    21.5656  21.5656  21.7749  21.7749  21.8487  21.8487  21.8487  22.0030
    22.0030  22.0031  22.1915  22.1915  22.1916  22.1981

          k = 0.2818 0.2818 0.3945 ( 12003 PWs)   bands (ev):

   -51.1786 -51.1293 -51.0900 -51.0900 -51.0632 -51.0631 -51.0418 -51.0261
   -50.9771 -50.9755 -50.9667 -50.9667 -50.9541 -50.9541 -50.9269 -50.8908
   -22.8725 -22.8725 -22.8546 -22.8034 -22.8011 -22.8011 -22.7867 -22.7697
   -22.7519 -22.7519 -22.7278 -22.7252 -22.6525 -22.6169 -22.6169 -22.5971
   -22.5515 -22.4962 -22.4962 -22.4767 -22.4750 -22.4554 -22.4553 -22.3800
   -22.3085 -22.2710 -22.2341 -22.2319 -22.1964 -22.1963 -22.1703 -22.1703
   -22.1618 -22.1618 -22.1474 -22.0942 -22.0878 -22.0878 -22.0681 -22.0520
   -22.0266 -22.0004 -21.9991 -21.9991 -21.9874 -21.9845 -21.9845 -21.9649
    14.2179  15.1730  15.9067  15.9068  16.2475  16.2475  16.6855  16.9060
    16.9615  17.0176  17.0176  17.1034  17.3588  17.3638  17.3638  17.3733
    17.5059  17.5866  17.8745  17.8746  18.0442  18.1565  18.2955  18.3057
    18.3368  18.3395  18.3395  18.5652  18.5652  18.6747  18.6747  18.7167
    18.8973  18.8973  18.9648  18.9649  18.9831  19.0332  19.0928  19.1014
    19.1400  19.1980  19.1985  19.1985  19.2799  19.2799  19.7810  20.4968
    21.0754  21.2545  21.3093  21.3093  21.4393  21.4393  21.4955  21.4955
    21.6266  21.6956  21.7151  21.7393  21.7393  21.7599  21.9106  21.9174
    22.1027  22.1110  22.1971  22.1971  22.1992  22.2041

          k = 0.2818 0.2818-0.5072 ( 11990 PWs)   bands (ev):

   -51.1559 -51.1557 -51.0775 -51.0775 -51.0773 -51.0773 -51.0344 -51.0342
   -50.9761 -50.9758 -50.9597 -50.9597 -50.9594 -50.9594 -50.9071 -50.9069
   -22.8372 -22.8372 -22.8371 -22.8371 -22.7966 -22.7964 -22.7948 -22.7947
   -22.7532 -22.7531 -22.6848 -22.6848 -22.6848 -22.6848 -22.6064 -22.6061
   -22.5379 -22.5378 -22.4829 -22.4829 -22.4828 -22.4828 -22.3933 -22.3933
   -22.3231 -22.3230 -22.2369 -22.2368 -22.1764 -22.1764 -22.1762 -22.1762
   -22.1261 -22.1261 -22.1260 -22.1260 -22.0816 -22.0814 -22.0557 -22.0556
   -22.0432 -22.0429 -21.9897 -21.9896 -21.9896 -21.9896 -21.9717 -21.9717
    14.6676  14.6679  16.1049  16.1049  16.1050  16.1051  17.1160  17.1162
    17.1207  17.1209  17.1909  17.1910  17.2051  17.2051  17.2052  17.2052
    17.3680  17.3682  18.0928  18.0929  18.2138  18.2139  18.2545  18.2546
    18.2547  18.2548  18.4990  18.4990  18.4991  18.4991  18.6968  18.6969
    18.9141  18.9142  18.9919  18.9920  18.9920  18.9920  19.0085  19.0085
    19.0085  19.0085  19.0526  19.0527  19.0984  19.0986  20.0914  20.0914
    21.3909  21.3909  21.4464  21.4466  21.4613  21.4613  21.4613  21.4613
    21.5433  21.5433  21.5434  21.5435  21.9479  21.9481  22.0073  22.0075
    22.0702  22.0704  22.0751  22.0752  22.2040  22.2042

          k = 0.2818 0.3945 0.3945 ( 12026 PWs)   bands (ev):

   -51.1620 -51.1166 -51.1166 -51.0827 -51.0805 -51.0557 -51.0557 -51.0364
   -50.9730 -50.9679 -50.9679 -50.9573 -50.9533 -50.9334 -50.9334 -50.9015
   -22.8509 -22.8316 -22.8315 -22.7995 -22.7907 -22.7907 -22.7772 -22.7579
   -22.7579 -22.7386 -22.7346 -22.6862 -22.6593 -22.6481 -22.6130 -22.5569
   -22.5569 -22.5416 -22.5416 -22.5277 -22.5151 -22.5150 -22.5017 -22.3848
   -22.3217 -22.2186 -22.2185 -22.2059 -22.2011 -22.2010 -22.1689 -22.1573
   -22.1307 -22.1258 -22.1202 -22.1048 -22.1048 -22.0710 -22.0710 -22.0609
   -22.0223 -22.0223 -22.0178 -22.0066 -21.9832 -21.9831 -21.9803 -21.9714
    14.5634  15.4461  15.4462  16.0237  16.1654  16.5975  16.5975  17.0567
    17.1596  17.1846  17.2939  17.2939  17.3352  17.3353  17.4084  17.5978
    17.6085  17.6810  17.6810  17.7969  18.1285  18.2515  18.2522  18.2608
    18.2608  18.3357  18.3357  18.4358  18.4558  18.5338  18.6225  18.7720
    18.7720  18.7838  18.8080  18.8081  18.8106  18.8319  18.8320  18.9372
    18.9372  18.9909  19.0137  19.0220  19.0833  19.3928  19.3928  20.0446
    21.4062  21.4467  21.4468  21.4749  21.5207  21.6137  21.6785  21.6967
    21.6968  21.7274  21.7274  21.7433  21.8227  21.8227  21.8915  22.0372
    22.0744  22.0744  22.0759  22.1040  22.1816  22.1934

          k = 0.2818 0.3945-0.5072 ( 12006 PWs)   bands (ev):

   -51.1411 -51.1408 -51.1009 -51.1007 -51.0690 -51.0687 -51.0467 -51.0464
   -50.9701 -50.9698 -50.9620 -50.9618 -50.9423 -50.9421 -50.9159 -50.9157
   -22.8211 -22.8211 -22.8100 -22.8099 -22.7818 -22.7815 -22.7678 -22.7677
   -22.7668 -22.7667 -22.7081 -22.7080 -22.6143 -22.6143 -22.6095 -22.6092
   -22.5726 -22.5725 -22.5379 -22.5377 -22.5346 -22.5345 -22.4624 -22.4624
   -22.2695 -22.2694 -22.2030 -22.2029 -22.1807 -22.1806 -22.1698 -22.1698
   -22.1262 -22.1260 -22.0974 -22.0973 -22.0699 -22.0697 -22.0617 -22.0616
   -22.0559 -22.0556 -22.0150 -22.0149 -21.9799 -21.9799 -21.9744 -21.9744
    14.9845  14.9848  15.7458  15.7460  16.4181  16.4182  17.0114  17.0116
    17.2070  17.2072  17.2683  17.2684  17.4464  17.4466  17.4937  17.4937
    17.5482  17.5483  18.0596  18.0598  18.0833  18.0835  18.1842  18.1843
    18.1874  18.1875  18.3952  18.3953  18.4917  18.4917  18.5810  18.5811
    18.7033  18.7034  18.7141  18.7142  18.8275  18.8276  18.8642  18.8642
    18.9234  18.9235  18.9917  18.9918  19.0616  19.0617  19.6592  19.6592
    21.5856  21.5857  21.6042  21.6042  21.6315  21.6316  21.6586  21.6588
    21.6958  21.6958  21.7592  21.7593  21.9280  21.9282  21.9339  21.9341
    22.0109  22.0112  22.0137  22.0139  22.1064  22.1066

          k = 0.2818-0.5072-0.5072 ( 12004 PWs)   bands (ev):

   -51.1225 -51.1224 -51.1223 -51.1222 -51.0585 -51.0584 -51.0582 -51.0581
   -50.9655 -50.9654 -50.9652 -50.9651 -50.9277 -50.9276 -50.9275 -50.9274
   -22.7950 -22.7950 -22.7950 -22.7950 -22.7866 -22.7866 -22.7865 -22.7864
   -22.7365 -22.7364 -22.7363 -22.7363 -22.5827 -22.5826 -22.5825 -22.5824
   -22.5704 -22.5704 -22.5704 -22.5704 -22.5382 -22.5382 -22.5381 -22.5381
   -22.2179 -22.2179 -22.2178 -22.2178 -22.1873 -22.1873 -22.1873 -22.1873
   -22.0851 -22.0850 -22.0849 -22.0848 -22.0756 -22.0756 -22.0755 -22.0755
   -22.0445 -22.0445 -22.0444 -22.0443 -21.9757 -21.9757 -21.9757 -21.9757
    15.3579  15.3581  15.3582  15.3583  16.7534  16.7536  16.7536  16.7537
    17.2597  17.2597  17.2598  17.2599  17.6917  17.6918  17.6918  17.6918
    17.7627  17.7628  17.7629  17.7630  18.0010  18.0010  18.0011  18.0012
    18.2954  18.2955  18.2955  18.2955  18.5064  18.5065  18.5065  18.5066
    18.6994  18.6994  18.6994  18.6994  18.7051  18.7051  18.7052  18.7052
    18.9288  18.9288  18.9289  18.9289  19.2979  19.2979  19.2979  19.2979
    21.6708  21.6709  21.6710  21.6711  21.7971  21.7972  21.7973  21.7974
    21.8100  21.8101  21.8101  21.8101  21.8619  21.8619  21.8620  21.8620
    22.0026  22.0027  22.0028  22.0029  22.1440  22.1440

          k = 0.3945 0.3945 0.3945 ( 11974 PWs)   bands (ev):

   -51.1466 -51.1049 -51.1049 -51.1049 -51.0736 -51.0735 -51.0735 -51.0497
   -50.9660 -50.9562 -50.9562 -50.9562 -50.9390 -50.9389 -50.9389 -50.9109
   -22.8078 -22.8078 -22.8077 -22.7791 -22.7790 -22.7790 -22.7546 -22.7057
   -22.7057 -22.7057 -22.7002 -22.7002 -22.6868 -22.6868 -22.5930 -22.5930
   -22.5930 -22.5920 -22.5920 -22.5920 -22.5659 -22.5658 -22.5658 -22.4490
   -22.2692 -22.1725 -22.1725 -22.1725 -22.1537 -22.1537 -22.1537 -22.1347
   -22.1347 -22.1065 -22.1065 -22.1065 -22.0980 -22.0980 -22.0980 -22.0649
   -22.0203 -22.0203 -22.0203 -22.0065 -22.0065 -22.0001 -22.0000 -22.0000
    14.9019  15.7457  15.7457  15.7457  16.3772  16.3772  16.3772  17.1984
    17.3045  17.3045  17.4565  17.4565  17.4565  17.6211  17.6211  17.6211
    17.6830  17.6830  17.6830  17.7757  18.1863  18.1863  18.3207  18.3207
    18.3523  18.3523  18.3523  18.4259  18.4259  18.4260  18.4848  18.4848
    18.4848  18.6566  18.6566  18.6567  18.6751  18.6752  18.6752  18.7225
    18.7226  18.7226  18.8916  18.8916  19.0137  19.0137  19.0137  19.5919
    21.5910  21.5910  21.5911  21.7707  21.7996  21.7996  21.7996  21.8109
    21.8109  21.8325  21.8325  21.8325  21.8759  21.8759  21.8759  22.0659
    22.0659  22.0994  22.0994  22.0994  22.1223  22.1223

          k = 0.3945 0.3945-0.5072 ( 11986 PWs)   bands (ev):

   -51.1274 -51.1271 -51.0904 -51.0904 -51.0901 -51.0901 -51.0624 -51.0622
   -50.9605 -50.9603 -50.9467 -50.9467 -50.9464 -50.9464 -50.9235 -50.9233
   -22.7851 -22.7851 -22.7850 -22.7850 -22.7527 -22.7524 -22.7453 -22.7452
   -22.7296 -22.7295 -22.6513 -22.6511 -22.6486 -22.6486 -22.6486 -22.6486
   -22.6294 -22.6293 -22.5967 -22.5967 -22.5966 -22.5966 -22.5202 -22.5202
   -22.2189 -22.2189 -22.1464 -22.1462 -22.1319 -22.1319 -22.1318 -22.1318
   -22.1211 -22.1211 -22.1210 -22.1210 -22.0774 -22.0773 -22.0725 -22.0723
   -22.0521 -22.0519 -22.0140 -22.0139 -22.0139 -22.0139 -22.0003 -22.0002
    15.3093  15.3095  16.0767  16.0768  16.0769  16.0770  16.7955  16.7957
    17.4531  17.4533  17.5501  17.5503  17.5790  17.5790  17.5791  17.5791
    17.7628  17.7629  18.0330  18.0330  18.0332  18.0332  18.2269  18.2269
    18.2646  18.2647  18.3756  18.3756  18.3805  18.3807  18.4879  18.4879
    18.4880  18.4880  18.6421  18.6421  18.6422  18.6422  18.7011  18.7011
    18.7011  18.7011  18.7623  18.7624  18.7773  18.7775  19.2202  19.2202
    21.7077  21.7079  21.7399  21.7399  21.7401  21.7401  21.8842  21.8842
    21.8842  21.8842  21.9444  21.9446  21.9656  21.9658  22.0374  22.0375
    22.0870  22.0872  22.0894  22.0894  22.0896  22.0896

          k = 0.3945-0.5072-0.5072 ( 11964 PWs)   bands (ev):

   -51.1102 -51.1101 -51.1100 -51.1099 -51.0774 -51.0772 -51.0771 -51.0770
   -50.9527 -50.9526 -50.9525 -50.9524 -50.9338 -50.9337 -50.9336 -50.9335
   -22.7541 -22.7541 -22.7541 -22.7541 -22.7506 -22.7506 -22.7505 -22.7504
   -22.6886 -22.6885 -22.6885 -22.6885 -22.6447 -22.6446 -22.6445 -22.6444
   -22.6400 -22.6400 -22.6400 -22.6400 -22.5842 -22.5842 -22.5841 -22.5841
   -22.1726 -22.1726 -22.1725 -22.1725 -22.1206 -22.1206 -22.1206 -22.1206
   -22.1008 -22.1008 -22.1008 -22.1007 -22.0736 -22.0735 -22.0734 -22.0734
   -22.0520 -22.0519 -22.0518 -22.0518 -22.0134 -22.0134 -22.0134 -22.0134
    15.6897  15.6899  15.6900  15.6901  16.4531  16.4532  16.4533  16.4534
    17.5562  17.5563  17.5564  17.5565  17.8178  17.8178  17.8179  17.8180
    17.9430  17.9431  17.9432  17.9432  17.9474  17.9475  17.9475  17.9476
    18.3894  18.3895  18.3895  18.3895  18.4229  18.4230  18.4231  18.4231
    18.4260  18.4261  18.4261  18.4262  18.6018  18.6019  18.6019  18.6019
    18.6796  18.6796  18.6797  18.6797  18.8612  18.8612  18.8612  18.8612
    21.7855  21.7856  21.7857  21.7857  21.8631  21.8632  21.8633  21.8634
    21.9699  21.9700  21.9702  21.9702  22.0603  22.0604  22.0604  22.0605
    22.0687  22.0688  22.0689  22.0689  22.1100  22.1100

          k =-0.5072-0.5072-0.5072 ( 11992 PWs)   bands (ev):

   -51.0950 -51.0949 -51.0949 -51.0948 -51.0947 -51.0946 -51.0946 -51.0945
   -50.9422 -50.9421 -50.9421 -50.9420 -50.9420 -50.9419 -50.9419 -50.9418
   -22.7020 -22.7020 -22.7020 -22.7020 -22.7020 -22.7019 -22.7019 -22.7019
   -22.7019 -22.7018 -22.7018 -22.7018 -22.7018 -22.7018 -22.7017 -22.7017
   -22.6364 -22.6364 -22.6364 -22.6363 -22.6363 -22.6363 -22.6363 -22.6363
   -22.1330 -22.1330 -22.1330 -22.1330 -22.1330 -22.1329 -22.1329 -22.1329
   -22.0625 -22.0625 -22.0624 -22.0624 -22.0624 -22.0624 -22.0624 -22.0623
   -22.0623 -22.0623 -22.0622 -22.0622 -22.0622 -22.0622 -22.0622 -22.0622
    16.0750  16.0751  16.0751  16.0752  16.0752  16.0753  16.0754  16.0755
    17.8801  17.8801  17.8802  17.8802  17.8802  17.8802  17.8803  17.8803
    17.8803  17.8803  17.8804  17.8804  17.8804  17.8804  17.8805  17.8805
    18.4837  18.4837  18.4837  18.4838  18.4838  18.4838  18.4838  18.4838
    18.4944  18.4945  18.4945  18.4945  18.4945  18.4945  18.4945  18.4945
    18.4946  18.4946  18.4946  18.4946  18.4946  18.4947  18.4947  18.4947
    21.9227  21.9227  21.9228  21.9228  21.9228  21.9229  21.9229  21.9229
    21.9229  21.9230  21.9230  21.9230  21.9230  21.9231  21.9231  21.9231
    22.3316  22.3316  22.3317  22.3317  22.3317  22.3317

 ------ SPIN DOWN ----------


          k = 0.0564 0.0564 0.0564 ( 11960 PWs)   bands (ev):

   -51.2579 -51.0504 -51.0504 -51.0503 -51.0188 -51.0188 -51.0188 -51.0078
   -51.0078 -51.0075 -50.9986 -50.9972 -50.9972 -50.9968 -50.9771 -50.8365
   -23.0042 -23.0042 -23.0042 -22.9990 -22.9990 -22.9989 -22.6661 -22.6661
   -22.6544 -22.5580 -22.5532 -22.5532 -22.5532 -22.5127 -22.5127 -22.4882
   -22.4881 -22.4881 -22.4174 -22.4174 -22.3723 -22.3223 -22.3223 -22.3223
   -22.3023 -22.3023 -22.3023 -22.2799 -22.2798 -22.2798 -22.2578 -22.2578
   -22.2578 -22.2546 -22.2545 -22.2545 -22.2367 -22.2367 -22.2366 -21.9476
   -21.9476 -21.9476 -21.9449 -21.9418 -21.9417 -21.9417 -21.9327 -21.9327
    12.6517  15.9861  15.9861  15.9861  16.0066  16.0066  16.0066  16.0596
    16.0596  16.3854  16.3855  16.3855  16.8015  16.8015  16.8015  18.0224
    18.0473  18.0473  18.0473  18.0643  18.0643  18.0644  18.1361  18.1361
    18.3243  18.3243  18.3929  18.4387  18.4388  18.4388  18.9267  18.9267
    18.9267  19.6926  19.6926  19.7519  20.0629  20.0629  20.0630  20.1868
    20.1869  20.1869  20.2969  20.2969  20.2969  20.4139  20.4140  20.4140
    21.3558  21.3558  21.3558  21.4676  21.4676  21.4676  21.6687  21.6687
    21.6688  21.7283  21.7283  21.7283  21.8913  21.8913  21.8913  21.8981
    21.8981  21.9599  21.9599  21.9599  22.2827  22.2827

          k = 0.0564 0.0564 0.1691 ( 11985 PWs)   bands (ev):

   -51.2505 -51.0860 -51.0487 -51.0486 -51.0210 -51.0209 -51.0176 -51.0070
   -51.0068 -50.9998 -50.9976 -50.9974 -50.9959 -50.9783 -50.9743 -50.8418
   -22.9890 -22.9889 -22.9877 -22.9829 -22.9736 -22.9736 -22.6739 -22.6545
   -22.6367 -22.6258 -22.6070 -22.6070 -22.6041 -22.6021 -22.5458 -22.5457
   -22.4832 -22.4277 -22.4156 -22.3852 -22.3639 -22.3272 -22.3220 -22.3219
   -22.3019 -22.2923 -22.2838 -22.2838 -22.2700 -22.2566 -22.2566 -22.2554
   -22.2554 -22.2530 -22.2530 -22.1930 -22.1909 -22.1908 -22.1762 -21.9735
   -21.9641 -21.9640 -21.9621 -21.9574 -21.9473 -21.9473 -21.9426 -21.9372
    12.7938  15.8309  16.0232  16.0232  16.0853  16.0853  16.1032  16.1224
    16.1336  16.1464  16.4227  16.4227  16.8297  16.8297  17.0311  17.8829
    17.9646  18.0102  18.0275  18.0429  18.0493  18.1085  18.1085  18.1593
    18.1594  18.1862  18.4027  18.4027  18.5716  18.5774  18.8287  18.8288
    19.3873  19.6583  19.6843  19.7971  19.7972  19.8284  19.8827  20.0163
    20.0163  20.0559  20.3967  20.3967  20.5452  20.5452  20.5846  20.7098
    20.8707  20.8707  21.0534  21.1775  21.1775  21.1882  21.3286  21.6466
    21.6466  21.7957  21.8017  21.8018  21.9071  21.9072  21.9169  21.9390
    21.9483  21.9519  21.9519  21.9816  22.2866  22.3100

          k = 0.0564 0.0564 0.2818 ( 12000 PWs)   bands (ev):

   -51.2359 -51.1223 -51.0454 -51.0453 -51.0249 -51.0249 -51.0153 -51.0056
   -51.0054 -51.0021 -50.9984 -50.9982 -50.9936 -50.9806 -50.9421 -50.8522
   -22.9552 -22.9545 -22.9545 -22.9515 -22.9291 -22.9291 -22.7028 -22.6923
   -22.6825 -22.6824 -22.6782 -22.6380 -22.6315 -22.6259 -22.6259 -22.6105
   -22.4532 -22.4466 -22.4254 -22.4142 -22.3330 -22.3181 -22.3181 -22.3156
   -22.2927 -22.2902 -22.2902 -22.2552 -22.2552 -22.2550 -22.2550 -22.2408
   -22.2256 -22.1910 -22.1910 -22.1340 -22.1329 -22.1328 -22.1185 -22.0216
   -21.9913 -21.9912 -21.9910 -21.9883 -21.9639 -21.9638 -21.9633 -21.9545
    13.0719  15.2055  16.1100  16.1100  16.2173  16.2174  16.2802  16.3087
    16.3281  16.3447  16.4585  16.4586  16.8302  16.8302  17.0703  17.5224
    17.7009  17.7767  17.9392  17.9933  18.0063  18.0173  18.2454  18.2454
    18.3294  18.3294  18.4354  18.4354  18.7831  18.7832  18.8771  18.8974
    19.4388  19.4389  19.6337  19.6356  19.6356  19.6593  19.6718  19.7540
    19.9409  20.1607  20.2275  20.2275  20.4764  20.4764  20.7162  20.7162
    20.7276  20.7655  20.7655  20.7686  20.7776  20.9286  21.0668  21.5958
    21.6619  21.6619  21.7952  21.7953  21.9654  21.9864  22.0179  22.0325
    22.0325  22.2559  22.2694  22.2856  22.2938  22.3262

          k = 0.0564 0.0564 0.3945 ( 12003 PWs)   bands (ev):

   -51.2148 -51.1569 -51.0408 -51.0407 -51.0300 -51.0299 -51.0122 -51.0052
   -51.0037 -51.0035 -50.9998 -50.9996 -50.9906 -50.9836 -50.9131 -50.8678
   -22.9076 -22.9055 -22.9029 -22.9028 -22.8682 -22.8681 -22.7785 -22.7739
   -22.7620 -22.7620 -22.7116 -22.7116 -22.6791 -22.6615 -22.5978 -22.5756
   -22.5036 -22.4817 -22.4190 -22.3882 -22.3466 -22.3224 -22.3124 -22.3124
   -22.2976 -22.2976 -22.2546 -22.2546 -22.2544 -22.2544 -22.2477 -22.1616
   -22.1527 -22.1300 -22.1300 -22.0863 -22.0802 -22.0774 -22.0773 -22.0662
   -22.0334 -22.0333 -22.0284 -22.0284 -21.9937 -21.9914 -21.9914 -21.9827
    13.4747  14.5731  16.2298  16.2298  16.3899  16.3899  16.4406  16.4406
    16.4970  16.5240  16.6420  16.6541  16.7430  16.7430  16.9587  17.1244
    17.3917  17.4126  17.9141  17.9409  17.9544  17.9658  18.4522  18.4523
    18.5673  18.5673  18.6391  18.6391  18.8789  18.8789  19.1174  19.1175
    19.2568  19.2568  19.2622  19.2823  19.6106  19.6106  19.6225  19.6625
    19.6730  19.6786  19.8263  19.8263  20.0924  20.2176  20.2256  20.5100
    20.5400  21.0142  21.0142  21.0533  21.0533  21.3080  21.3235  21.4740
    21.4782  21.4782  21.6123  21.6123  22.0316  22.0466  22.1297  22.1856
    22.1972  22.1988  22.3031  22.3220  22.3404  22.3471

          k = 0.0564 0.0564-0.5072 ( 12030 PWs)   bands (ev):

[...]
    21.5783  21.5783  21.5839  21.5840  21.6906  21.6907  21.8657  21.8659
    21.8889  21.8890  22.0446  22.0448  22.0924  22.0925

          k = 0.1691-0.5072-0.5072 ( 12000 PWs)   bands (ev):

   -51.1310 -51.1309 -51.1308 -51.1306 -51.0393 -51.0392 -51.0391 -51.0390
   -50.9799 -50.9798 -50.9797 -50.9795 -50.9236 -50.9235 -50.9234 -50.9233
   -22.8228 -22.8228 -22.8227 -22.8227 -22.8079 -22.8078 -22.8077 -22.8077
   -22.7754 -22.7753 -22.7753 -22.7752 -22.5220 -22.5219 -22.5218 -22.5217
   -22.5034 -22.5034 -22.5033 -22.5033 -22.4953 -22.4953 -22.4952 -22.4952
   -22.2651 -22.2650 -22.2649 -22.2649 -22.2602 -22.2602 -22.2601 -22.2601
   -22.0944 -22.0943 -22.0943 -22.0941 -22.0572 -22.0572 -22.0572 -22.0571
   -22.0401 -22.0400 -22.0400 -22.0399 -21.9500 -21.9500 -21.9499 -21.9499
    15.1185  15.1187  15.1188  15.1189  16.9534  16.9536  16.9536  16.9537
    17.0435  17.0436  17.0436  17.0438  17.4496  17.4497  17.4497  17.4498
    17.7218  17.7219  17.7220  17.7221  18.0527  18.0528  18.0528  18.0529
    18.2171  18.2171  18.2171  18.2172  18.7088  18.7088  18.7088  18.7089
    18.7741  18.7741  18.7742  18.7742  18.9303  18.9303  18.9303  18.9304
    19.1830  19.1831  19.1831  19.1832  19.7394  19.7394  19.7394  19.7395
    21.4612  21.4613  21.4613  21.4614  21.5877  21.5878  21.5879  21.5879
    21.7356  21.7357  21.7357  21.7358  21.7406  21.7407  21.7407  21.7408
    21.7773  21.7774  21.7774  21.7774  22.0221  22.0223

          k = 0.2818 0.2818 0.2818 ( 11983 PWs)   bands (ev):

   -51.1966 -51.1001 -51.1001 -51.0999 -51.0480 -51.0480 -51.0479 -51.0178
   -50.9790 -50.9755 -50.9755 -50.9752 -50.9503 -50.9503 -50.9500 -50.8785
   -22.8998 -22.8997 -22.8997 -22.8119 -22.8119 -22.8119 -22.7787 -22.7725
   -22.7725 -22.7723 -22.6883 -22.6883 -22.6501 -22.6501 -22.5542 -22.5541
   -22.5541 -22.4899 -22.4898 -22.4898 -22.4320 -22.4190 -22.4190 -22.4189
   -22.2348 -22.2226 -22.2226 -22.2225 -22.2222 -22.2222 -22.2191 -22.2190
   -22.2190 -22.1525 -22.1524 -22.1524 -22.0883 -22.0559 -22.0559 -22.0559
   -22.0112 -22.0112 -22.0110 -21.9839 -21.9838 -21.9838 -21.9674 -21.9674
    13.8545  15.6948  15.6948  15.6948  16.3323  16.3323  16.3323  16.7379
    16.7379  16.8329  16.8330  16.8330  17.3925  17.3926  17.3926  17.5132
    17.6514  17.6514  17.6514  18.0229  18.0229  18.0589  18.2215  18.2215
    18.2215  18.4671  18.4671  18.4672  18.5203  18.5203  18.8468  18.8469
    18.8469  19.0867  19.0867  19.0868  19.2359  19.2359  19.2359  19.2804
    19.2804  19.5231  19.5231  19.5231  19.5959  19.5959  19.5959  20.7805
    20.9559  21.0787  21.0787  21.0787  21.3706  21.3707  21.3707  21.5656
    21.5656  21.5656  21.7750  21.7750  21.8488  21.8489  21.8489  22.0030
    22.0031  22.0031  22.1916  22.1917  22.1917  22.1983

          k = 0.2818 0.2818 0.3945 ( 12003 PWs)   bands (ev):

   -51.1785 -51.1291 -51.0899 -51.0898 -51.0631 -51.0630 -51.0417 -51.0259
   -50.9771 -50.9755 -50.9667 -50.9665 -50.9541 -50.9540 -50.9269 -50.8907
   -22.8724 -22.8724 -22.8545 -22.8034 -22.8010 -22.8010 -22.7866 -22.7696
   -22.7518 -22.7518 -22.7277 -22.7251 -22.6524 -22.6168 -22.6167 -22.5970
   -22.5514 -22.4961 -22.4961 -22.4766 -22.4749 -22.4553 -22.4552 -22.3799
   -22.3085 -22.2709 -22.2340 -22.2318 -22.1963 -22.1963 -22.1702 -22.1702
   -22.1617 -22.1617 -22.1473 -22.0941 -22.0877 -22.0877 -22.0681 -22.0519
   -22.0265 -22.0003 -21.9990 -21.9989 -21.9873 -21.9845 -21.9844 -21.9648
    14.2178  15.1729  15.9067  15.9067  16.2475  16.2475  16.6855  16.9061
    16.9616  17.0176  17.0176  17.1034  17.3588  17.3638  17.3638  17.3733
    17.5059  17.5866  17.8746  17.8746  18.0442  18.1566  18.2956  18.3057
    18.3368  18.3395  18.3395  18.5652  18.5653  18.6747  18.6748  18.7167
    18.8974  18.8974  18.9648  18.9649  18.9832  19.0333  19.0929  19.1014
    19.1401  19.1980  19.1985  19.1985  19.2800  19.2800  19.7811  20.4969
    21.0755  21.2546  21.3094  21.3094  21.4393  21.4393  21.4956  21.4956
    21.6267  21.6956  21.7151  21.7394  21.7394  21.7600  21.9107  21.9175
    22.1029  22.1111  22.1972  22.1972  22.1993  22.2042

          k = 0.2818 0.2818-0.5072 ( 11990 PWs)   bands (ev):

   -51.1558 -51.1556 -51.0774 -51.0773 -51.0772 -51.0771 -51.0343 -51.0340
   -50.9760 -50.9759 -50.9596 -50.9595 -50.9595 -50.9593 -50.9070 -50.9068
   -22.8371 -22.8371 -22.8370 -22.8370 -22.7965 -22.7963 -22.7947 -22.7946
   -22.7531 -22.7530 -22.6847 -22.6847 -22.6847 -22.6846 -22.6063 -22.6061
   -22.5378 -22.5377 -22.4828 -22.4828 -22.4827 -22.4827 -22.3932 -22.3932
   -22.3230 -22.3229 -22.2368 -22.2367 -22.1763 -22.1762 -22.1761 -22.1761
   -22.1260 -22.1260 -22.1260 -22.1259 -22.0815 -22.0813 -22.0556 -22.0555
   -22.0430 -22.0429 -21.9896 -21.9896 -21.9895 -21.9895 -21.9716 -21.9716
    14.6676  14.6678  16.1048  16.1049  16.1050  16.1050  17.1160  17.1162
    17.1207  17.1209  17.1909  17.1911  17.2051  17.2052  17.2052  17.2053
    17.3681  17.3682  18.0928  18.0929  18.2138  18.2139  18.2546  18.2546
    18.2548  18.2548  18.4990  18.4990  18.4991  18.4991  18.6968  18.6969
    18.9141  18.9142  18.9919  18.9920  18.9920  18.9920  19.0085  19.0085
    19.0086  19.0086  19.0527  19.0527  19.0985  19.0986  20.0914  20.0914
    21.3909  21.3910  21.4465  21.4467  21.4613  21.4614  21.4614  21.4614
    21.5434  21.5435  21.5435  21.5436  21.9480  21.9482  22.0074  22.0076
    22.0703  22.0705  22.0752  22.0753  22.2041  22.2043

          k = 0.2818 0.3945 0.3945 ( 12026 PWs)   bands (ev):

   -51.1619 -51.1166 -51.1164 -51.0826 -51.0804 -51.0556 -51.0555 -51.0363
   -50.9730 -50.9680 -50.9678 -50.9573 -50.9532 -50.9334 -50.9333 -50.9015
   -22.8508 -22.8315 -22.8315 -22.7994 -22.7907 -22.7906 -22.7771 -22.7578
   -22.7578 -22.7385 -22.7345 -22.6861 -22.6592 -22.6480 -22.6129 -22.5569
   -22.5568 -22.5416 -22.5415 -22.5276 -22.5150 -22.5149 -22.5016 -22.3847
   -22.3216 -22.2185 -22.2184 -22.2058 -22.2010 -22.2009 -22.1688 -22.1572
   -22.1306 -22.1257 -22.1201 -22.1048 -22.1047 -22.0710 -22.0709 -22.0608
   -22.0222 -22.0222 -22.0177 -22.0065 -21.9831 -21.9830 -21.9802 -21.9713
    14.5634  15.4461  15.4461  16.0237  16.1654  16.5974  16.5975  17.0567
    17.1596  17.1846  17.2939  17.2939  17.3353  17.3353  17.4084  17.5978
    17.6085  17.6810  17.6810  17.7969  18.1286  18.2515  18.2523  18.2608
    18.2608  18.3357  18.3357  18.4358  18.4558  18.5338  18.6225  18.7720
    18.7721  18.7839  18.8081  18.8081  18.8106  18.8319  18.8320  18.9372
    18.9373  18.9909  19.0137  19.0220  19.0833  19.3928  19.3928  20.0446
    21.4062  21.4469  21.4469  21.4750  21.5208  21.6138  21.6787  21.6968
    21.6968  21.7275  21.7275  21.7434  21.8227  21.8228  21.8917  22.0373
    22.0744  22.0745  22.0760  22.1042  22.1818  22.1936

          k = 0.2818 0.3945-0.5072 ( 12006 PWs)   bands (ev):

   -51.1410 -51.1408 -51.1008 -51.1006 -51.0688 -51.0686 -51.0465 -51.0463
   -50.9700 -50.9699 -50.9619 -50.9617 -50.9422 -50.9421 -50.9158 -50.9156
   -22.8210 -22.8210 -22.8099 -22.8098 -22.7816 -22.7815 -22.7677 -22.7677
   -22.7667 -22.7666 -22.7080 -22.7079 -22.6142 -22.6142 -22.6093 -22.6092
   -22.5725 -22.5724 -22.5378 -22.5376 -22.5345 -22.5344 -22.4623 -22.4623
   -22.2694 -22.2694 -22.2029 -22.2029 -22.1806 -22.1806 -22.1698 -22.1697
   -22.1261 -22.1259 -22.0973 -22.0972 -22.0698 -22.0696 -22.0616 -22.0615
   -22.0557 -22.0556 -22.0149 -22.0148 -21.9799 -21.9798 -21.9743 -21.9743
    14.9845  14.9847  15.7457  15.7459  16.4180  16.4182  17.0114  17.0116
    17.2071  17.2073  17.2683  17.2684  17.4464  17.4466  17.4937  17.4938
    17.5482  17.5483  18.0596  18.0598  18.0833  18.0835  18.1843  18.1844
    18.1874  18.1874  18.3952  18.3953  18.4917  18.4918  18.5811  18.5811
    18.7034  18.7035  18.7142  18.7143  18.8276  18.8276  18.8643  18.8643
    18.9234  18.9235  18.9918  18.9918  19.0617  19.0617  19.6592  19.6592
    21.5857  21.5858  21.6043  21.6043  21.6316  21.6317  21.6588  21.6589
    21.6959  21.6959  21.7593  21.7593  21.9282  21.9284  21.9340  21.9341
    22.0111  22.0113  22.0138  22.0139  22.1066  22.1067

          k = 0.2818-0.5072-0.5072 ( 12004 PWs)   bands (ev):

   -51.1224 -51.1223 -51.1222 -51.1221 -51.0584 -51.0583 -51.0581 -51.0580
   -50.9654 -50.9653 -50.9652 -50.9651 -50.9276 -50.9275 -50.9274 -50.9273
   -22.7949 -22.7949 -22.7949 -22.7948 -22.7865 -22.7865 -22.7864 -22.7863
   -22.7364 -22.7363 -22.7363 -22.7362 -22.5826 -22.5825 -22.5824 -22.5823
   -22.5703 -22.5703 -22.5702 -22.5702 -22.5381 -22.5381 -22.5380 -22.5380
   -22.2178 -22.2178 -22.2177 -22.2177 -22.1873 -22.1873 -22.1872 -22.1872
   -22.0850 -22.0849 -22.0848 -22.0847 -22.0755 -22.0755 -22.0755 -22.0754
   -22.0444 -22.0444 -22.0443 -22.0443 -21.9756 -21.9756 -21.9755 -21.9755
    15.3579  15.3580  15.3581  15.3583  16.7534  16.7535  16.7536  16.7537
    17.2597  17.2598  17.2599  17.2600  17.6917  17.6918  17.6918  17.6919
    17.7627  17.7629  17.7629  17.7631  18.0010  18.0011  18.0011  18.0012
    18.2955  18.2955  18.2955  18.2956  18.5064  18.5065  18.5065  18.5066
    18.6994  18.6994  18.6995  18.6995  18.7051  18.7052  18.7052  18.7052
    18.9288  18.9289  18.9289  18.9290  19.2979  19.2979  19.2979  19.2979
    21.6710  21.6710  21.6711  21.6712  21.7972  21.7973  21.7974  21.7975
    21.8101  21.8101  21.8102  21.8102  21.8619  21.8620  21.8620  21.8621
    22.0027  22.0028  22.0029  22.0030  22.1441  22.1441

          k = 0.3945 0.3945 0.3945 ( 11974 PWs)   bands (ev):

   -51.1465 -51.1048 -51.1048 -51.1047 -51.0735 -51.0735 -51.0733 -51.0495
   -50.9659 -50.9562 -50.9562 -50.9560 -50.9390 -50.9390 -50.9387 -50.9108
   -22.8077 -22.8077 -22.8077 -22.7790 -22.7790 -22.7789 -22.7545 -22.7056
   -22.7056 -22.7056 -22.7001 -22.7001 -22.6867 -22.6867 -22.5929 -22.5929
   -22.5929 -22.5920 -22.5919 -22.5919 -22.5658 -22.5658 -22.5657 -22.4489
   -22.2691 -22.1724 -22.1723 -22.1723 -22.1536 -22.1536 -22.1535 -22.1346
   -22.1346 -22.1065 -22.1064 -22.1064 -22.0979 -22.0979 -22.0979 -22.0648
   -22.0203 -22.0202 -22.0202 -22.0064 -22.0064 -22.0000 -22.0000 -21.9999
    14.9019  15.7457  15.7457  15.7457  16.3772  16.3772  16.3772  17.1983
    17.3046  17.3046  17.4565  17.4566  17.4566  17.6211  17.6211  17.6211
    17.6830  17.6830  17.6830  17.7757  18.1864  18.1864  18.3208  18.3208
    18.3523  18.3523  18.3523  18.4259  18.4260  18.4260  18.4848  18.4849
    18.4849  18.6566  18.6567  18.6567  18.6752  18.6752  18.6753  18.7226
    18.7226  18.7227  18.8916  18.8916  19.0137  19.0137  19.0137  19.5920
    21.5911  21.5912  21.5912  21.7708  21.7997  21.7997  21.7997  21.8110
    21.8110  21.8326  21.8327  21.8327  21.8759  21.8760  21.8760  22.0660
    22.0660  22.0995  22.0996  22.0996  22.1224  22.1224

          k = 0.3945 0.3945-0.5072 ( 11986 PWs)   bands (ev):

   -51.1272 -51.1271 -51.0903 -51.0902 -51.0901 -51.0900 -51.0623 -51.0621
   -50.9604 -50.9603 -50.9466 -50.9465 -50.9465 -50.9463 -50.9234 -50.9233
   -22.7850 -22.7850 -22.7850 -22.7849 -22.7526 -22.7524 -22.7452 -22.7452
   -22.7295 -22.7294 -22.6512 -22.6510 -22.6486 -22.6485 -22.6485 -22.6484
   -22.6293 -22.6292 -22.5967 -22.5966 -22.5966 -22.5965 -22.5201 -22.5201
   -22.2188 -22.2188 -22.1462 -22.1462 -22.1318 -22.1318 -22.1317 -22.1317
   -22.1210 -22.1210 -22.1210 -22.1209 -22.0773 -22.0772 -22.0724 -22.0722
   -22.0520 -22.0518 -22.0139 -22.0138 -22.0138 -22.0138 -22.0002 -22.0001
    15.3092  15.3094  16.0767  16.0767  16.0769  16.0769  16.7954  16.7956
    17.4532  17.4534  17.5502  17.5503  17.5790  17.5791  17.5791  17.5792
    17.7628  17.7629  18.0330  18.0331  18.0332  18.0333  18.2269  18.2270
    18.2646  18.2647  18.3756  18.3757  18.3805  18.3807  18.4879  18.4880
    18.4880  18.4880  18.6421  18.6422  18.6422  18.6422  18.7011  18.7011
    18.7011  18.7011  18.7623  18.7624  18.7774  18.7775  19.2202  19.2202
    21.7079  21.7080  21.7401  21.7401  21.7402  21.7402  21.8842  21.8842
    21.8843  21.8843  21.9445  21.9447  21.9658  21.9659  22.0375  22.0376
    22.0871  22.0873  22.0895  22.0896  22.0897  22.0897

          k = 0.3945-0.5072-0.5072 ( 11964 PWs)   bands (ev):

   -51.1101 -51.1100 -51.1099 -51.1098 -51.0772 -51.0771 -51.0770 -51.0769
   -50.9527 -50.9526 -50.9525 -50.9523 -50.9338 -50.9336 -50.9336 -50.9334
   -22.7541 -22.7541 -22.7540 -22.7540 -22.7505 -22.7505 -22.7504 -22.7503
   -22.6885 -22.6884 -22.6884 -22.6884 -22.6446 -22.6445 -22.6444 -22.6443
   -22.6400 -22.6399 -22.6399 -22.6399 -22.5841 -22.5841 -22.5840 -22.5840
   -22.1726 -22.1725 -22.1725 -22.1724 -22.1206 -22.1206 -22.1205 -22.1205
   -22.1008 -22.1007 -22.1007 -22.1006 -22.0735 -22.0734 -22.0734 -22.0733
   -22.0519 -22.0518 -22.0518 -22.0517 -22.0133 -22.0133 -22.0132 -22.0132
    15.6897  15.6898  15.6899  15.6900  16.4530  16.4532  16.4532  16.4534
    17.5563  17.5564  17.5564  17.5565  17.8178  17.8179  17.8179  17.8181
    17.9430  17.9431  17.9432  17.9433  17.9474  17.9475  17.9475  17.9476
    18.3895  18.3895  18.3895  18.3896  18.4229  18.4230  18.4231  18.4232
    18.4260  18.4261  18.4261  18.4263  18.6019  18.6019  18.6019  18.6020
    18.6796  18.6797  18.6797  18.6798  18.8612  18.8612  18.8613  18.8613
    21.7856  21.7857  21.7858  21.7859  21.8632  21.8633  21.8634  21.8635
    21.9701  21.9702  21.9702  21.9704  22.0604  22.0605  22.0605  22.0605
    22.0688  22.0689  22.0690  22.0691  22.1100  22.1101

          k =-0.5072-0.5072-0.5072 ( 11992 PWs)   bands (ev):

   -51.0949 -51.0948 -51.0948 -51.0946 -51.0946 -51.0946 -51.0945 -51.0944
   -50.9422 -50.9421 -50.9421 -50.9419 -50.9419 -50.9419 -50.9418 -50.9416
   -22.7020 -22.7019 -22.7019 -22.7019 -22.7019 -22.7018 -22.7018 -22.7018
   -22.7017 -22.7017 -22.7017 -22.7017 -22.7017 -22.7016 -22.7016 -22.7016
   -22.6364 -22.6363 -22.6362 -22.6362 -22.6362 -22.6362 -22.6362 -22.6362
   -22.1330 -22.1329 -22.1329 -22.1329 -22.1329 -22.1328 -22.1328 -22.1328
   -22.0624 -22.0624 -22.0624 -22.0624 -22.0624 -22.0622 -22.0622 -22.0622
   -22.0622 -22.0622 -22.0622 -22.0622 -22.0622 -22.0621 -22.0621 -22.0620
    16.0749  16.0751  16.0751  16.0751  16.0752  16.0753  16.0753  16.0754
    17.8801  17.8801  17.8802  17.8802  17.8802  17.8802  17.8803  17.8803
    17.8804  17.8804  17.8804  17.8804  17.8804  17.8804  17.8806  17.8806
    18.4837  18.4838  18.4838  18.4838  18.4838  18.4838  18.4838  18.4838
    18.4945  18.4945  18.4945  18.4945  18.4945  18.4946  18.4946  18.4946
    18.4946  18.4946  18.4947  18.4947  18.4947  18.4947  18.4947  18.4947
    21.9228  21.9229  21.9229  21.9229  21.9229  21.9229  21.9230  21.9231
    21.9231  21.9231  21.9231  21.9231  21.9231  21.9231  21.9233  21.9233
    22.3317  22.3317  22.3318  22.3318  22.3318  22.3318

     the Fermi energy is    20.6492 ev

!    total energy              =   -3971.51241983 Ry
     Harris-Foulkes estimate   =   -3971.51241818 Ry
     estimated scf accuracy    <       0.00000039 Ry

     total all-electron energy =    -33628.035299 Ry

     The total energy is the sum of the following terms:

     one-electron contribution =    -834.87653424 Ry
     hartree contribution      =     563.89329389 Ry
     xc contribution           =    -357.30662950 Ry
     ewald contribution        =   -2155.22262389 Ry
     one-center paw contrib.   =   -1188.01037094 Ry
     smearing contrib. (-TS)   =       0.01044485 Ry

     total magnetization       =     0.00 Bohr mag/cell
     absolute magnetization    =     0.34 Bohr mag/cell

     convergence has been achieved in  34 iterations

     Forces acting on atoms (cartesian axes, Ry/au):

     atom    1 type  1   force =     0.00000000    0.00000000    0.00000000
     atom    2 type  2   force =     0.00005278    0.00005278    0.00005278
     atom    3 type  1   force =     0.00000000    0.00000000    0.00000000
     atom    4 type  2   force =     0.00005278    0.00005278   -0.00005278
     atom    5 type  1   force =     0.00000000    0.00000000    0.00000000
     atom    6 type  2   force =     0.00005278   -0.00005278    0.00005278
     atom    7 type  1   force =     0.00000000    0.00000000    0.00000000
     atom    8 type  2   force =     0.00005278   -0.00005278   -0.00005278
     atom    9 type  1   force =     0.00000000    0.00000000    0.00000000
     atom   10 type  2   force =    -0.00005278    0.00005278    0.00005278
     atom   11 type  1   force =     0.00000000    0.00000000    0.00000000
     atom   12 type  2   force =    -0.00005278    0.00005278   -0.00005278
     atom   13 type  1   force =     0.00000000    0.00000000    0.00000000
     atom   14 type  2   force =    -0.00005278   -0.00005278    0.00005278
     atom   15 type  1   force =     0.00000000    0.00000000   -0.00000000
     atom   16 type  2   force =    -0.00005278   -0.00005278   -0.00005278

     Total force =     0.000259     Total SCF correction =     0.001272
     SCF correction compared to forces is large: reduce conv_thr to get better values


     Computing stress (Cartesian axis) and pressure

          total   stress  (Ry/bohr**3)                   (kbar)     P=  130.17
   0.00088485   0.00000000   0.00000000        130.17      0.00      0.00
   0.00000000   0.00088485   0.00000000          0.00    130.17      0.00
   0.00000000   0.00000000   0.00088485          0.00      0.00    130.17


     Writing output data file pKsCjCvkFjUFFxun.save/
 
     init_run     :      7.63s CPU      7.94s WALL (       1 calls)
     electrons    :   1138.05s CPU   1160.23s WALL (       1 calls)
     forces       :      2.30s CPU      2.42s WALL (       1 calls)
     stress       :      9.92s CPU      9.98s WALL (       1 calls)

     Called by init_run:
     wfcinit      :      6.67s CPU      6.90s WALL (       1 calls)
     potinit      :      0.31s CPU      0.32s WALL (       1 calls)
     hinit0       :      0.34s CPU      0.35s WALL (       1 calls)

     Called by electrons:
     c_bands      :   1051.77s CPU   1069.96s WALL (      35 calls)
     sum_band     :     74.43s CPU     77.49s WALL (      35 calls)
     v_of_rho     :      0.86s CPU      0.92s WALL (      35 calls)
     newd         :      1.84s CPU      2.25s WALL (      35 calls)
     PAW_pot      :      9.01s CPU      9.42s WALL (      35 calls)
     mix_rho      :      0.27s CPU      0.30s WALL (      35 calls)

     Called by c_bands:
     init_us_2    :      4.94s CPU      5.04s WALL (    5110 calls)
     cegterg      :   1022.40s CPU   1040.28s WALL (    2450 calls)

     Called by sum_band:
     sum_band:bec :      0.78s CPU      0.79s WALL (    2450 calls)
     addusdens    :      3.03s CPU      3.49s WALL (      35 calls)

     Called by *egterg:
     h_psi        :    359.79s CPU    370.85s WALL (   12918 calls)
     s_psi        :     26.68s CPU     26.82s WALL (   12918 calls)
     g_psi        :      1.43s CPU      1.44s WALL (   10398 calls)
     cdiaghg      :    521.04s CPU    522.42s WALL (   12778 calls)

     Called by h_psi:
     h_psi:pot    :    357.45s CPU    368.48s WALL (   12918 calls)
     h_psi:calbec :     31.31s CPU     34.39s WALL (   12918 calls)
     vloc_psi     :    298.12s CPU    305.94s WALL (   12918 calls)
     add_vuspsi   :     27.91s CPU     28.08s WALL (   12918 calls)

     General routines
     calbec       :     45.40s CPU     49.69s WALL (   15718 calls)
     fft          :      0.67s CPU      0.74s WALL (     917 calls)
     ffts         :      0.06s CPU      0.07s WALL (     140 calls)
     fftw         :    330.08s CPU    338.66s WALL ( 2168966 calls)
     interpolate  :      0.10s CPU      0.10s WALL (      70 calls)
 
     Parallel routines
     fft_scatt_xy :     26.43s CPU     27.13s WALL ( 2170023 calls)
     fft_scatt_yz :    193.30s CPU    198.50s WALL ( 2170023 calls)
 
     PWSCF        : 19m21.62s CPU    19m50.22s WALL

 
   This run was terminated on:  20:49: 0  15Jun2020            

=------------------------------------------------------------------------------=
   JOB DONE.
=------------------------------------------------------------------------------=
