
     Program PWSCF v.6.4.1 starts on 15May2022 at 20:46:34 

     This program is part of the open-source Quantum ESPRESSO suite
     for quantum simulation of materials; please cite
         "P. Giannozzi et al., J. Phys.:Condens. Matter 21 395502 (2009);
         "P. Giannozzi et al., J. Phys.:Condens. Matter 29 465901 (2017);
          URL http://www.quantum-espresso.org", 
     in publications or presentations arising from this work. More details at
     http://www.quantum-espresso.org/quote

     Parallel version (MPI), running on     4 processors

     MPI processes distributed on     1 nodes
     K-points division:     npool     =       2
     R & G space division:  proc/nbgrp/npool/nimage =       2
     Reading input from /DATA/disk3/cloud/Code/python/qeeos/examples/al_005/out/ec_rfkj/ec_rfkj_d1_0005.in
Warning: card &IONS ignored
Warning: card ION_DYNAMICS = 'BFGS', ignored
Warning: card / ignored
Warning: card &CELL ignored
Warning: card CELL_DYNAMICS = 'BFGS', ignored
Warning: card CELL_FACTOR = 2.0, ignored
Warning: card PRESS = 0.0, ignored
Warning: card / ignored

     Current dimensions of program PWSCF are:
     Max number of different atomic species (ntypx) = 10
     Max number of k-points (npk) =  40000
     Max angular momentum in pseudopotentials (lmaxx) =  3
               file Al.pbe-nl-kjpaw_psl.1.0.0.UPF: wavefunction(s)  3S 3P renormalized

     Subspace diagonalization in iterative solution of the eigenvalue problem:
     a serial algorithm will be used

     Found symmetry operation: I + ( -0.5000 -0.5000 -0.5000)
     This is a supercell, fractional translations are disabled
     Message from routine setup:
     DEPRECATED: symmetry with ibrav=0, use correct ibrav instead

     Parallelization info
     --------------------
     sticks:   dense  smooth     PW     G-vecs:    dense   smooth      PW
     Min         296     296     88                 5468     5468     898
     Max         297     297     89                 5471     5471     901
     Sum         593     593    177                10939    10939    1799



     bravais-lattice index     =            0
     lattice parameter (alat)  =       6.1031  a.u.
     unit-cell volume          =     228.6281 (a.u.)^3
     number of atoms/cell      =            2
     number of atomic types    =            1
     number of electrons       =         6.00
     number of Kohn-Sham states=            7
     kinetic-energy cutoff     =      50.0000  Ry
     charge density cutoff     =     200.0000  Ry
     convergence threshold     =      1.0E-08
     mixing beta               =       0.3000
     number of iterations used =           10  plain     mixing
     Exchange-correlation      = SLA PW PBX PBC ( 1  4  3  4 0 0)

     celldm(1)=   6.103117  celldm(2)=   0.000000  celldm(3)=   0.000000
     celldm(4)=   0.000000  celldm(5)=   0.000000  celldm(6)=   0.000000

     crystal axes: (cart. coord. in units of alat)
               a(1) = (   1.005714   0.000000   0.000000 )  
               a(2) = (   0.000000   1.000000   0.000000 )  
               a(3) = (   0.000000   0.000000   1.000000 )  

     reciprocal axes: (cart. coord. in units 2 pi/alat)
               b(1) = (  0.994318  0.000000  0.000000 )  
               b(2) = (  0.000000  1.000000  0.000000 )  
               b(3) = (  0.000000  0.000000  1.000000 )  


     PseudoPot. # 1 for Al read from file:
     /opt/pp/Al.pbe-nl-kjpaw_psl.1.0.0.UPF
     MD5 check sum: 1b67f78b73fe58c7924490f171ce8a1e
     Pseudo is Projector augmented-wave + core cor, Zval =  3.0
     Generated using "atomic" code by A. Dal Corso v.6.3
     Shape of augmentation charge: PSQ
     Using radial grid of 1135 points,  4 beta functions with: 
                l(1) =   0
                l(2) =   0
                l(3) =   1
                l(4) =   1
     Q(r) pseudized with 0 coefficients 


     atomic species   valence    mass     pseudopotential
        Al             3.00    26.98200     Al( 1.00)

     16 Sym. Ops., with inversion, found



   Cartesian axes

     site n.     atom                  positions (alat units)
         1           Al  tau(   1) = (   0.0000000   0.0000000   0.0000000  )
         2           Al  tau(   2) = (   0.5028571   0.5000000   0.5000000  )

     number of k points=     6  Marzari-Vanderbilt smearing, width (Ry)=  0.0100
                       cart. coord. in units 2pi/alat
        k(    1) = (   0.1242898   0.1250000   0.1250000), wk =   0.2500000
        k(    2) = (   0.1242898   0.1250000   0.3750000), wk =   0.5000000
        k(    3) = (   0.1242898   0.3750000   0.3750000), wk =   0.2500000
        k(    4) = (   0.3728693   0.1250000   0.1250000), wk =   0.2500000
        k(    5) = (   0.3728693   0.1250000   0.3750000), wk =   0.5000000
        k(    6) = (   0.3728693   0.3750000   0.3750000), wk =   0.2500000

     Dense  grid:    10939 G-vectors     FFT dimensions: (  27,  27,  27)

     Estimated max dynamical RAM per process >       6.19 MB

     Estimated total dynamical RAM >      24.76 MB

     Initial potential from superposition of free atoms

     starting charge    5.99542, renormalised to    6.00000
     Starting wfcs are    8 randomized atomic wfcs
     Checking if some PAW data can be deallocated... 

     total cpu time spent up to now is        0.5 secs

     Self-consistent Calculation

     iteration #  1     ecut=    50.00 Ry     beta= 0.30
     Davidson diagonalization with overlap
     ethr =  1.00E-02,  avg # of iterations =  4.0

     Threshold (ethr) on eigenvalues was too large:
     Diagonalizing with lowered threshold

     Davidson diagonalization with overlap
     ethr =  1.90E-04,  avg # of iterations =  2.3

     total cpu time spent up to now is        0.5 secs

     total energy              =     -78.97674181 Ry
     Harris-Foulkes estimate   =     -78.97866758 Ry
     estimated scf accuracy    <       0.01116477 Ry

     iteration #  2     ecut=    50.00 Ry     beta= 0.30
     Davidson diagonalization with overlap
     ethr =  1.86E-04,  avg # of iterations =  1.0

     total cpu time spent up to now is        0.6 secs

     total energy              =     -78.97508796 Ry
     Harris-Foulkes estimate   =     -78.97682184 Ry
     estimated scf accuracy    <       0.00515926 Ry

     iteration #  3     ecut=    50.00 Ry     beta= 0.30
     Davidson diagonalization with overlap
     ethr =  8.60E-05,  avg # of iterations =  1.0

     total cpu time spent up to now is        0.6 secs

     total energy              =     -78.97525614 Ry
     Harris-Foulkes estimate   =     -78.97525521 Ry
     estimated scf accuracy    <       0.00000837 Ry

     iteration #  4     ecut=    50.00 Ry     beta= 0.30
     Davidson diagonalization with overlap
     ethr =  1.39E-07,  avg # of iterations =  4.5

     total cpu time spent up to now is        0.7 secs

     total energy              =     -78.97528813 Ry
     Harris-Foulkes estimate   =     -78.97528859 Ry
     estimated scf accuracy    <       0.00000155 Ry

     iteration #  5     ecut=    50.00 Ry     beta= 0.30
     Davidson diagonalization with overlap
     ethr =  2.58E-08,  avg # of iterations =  2.0

     total cpu time spent up to now is        0.7 secs

     total energy              =     -78.97528781 Ry
     Harris-Foulkes estimate   =     -78.97528839 Ry
     estimated scf accuracy    <       0.00000161 Ry

     iteration #  6     ecut=    50.00 Ry     beta= 0.30
     Davidson diagonalization with overlap
     ethr =  2.58E-08,  avg # of iterations =  1.0

     total cpu time spent up to now is        0.7 secs

     total energy              =     -78.97528786 Ry
     Harris-Foulkes estimate   =     -78.97528786 Ry
     estimated scf accuracy    <       0.00000001 Ry

     iteration #  7     ecut=    50.00 Ry     beta= 0.30
     Davidson diagonalization with overlap
     ethr =  2.47E-10,  avg # of iterations =  3.0

     total cpu time spent up to now is        0.8 secs

     End of self-consistent calculation

          k = 0.1243 0.1250 0.1250 (  1354 PWs)   bands (ev):

    -2.6571   7.2717   7.3404   8.0073  14.0071  14.1163  15.3793

          k = 0.1243 0.1250 0.3750 (  1360 PWs)   bands (ev):

    -0.8996   2.5530   8.9318   9.4363  12.2148  12.6479  15.7119

          k = 0.1243 0.3750 0.3750 (  1363 PWs)   bands (ev):

     0.8372   4.0485   4.4828   7.6291  10.7821  13.8143  14.1995

          k = 0.3729 0.1250 0.1250 (  1361 PWs)   bands (ev):

    -0.9194   2.4950   8.9676   9.4768  12.2139  12.6502  15.7802

          k = 0.3729 0.1250 0.3750 (  1366 PWs)   bands (ev):

     0.8176   4.0192   4.4332   7.5702  10.8795  13.8998  14.2684

          k = 0.3729 0.3750 0.3750 (  1370 PWs)   bands (ev):

     2.5332   5.6695   5.6824   6.4487   8.9528   8.9920   9.9028

     the Fermi energy is     7.6373 ev

!    total energy              =     -78.97528788 Ry
     Harris-Foulkes estimate   =     -78.97528788 Ry
     estimated scf accuracy    <          3.2E-09 Ry

     total all-electron energy =      -971.260849 Ry

     The total energy is the sum of the following terms:

     one-electron contribution =       6.23398930 Ry
     hartree contribution      =       0.00673501 Ry
     xc contribution           =      -5.15114284 Ry
     ewald contribution        =     -10.71286509 Ry
     one-center paw contrib.   =     -69.35137889 Ry
     smearing contrib. (-TS)   =      -0.00062536 Ry

     convergence has been achieved in   7 iterations

     Forces acting on atoms (cartesian axes, Ry/au):

     atom    1 type  1   force =     0.00000000    0.00000000    0.00000000
     atom    2 type  1   force =     0.00000000    0.00000000    0.00000000

     Total force =     0.000000     Total SCF correction =     0.000000


     Computing stress (Cartesian axis) and pressure

          total   stress  (Ry/bohr**3)                   (kbar)     P=   -4.43
   0.00021109   0.00000000   0.00000000         31.05      0.00      0.00
   0.00000000  -0.00015075   0.00000000          0.00    -22.18      0.00
   0.00000000   0.00000000  -0.00015075          0.00      0.00    -22.18


     Writing output data file zUFlnjHvKHuyLQLw.save/

     init_run     :      0.12s CPU      0.14s WALL (       1 calls)
     electrons    :      0.30s CPU      0.31s WALL (       1 calls)
     forces       :      0.03s CPU      0.03s WALL (       1 calls)
     stress       :      0.06s CPU      0.06s WALL (       1 calls)

     Called by init_run:
     wfcinit      :      0.00s CPU      0.01s WALL (       1 calls)
     potinit      :      0.03s CPU      0.03s WALL (       1 calls)
     hinit0       :      0.08s CPU      0.08s WALL (       1 calls)

     Called by electrons:
     c_bands      :      0.11s CPU      0.12s WALL (       8 calls)
     sum_band     :      0.03s CPU      0.03s WALL (       8 calls)
     v_of_rho     :      0.03s CPU      0.03s WALL (       8 calls)
     newd         :      0.01s CPU      0.01s WALL (       8 calls)
     PAW_pot      :      0.13s CPU      0.14s WALL (       8 calls)
     mix_rho      :      0.00s CPU      0.00s WALL (       8 calls)

     Called by c_bands:
     init_us_2    :      0.00s CPU      0.00s WALL (      57 calls)
     cegterg      :      0.10s CPU      0.11s WALL (      24 calls)

     Called by sum_band:
     sum_band:bec :      0.00s CPU      0.00s WALL (      24 calls)
     addusdens    :      0.01s CPU      0.01s WALL (       8 calls)

     Called by *egterg:
     h_psi        :      0.08s CPU      0.09s WALL (      81 calls)
     s_psi        :      0.00s CPU      0.00s WALL (      81 calls)
     g_psi        :      0.00s CPU      0.00s WALL (      54 calls)
     cdiaghg      :      0.00s CPU      0.00s WALL (      75 calls)

     Called by h_psi:
     h_psi:pot    :      0.08s CPU      0.09s WALL (      81 calls)
     h_psi:calbec :      0.01s CPU      0.01s WALL (      81 calls)
     vloc_psi     :      0.07s CPU      0.08s WALL (      81 calls)
     add_vuspsi   :      0.00s CPU      0.00s WALL (      81 calls)

     General routines
     calbec       :      0.01s CPU      0.01s WALL (     120 calls)
     fft          :      0.01s CPU      0.02s WALL (     114 calls)
     ffts         :      0.00s CPU      0.00s WALL (       8 calls)
     fftw         :      0.08s CPU      0.09s WALL (    1044 calls)

     Parallel routines
     fft_scatt_xy :      0.01s CPU      0.01s WALL (    1166 calls)
     fft_scatt_yz :      0.01s CPU      0.01s WALL (    1166 calls)

     PWSCF        :      0.85s CPU      0.88s WALL


   This run was terminated on:  20:46:34  15May2022            

=------------------------------------------------------------------------------=
   JOB DONE.
=------------------------------------------------------------------------------=
