
     Program PWSCF v.6.4.1 starts on 15May2022 at 20:47:28 

     This program is part of the open-source Quantum ESPRESSO suite
     for quantum simulation of materials; please cite
         "P. Giannozzi et al., J. Phys.:Condens. Matter 21 395502 (2009);
         "P. Giannozzi et al., J. Phys.:Condens. Matter 29 465901 (2017);
          URL http://www.quantum-espresso.org", 
     in publications or presentations arising from this work. More details at
     http://www.quantum-espresso.org/quote

     Parallel version (MPI), running on     4 processors

     MPI processes distributed on     1 nodes
     K-points division:     npool     =       2
     R & G space division:  proc/nbgrp/npool/nimage =       2
     Reading input from /DATA/disk3/cloud/Code/python/qeeos/examples/al_005/out/ec_rfkj/ec_rfkj_d9_0007.in
Warning: card &IONS ignored
Warning: card ION_DYNAMICS = 'BFGS', ignored
Warning: card / ignored
Warning: card &CELL ignored
Warning: card CELL_DYNAMICS = 'BFGS', ignored
Warning: card CELL_FACTOR = 2.0, ignored
Warning: card PRESS = 0.0, ignored
Warning: card / ignored

     Current dimensions of program PWSCF are:
     Max number of different atomic species (ntypx) = 10
     Max number of k-points (npk) =  40000
     Max angular momentum in pseudopotentials (lmaxx) =  3
               file Al.pbe-nl-kjpaw_psl.1.0.0.UPF: wavefunction(s)  3S 3P renormalized

     Subspace diagonalization in iterative solution of the eigenvalue problem:
     a serial algorithm will be used

     Found symmetry operation: I + ( -0.5000 -0.5000 -0.5000)
     This is a supercell, fractional translations are disabled
     Message from routine setup:
     DEPRECATED: symmetry with ibrav=0, use correct ibrav instead

     Parallelization info
     --------------------
     sticks:   dense  smooth     PW     G-vecs:    dense   smooth      PW
     Min         296     296     88                 5452     5452     894
     Max         297     297     89                 5455     5455     897
     Sum         593     593    177                10907    10907    1791



     bravais-lattice index     =            0
     lattice parameter (alat)  =       6.1031  a.u.
     unit-cell volume          =     227.3291 (a.u.)^3
     number of atoms/cell      =            2
     number of atomic types    =            1
     number of electrons       =         6.00
     number of Kohn-Sham states=            7
     kinetic-energy cutoff     =      50.0000  Ry
     charge density cutoff     =     200.0000  Ry
     convergence threshold     =      1.0E-08
     mixing beta               =       0.3000
     number of iterations used =           10  plain     mixing
     Exchange-correlation      = SLA PW PBX PBC ( 1  4  3  4 0 0)

     celldm(1)=   6.103117  celldm(2)=   0.000000  celldm(3)=   0.000000
     celldm(4)=   0.000000  celldm(5)=   0.000000  celldm(6)=   0.000000

     crystal axes: (cart. coord. in units of alat)
               a(1) = (   1.000024   0.000000   0.000000 )  
               a(2) = (   0.000000   1.008596   0.000000 )  
               a(3) = (   0.000000   0.000000   0.991453 )  

     reciprocal axes: (cart. coord. in units 2 pi/alat)
               b(1) = (  0.999976  0.000000  0.000000 )  
               b(2) = (  0.000000  0.991477  0.000000 )  
               b(3) = (  0.000000  0.000000  1.008621 )  


     PseudoPot. # 1 for Al read from file:
     /opt/pp/Al.pbe-nl-kjpaw_psl.1.0.0.UPF
     MD5 check sum: 1b67f78b73fe58c7924490f171ce8a1e
     Pseudo is Projector augmented-wave + core cor, Zval =  3.0
     Generated using "atomic" code by A. Dal Corso v.6.3
     Shape of augmentation charge: PSQ
     Using radial grid of 1135 points,  4 beta functions with: 
                l(1) =   0
                l(2) =   0
                l(3) =   1
                l(4) =   1
     Q(r) pseudized with 0 coefficients 


     atomic species   valence    mass     pseudopotential
        Al             3.00    26.98200     Al( 1.00)

      8 Sym. Ops., with inversion, found



   Cartesian axes

     site n.     atom                  positions (alat units)
         1           Al  tau(   1) = (   0.0000000   0.0000000   0.0000000  )
         2           Al  tau(   2) = (   0.5000122   0.5042981   0.4957264  )

     number of k points=     8  Marzari-Vanderbilt smearing, width (Ry)=  0.0100
                       cart. coord. in units 2pi/alat
        k(    1) = (   0.1249969   0.1239346   0.1260776), wk =   0.2500000
        k(    2) = (   0.1249969   0.1239346   0.3782328), wk =   0.2500000
        k(    3) = (   0.1249969   0.3718039   0.1260776), wk =   0.2500000
        k(    4) = (   0.1249969   0.3718039   0.3782328), wk =   0.2500000
        k(    5) = (   0.3749908   0.1239346   0.1260776), wk =   0.2500000
        k(    6) = (   0.3749908   0.1239346   0.3782328), wk =   0.2500000
        k(    7) = (   0.3749908   0.3718039   0.1260776), wk =   0.2500000
        k(    8) = (   0.3749908   0.3718039   0.3782328), wk =   0.2500000

     Dense  grid:    10907 G-vectors     FFT dimensions: (  27,  27,  27)

     Estimated max dynamical RAM per process >       6.25 MB

     Estimated total dynamical RAM >      24.98 MB

     Initial potential from superposition of free atoms

     starting charge    5.99542, renormalised to    6.00000
     Starting wfcs are    8 randomized atomic wfcs
     Checking if some PAW data can be deallocated... 

     total cpu time spent up to now is        0.5 secs

     Self-consistent Calculation

     iteration #  1     ecut=    50.00 Ry     beta= 0.30
     Davidson diagonalization with overlap
     ethr =  1.00E-02,  avg # of iterations =  4.5

     Threshold (ethr) on eigenvalues was too large:
     Diagonalizing with lowered threshold

     Davidson diagonalization with overlap
     ethr =  1.87E-04,  avg # of iterations =  2.2

     total cpu time spent up to now is        0.6 secs

     total energy              =     -78.97761895 Ry
     Harris-Foulkes estimate   =     -78.97952924 Ry
     estimated scf accuracy    <       0.01108220 Ry

     iteration #  2     ecut=    50.00 Ry     beta= 0.30
     Davidson diagonalization with overlap
     ethr =  1.85E-04,  avg # of iterations =  1.0

     total cpu time spent up to now is        0.6 secs

     total energy              =     -78.97598451 Ry
     Harris-Foulkes estimate   =     -78.97770468 Ry
     estimated scf accuracy    <       0.00512502 Ry

     iteration #  3     ecut=    50.00 Ry     beta= 0.30
     Davidson diagonalization with overlap
     ethr =  8.54E-05,  avg # of iterations =  1.0

     total cpu time spent up to now is        0.7 secs

     total energy              =     -78.97615713 Ry
     Harris-Foulkes estimate   =     -78.97615636 Ry
     estimated scf accuracy    <       0.00000863 Ry

     iteration #  4     ecut=    50.00 Ry     beta= 0.30
     Davidson diagonalization with overlap
     ethr =  1.44E-07,  avg # of iterations =  3.4

     total cpu time spent up to now is        0.7 secs

     total energy              =     -78.97618886 Ry
     Harris-Foulkes estimate   =     -78.97618930 Ry
     estimated scf accuracy    <       0.00000163 Ry

     iteration #  5     ecut=    50.00 Ry     beta= 0.30
     Davidson diagonalization with overlap
     ethr =  2.71E-08,  avg # of iterations =  1.9

     total cpu time spent up to now is        0.8 secs

     total energy              =     -78.97618858 Ry
     Harris-Foulkes estimate   =     -78.97618911 Ry
     estimated scf accuracy    <       0.00000150 Ry

     iteration #  6     ecut=    50.00 Ry     beta= 0.30
     Davidson diagonalization with overlap
     ethr =  2.50E-08,  avg # of iterations =  1.0

     total cpu time spent up to now is        0.8 secs

     total energy              =     -78.97618863 Ry
     Harris-Foulkes estimate   =     -78.97618862 Ry
     estimated scf accuracy    <       0.00000002 Ry

     iteration #  7     ecut=    50.00 Ry     beta= 0.30
     Davidson diagonalization with overlap
     ethr =  2.74E-10,  avg # of iterations =  2.9

     total cpu time spent up to now is        0.9 secs

     End of self-consistent calculation

          k = 0.1250 0.1239 0.1261 (  1350 PWs)   bands (ev):

    -2.6355   7.2614   7.4269   8.1094  13.9818  14.2489  15.5393

          k = 0.1250 0.1239 0.3782 (  1356 PWs)   bands (ev):

    -0.8477   2.6623   8.9475   9.4631  12.2858  12.7303  15.7092

          k = 0.1250 0.3718 0.1261 (  1357 PWs)   bands (ev):

    -0.9077   2.4869   9.0354   9.6057  12.2600  12.7601  15.8819

          k = 0.1250 0.3718 0.3782 (  1355 PWs)   bands (ev):

     0.8590   4.0614   4.5129   7.6502  10.9191  13.9362  14.3493

          k = 0.3750 0.1239 0.1261 (  1356 PWs)   bands (ev):

    -0.8781   2.5736   8.9520   9.5751  12.2286  12.7895  15.7304

          k = 0.3750 0.1239 0.3782 (  1353 PWs)   bands (ev):

     0.8881   4.1097   4.5825   7.7384  10.7735  13.8130  14.2418

          k = 0.3750 0.3718 0.1261 (  1360 PWs)   bands (ev):

     0.8291   4.0244   4.4291   7.5598  11.0684  14.0750  14.4470

          k = 0.3750 0.3718 0.3782 (  1362 PWs)   bands (ev):

     2.5736   5.7034   5.7346   6.5246   8.9765   9.0804   9.9946

     the Fermi energy is     7.7021 ev

!    total energy              =     -78.97618864 Ry
     Harris-Foulkes estimate   =     -78.97618864 Ry
     estimated scf accuracy    <          2.3E-09 Ry

     total all-electron energy =      -971.261750 Ry

     The total energy is the sum of the following terms:

     one-electron contribution =       6.26038277 Ry
     hartree contribution      =       0.00685654 Ry
     xc contribution           =      -5.15739421 Ry
     ewald contribution        =     -10.73319476 Ry
     one-center paw contrib.   =     -69.35270854 Ry
     smearing contrib. (-TS)   =      -0.00013043 Ry

     convergence has been achieved in   7 iterations

     Forces acting on atoms (cartesian axes, Ry/au):

     atom    1 type  1   force =     0.00000000    0.00000000    0.00000000
     atom    2 type  1   force =     0.00000000    0.00000000    0.00000000

     Total force =     0.000000     Total SCF correction =     0.000000


     Computing stress (Cartesian axis) and pressure

          total   stress  (Ry/bohr**3)                   (kbar)     P=    0.90
   0.00005659   0.00000000   0.00000000          8.32      0.00      0.00
   0.00000000   0.00047274   0.00000000          0.00     69.54      0.00
   0.00000000   0.00000000  -0.00051103          0.00      0.00    -75.17


     Writing output data file QZgZOsEWyaxTURVk.save/

     init_run     :      0.16s CPU      0.17s WALL (       1 calls)
     electrons    :      0.35s CPU      0.37s WALL (       1 calls)
     forces       :      0.05s CPU      0.05s WALL (       1 calls)
     stress       :      0.11s CPU      0.11s WALL (       1 calls)

     Called by init_run:
     wfcinit      :      0.01s CPU      0.01s WALL (       1 calls)
     potinit      :      0.04s CPU      0.04s WALL (       1 calls)
     hinit0       :      0.10s CPU      0.10s WALL (       1 calls)

     Called by electrons:
     c_bands      :      0.15s CPU      0.16s WALL (       8 calls)
     sum_band     :      0.04s CPU      0.04s WALL (       8 calls)
     v_of_rho     :      0.03s CPU      0.04s WALL (       8 calls)
     newd         :      0.01s CPU      0.01s WALL (       8 calls)
     PAW_pot      :      0.13s CPU      0.14s WALL (       8 calls)
     mix_rho      :      0.00s CPU      0.00s WALL (       8 calls)

     Called by c_bands:
     init_us_2    :      0.01s CPU      0.01s WALL (      76 calls)
     cegterg      :      0.14s CPU      0.15s WALL (      32 calls)

     Called by sum_band:
     sum_band:bec :      0.00s CPU      0.00s WALL (      32 calls)
     addusdens    :      0.01s CPU      0.01s WALL (       8 calls)

     Called by *egterg:
     h_psi        :      0.12s CPU      0.12s WALL (     107 calls)
     s_psi        :      0.01s CPU      0.01s WALL (     107 calls)
     g_psi        :      0.00s CPU      0.00s WALL (      71 calls)
     cdiaghg      :      0.01s CPU      0.01s WALL (      99 calls)

     Called by h_psi:
     h_psi:pot    :      0.12s CPU      0.12s WALL (     107 calls)
     h_psi:calbec :      0.01s CPU      0.01s WALL (     107 calls)
     vloc_psi     :      0.10s CPU      0.11s WALL (     107 calls)
     add_vuspsi   :      0.01s CPU      0.01s WALL (     107 calls)

     General routines
     calbec       :      0.01s CPU      0.01s WALL (     159 calls)
     fft          :      0.02s CPU      0.02s WALL (     114 calls)
     ffts         :      0.00s CPU      0.00s WALL (       8 calls)
     fftw         :      0.12s CPU      0.12s WALL (    1388 calls)

     Parallel routines
     fft_scatt_xy :      0.01s CPU      0.01s WALL (    1510 calls)
     fft_scatt_yz :      0.03s CPU      0.03s WALL (    1510 calls)

     PWSCF        :      1.01s CPU      1.04s WALL


   This run was terminated on:  20:47:29  15May2022            

=------------------------------------------------------------------------------=
   JOB DONE.
=------------------------------------------------------------------------------=
