
     Program PWSCF v.6.4.1 starts on 15May2022 at 20:47: 8 

     This program is part of the open-source Quantum ESPRESSO suite
     for quantum simulation of materials; please cite
         "P. Giannozzi et al., J. Phys.:Condens. Matter 21 395502 (2009);
         "P. Giannozzi et al., J. Phys.:Condens. Matter 29 465901 (2017);
          URL http://www.quantum-espresso.org", 
     in publications or presentations arising from this work. More details at
     http://www.quantum-espresso.org/quote

     Parallel version (MPI), running on     4 processors

     MPI processes distributed on     1 nodes
     K-points division:     npool     =       2
     R & G space division:  proc/nbgrp/npool/nimage =       2
     Reading input from /DATA/disk3/cloud/Code/python/qeeos/examples/al_005/out/ec_rfkj/ec_rfkj_d6_0007.in
Warning: card &IONS ignored
Warning: card ION_DYNAMICS = 'BFGS', ignored
Warning: card / ignored
Warning: card &CELL ignored
Warning: card CELL_DYNAMICS = 'BFGS', ignored
Warning: card CELL_FACTOR = 2.0, ignored
Warning: card PRESS = 0.0, ignored
Warning: card / ignored

     Current dimensions of program PWSCF are:
     Max number of different atomic species (ntypx) = 10
     Max number of k-points (npk) =  40000
     Max angular momentum in pseudopotentials (lmaxx) =  3
               file Al.pbe-nl-kjpaw_psl.1.0.0.UPF: wavefunction(s)  3S 3P renormalized

     Subspace diagonalization in iterative solution of the eigenvalue problem:
     a serial algorithm will be used

     Found symmetry operation: I + ( -0.5000 -0.5000  0.5000)
     This is a supercell, fractional translations are disabled
     Message from routine setup:
     DEPRECATED: symmetry with ibrav=0, use correct ibrav instead

     Parallelization info
     --------------------
     sticks:   dense  smooth     PW     G-vecs:    dense   smooth      PW
     Min         296     296     88                 5455     5455     900
     Max         297     297     89                 5456     5456     903
     Sum         593     593    177                10911    10911    1803



     bravais-lattice index     =            0
     lattice parameter (alat)  =       6.1031  a.u.
     unit-cell volume          =     227.3291 (a.u.)^3
     number of atoms/cell      =            2
     number of atomic types    =            1
     number of electrons       =         6.00
     number of Kohn-Sham states=            7
     kinetic-energy cutoff     =      50.0000  Ry
     charge density cutoff     =     200.0000  Ry
     convergence threshold     =      1.0E-08
     mixing beta               =       0.3000
     number of iterations used =           10  plain     mixing
     Exchange-correlation      = SLA PW PBX PBC ( 1  4  3  4 0 0)

     celldm(1)=   6.103117  celldm(2)=   0.000000  celldm(3)=   0.000000
     celldm(4)=   0.000000  celldm(5)=   0.000000  celldm(6)=   0.000000

     crystal axes: (cart. coord. in units of alat)
               a(1) = (   1.000024   0.008572   0.000000 )  
               a(2) = (   0.008572   1.000024   0.000000 )  
               a(3) = (   0.000000   0.000000   1.000024 )  

     reciprocal axes: (cart. coord. in units 2 pi/alat)
               b(1) = (  1.000049 -0.008572  0.000000 )  
               b(2) = ( -0.008572  1.000049  0.000000 )  
               b(3) = (  0.000000  0.000000  0.999976 )  


     PseudoPot. # 1 for Al read from file:
     /opt/pp/Al.pbe-nl-kjpaw_psl.1.0.0.UPF
     MD5 check sum: 1b67f78b73fe58c7924490f171ce8a1e
     Pseudo is Projector augmented-wave + core cor, Zval =  3.0
     Generated using "atomic" code by A. Dal Corso v.6.3
     Shape of augmentation charge: PSQ
     Using radial grid of 1135 points,  4 beta functions with: 
                l(1) =   0
                l(2) =   0
                l(3) =   1
                l(4) =   1
     Q(r) pseudized with 0 coefficients 


     atomic species   valence    mass     pseudopotential
        Al             3.00    26.98200     Al( 1.00)

      8 Sym. Ops., with inversion, found



   Cartesian axes

     site n.     atom                  positions (alat units)
         1           Al  tau(   1) = (   0.0000000   0.0000000   0.0000000  )
         2           Al  tau(   2) = (   0.5042981   0.5042981   0.5000122  )

     number of k points=    12  Marzari-Vanderbilt smearing, width (Ry)=  0.0100
                       cart. coord. in units 2pi/alat
        k(    1) = (   0.1239346   0.1239346   0.1249969), wk =   0.1250000
        k(    2) = (   0.1239346   0.1239346   0.3749908), wk =   0.1250000
        k(    3) = (   0.1217917   0.3739469   0.1249969), wk =   0.2500000
        k(    4) = (   0.1217917   0.3739469   0.3749908), wk =   0.2500000
        k(    5) = (   0.1282206  -0.3760898   0.1249969), wk =   0.2500000
        k(    6) = (   0.1282206  -0.3760898   0.3749908), wk =   0.2500000
        k(    7) = (   0.1260776  -0.1260776   0.1249969), wk =   0.1250000
        k(    8) = (   0.1260776  -0.1260776   0.3749908), wk =   0.1250000
        k(    9) = (   0.3718039   0.3718039   0.1249969), wk =   0.1250000
        k(   10) = (   0.3718039   0.3718039   0.3749908), wk =   0.1250000
        k(   11) = (   0.3782328  -0.3782328   0.1249969), wk =   0.1250000
        k(   12) = (   0.3782328  -0.3782328   0.3749908), wk =   0.1250000

     Dense  grid:    10911 G-vectors     FFT dimensions: (  27,  27,  27)

     Estimated max dynamical RAM per process >       6.39 MB

     Estimated total dynamical RAM >      25.57 MB

     Initial potential from superposition of free atoms

     starting charge    5.99542, renormalised to    6.00000
     Starting wfcs are    8 randomized atomic wfcs
     Checking if some PAW data can be deallocated... 

     total cpu time spent up to now is        0.5 secs

     Self-consistent Calculation

     iteration #  1     ecut=    50.00 Ry     beta= 0.30
     Davidson diagonalization with overlap
     ethr =  1.00E-02,  avg # of iterations =  4.0

     Threshold (ethr) on eigenvalues was too large:
     Diagonalizing with lowered threshold

     Davidson diagonalization with overlap
     ethr =  1.88E-04,  avg # of iterations =  2.3

     total cpu time spent up to now is        0.6 secs

     total energy              =     -78.97753784 Ry
     Harris-Foulkes estimate   =     -78.97946237 Ry
     estimated scf accuracy    <       0.01113439 Ry

     iteration #  2     ecut=    50.00 Ry     beta= 0.30
     Davidson diagonalization with overlap
     ethr =  1.86E-04,  avg # of iterations =  1.0

     total cpu time spent up to now is        0.6 secs

     total energy              =     -78.97588858 Ry
     Harris-Foulkes estimate   =     -78.97761992 Ry
     estimated scf accuracy    <       0.00514739 Ry

     iteration #  3     ecut=    50.00 Ry     beta= 0.30
     Davidson diagonalization with overlap
     ethr =  8.58E-05,  avg # of iterations =  1.0

     total cpu time spent up to now is        0.7 secs

     total energy              =     -78.97605575 Ry
     Harris-Foulkes estimate   =     -78.97605482 Ry
     estimated scf accuracy    <       0.00000837 Ry

     iteration #  4     ecut=    50.00 Ry     beta= 0.30
     Davidson diagonalization with overlap
     ethr =  1.40E-07,  avg # of iterations =  3.8

     total cpu time spent up to now is        0.8 secs

     total energy              =     -78.97608688 Ry
     Harris-Foulkes estimate   =     -78.97608734 Ry
     estimated scf accuracy    <       0.00000161 Ry

     iteration #  5     ecut=    50.00 Ry     beta= 0.30
     Davidson diagonalization with overlap
     ethr =  2.68E-08,  avg # of iterations =  2.0

     total cpu time spent up to now is        0.8 secs

     total energy              =     -78.97608652 Ry
     Harris-Foulkes estimate   =     -78.97608715 Ry
     estimated scf accuracy    <       0.00000173 Ry

     iteration #  6     ecut=    50.00 Ry     beta= 0.30
     Davidson diagonalization with overlap
     ethr =  2.68E-08,  avg # of iterations =  1.0

     total cpu time spent up to now is        0.9 secs

     total energy              =     -78.97608658 Ry
     Harris-Foulkes estimate   =     -78.97608657 Ry
     estimated scf accuracy    <       0.00000001 Ry

     iteration #  7     ecut=    50.00 Ry     beta= 0.30
     Davidson diagonalization with overlap
     ethr =  2.10E-10,  avg # of iterations =  3.0

     total cpu time spent up to now is        0.9 secs

     End of self-consistent calculation

          k = 0.1239 0.1239 0.1250 (  1352 PWs)   bands (ev):

    -2.6433   7.3641   7.3825   8.1472  14.0404  14.1198  15.4694

          k = 0.1239 0.1239 0.3750 (  1355 PWs)   bands (ev):

    -0.8858   2.5661   9.0061   9.6232  12.2820  12.8340  15.7251

          k = 0.1218 0.3739 0.1250 (  1355 PWs)   bands (ev):

    -0.9004   2.6097   9.0541   9.5974  12.1490  12.6667  15.7038

          k = 0.1218 0.3739 0.3750 (  1359 PWs)   bands (ev):

     0.8364   4.0734   4.5121   7.6819  11.0664  13.8227  14.3759

          k = 0.1282-0.3761 0.1250 (  1348 PWs)   bands (ev):

    -0.8558   2.5387   8.9297   9.4679  12.3525  12.8625  15.9161

          k = 0.1282-0.3761 0.3750 (  1356 PWs)   bands (ev):

     0.8802   4.0594   4.4991   7.6150  10.7740  13.9166  14.4560

          k = 0.1261-0.1261 0.1250 (  1344 PWs)   bands (ev):

    -2.6282   7.3284   7.3583   8.0131  14.1492  14.2375  15.5211

          k = 0.1261-0.1261 0.3750 (  1360 PWs)   bands (ev):

    -0.8710   2.5803   9.0071   9.4163  12.2964  12.6215  16.5882

          k = 0.3718 0.3718 0.1250 (  1355 PWs)   bands (ev):

     0.7930   4.1374   4.6568   7.4686  10.8586  13.9964  14.4963

          k = 0.3718 0.3718 0.3750 (  1371 PWs)   bands (ev):

     2.5091   5.7153   5.7871   6.6153   8.9384   9.0895  10.0567

          k = 0.3782-0.3782 0.1250 (  1355 PWs)   bands (ev):

     0.9241   4.0023   4.3509   7.8311  10.9779  13.8915  14.1843

          k = 0.3782-0.3782 0.3750 (  1367 PWs)   bands (ev):

     2.6372   5.6567   5.7000   6.4481   8.9683   9.0668   9.9810

     the Fermi energy is     7.7086 ev

!    total energy              =     -78.97608659 Ry
     Harris-Foulkes estimate   =     -78.97608659 Ry
     estimated scf accuracy    <          1.9E-09 Ry

     total all-electron energy =      -971.261648 Ry

     The total energy is the sum of the following terms:

     one-electron contribution =       6.25985644 Ry
     hartree contribution      =       0.00685290 Ry
     xc contribution           =      -5.15724468 Ry
     ewald contribution        =     -10.73291620 Ry
     one-center paw contrib.   =     -69.35245782 Ry
     smearing contrib. (-TS)   =      -0.00017724 Ry

     convergence has been achieved in   7 iterations

     Forces acting on atoms (cartesian axes, Ry/au):

     atom    1 type  1   force =     0.00000000    0.00000000    0.00000000
     atom    2 type  1   force =     0.00000000    0.00000000    0.00000000

     Total force =     0.000000     Total SCF correction =     0.000000


     Computing stress (Cartesian axis) and pressure

          total   stress  (Ry/bohr**3)                   (kbar)     P=   -0.08
  -0.00004605   0.00031575   0.00000000         -6.77     46.45      0.00
   0.00031575  -0.00004605   0.00000000         46.45     -6.77      0.00
   0.00000000   0.00000000   0.00009043          0.00      0.00     13.30


     Writing output data file lGVEcSgisUWytOUz.save/

     init_run     :      0.17s CPU      0.17s WALL (       1 calls)
     electrons    :      0.43s CPU      0.46s WALL (       1 calls)
     forces       :      0.05s CPU      0.05s WALL (       1 calls)
     stress       :      0.11s CPU      0.11s WALL (       1 calls)

     Called by init_run:
     wfcinit      :      0.01s CPU      0.01s WALL (       1 calls)
     potinit      :      0.04s CPU      0.04s WALL (       1 calls)
     hinit0       :      0.10s CPU      0.10s WALL (       1 calls)

     Called by electrons:
     c_bands      :      0.22s CPU      0.24s WALL (       8 calls)
     sum_band     :      0.05s CPU      0.05s WALL (       8 calls)
     v_of_rho     :      0.03s CPU      0.04s WALL (       8 calls)
     newd         :      0.01s CPU      0.01s WALL (       8 calls)
     PAW_pot      :      0.13s CPU      0.14s WALL (       8 calls)
     mix_rho      :      0.00s CPU      0.00s WALL (       8 calls)

     Called by c_bands:
     init_us_2    :      0.01s CPU      0.01s WALL (     114 calls)
     cegterg      :      0.21s CPU      0.22s WALL (      48 calls)

     Called by sum_band:
     sum_band:bec :      0.00s CPU      0.00s WALL (      48 calls)
     addusdens    :      0.01s CPU      0.01s WALL (       8 calls)

     Called by *egterg:
     h_psi        :      0.17s CPU      0.19s WALL (     165 calls)
     s_psi        :      0.01s CPU      0.01s WALL (     165 calls)
     g_psi        :      0.00s CPU      0.00s WALL (     111 calls)
     cdiaghg      :      0.01s CPU      0.01s WALL (     153 calls)

     Called by h_psi:
     h_psi:pot    :      0.17s CPU      0.19s WALL (     165 calls)
     h_psi:calbec :      0.01s CPU      0.01s WALL (     165 calls)
     vloc_psi     :      0.16s CPU      0.17s WALL (     165 calls)
     add_vuspsi   :      0.01s CPU      0.01s WALL (     165 calls)

     General routines
     calbec       :      0.02s CPU      0.02s WALL (     243 calls)
     fft          :      0.02s CPU      0.02s WALL (     114 calls)
     ffts         :      0.00s CPU      0.00s WALL (       8 calls)
     fftw         :      0.17s CPU      0.19s WALL (    2100 calls)

     Parallel routines
     fft_scatt_xy :      0.02s CPU      0.02s WALL (    2222 calls)
     fft_scatt_yz :      0.04s CPU      0.04s WALL (    2222 calls)

     PWSCF        :      1.06s CPU      1.11s WALL


   This run was terminated on:  20:47: 9  15May2022            

=------------------------------------------------------------------------------=
   JOB DONE.
=------------------------------------------------------------------------------=
