
     Program PWSCF v.6.4.1 starts on  9Oct2020 at  0:56:14 

     This program is part of the open-source Quantum ESPRESSO suite
     for quantum simulation of materials; please cite
         "P. Giannozzi et al., J. Phys.:Condens. Matter 21 395502 (2009);
         "P. Giannozzi et al., J. Phys.:Condens. Matter 29 465901 (2017);
          URL http://www.quantum-espresso.org", 
     in publications or presentations arising from this work. More details at
     http://www.quantum-espresso.org/quote

     Parallel version (MPI), running on     1 processors

     MPI processes distributed on     1 nodes
     Reading input from wd/eos/eos_001.in
Warning: card &IONS ignored
Warning: card ION_DYNAMICS = 'BFGS', ignored
Warning: card / ignored
Warning: card &CELL ignored
Warning: card CELL_DYNAMICS = 'BFGS', ignored
Warning: card CELL_FACTOR = 2.0, ignored
Warning: card PRESS = 0.0, ignored
Warning: card / ignored

     Current dimensions of program PWSCF are:
     Max number of different atomic species (ntypx) = 10
     Max number of k-points (npk) =  40000
     Max angular momentum in pseudopotentials (lmaxx) =  3
               file Al.pbe-nl-kjpaw_psl.1.0.0.UPF: wavefunction(s)  3S 3P renormalized

     Subspace diagonalization in iterative solution of the eigenvalue problem:
     a serial algorithm will be used

     Found symmetry operation: I + ( -0.5000 -0.5000  0.0000)
     This is a supercell, fractional translations are disabled
     Message from routine setup:
     DEPRECATED: symmetry with ibrav=0, use correct ibrav instead

     G-vector sticks info
     --------------------
     sticks:   dense  smooth     PW     G-vecs:    dense   smooth      PW
     Sum         277     277    121                 3407     3407    1021



     bravais-lattice index     =            0
     lattice parameter (alat)  =       7.6305  a.u.
     unit-cell volume          =     440.2904 (a.u.)^3
     number of atoms/cell      =            4
     number of atomic types    =            1
     number of electrons       =        12.00
     number of Kohn-Sham states=           10
     kinetic-energy cutoff     =      20.0000  Ry
     charge density cutoff     =      60.0000  Ry
     convergence threshold     =      1.0E-06
     mixing beta               =       0.1000
     number of iterations used =           10  TF        mixing
     Exchange-correlation      = SLA PW PBX PBC ( 1  4  3  4 0 0)

     celldm(1)=   7.630469  celldm(2)=   0.000000  celldm(3)=   0.000000
     celldm(4)=   0.000000  celldm(5)=   0.000000  celldm(6)=   0.000000

     crystal axes: (cart. coord. in units of alat)
               a(1) = (   0.997000   0.000000   0.000000 )  
               a(2) = (   0.000000   0.997000   0.000000 )  
               a(3) = (   0.000000   0.000000   0.997000 )  

     reciprocal axes: (cart. coord. in units 2 pi/alat)
               b(1) = (  1.003009  0.000000  0.000000 )  
               b(2) = (  0.000000  1.003009  0.000000 )  
               b(3) = (  0.000000  0.000000  1.003009 )  


     PseudoPot. # 1 for Al read from file:
     /opt/pp/Al.pbe-nl-kjpaw_psl.1.0.0.UPF
     MD5 check sum: 1b67f78b73fe58c7924490f171ce8a1e
     Pseudo is Projector augmented-wave + core cor, Zval =  3.0
     Generated using "atomic" code by A. Dal Corso v.6.3
     Shape of augmentation charge: PSQ
     Using radial grid of 1135 points,  4 beta functions with: 
                l(1) =   0
                l(2) =   0
                l(3) =   1
                l(4) =   1
     Q(r) pseudized with 0 coefficients 


     atomic species   valence    mass     pseudopotential
        Al             3.00    26.98200     Al( 1.00)

     48 Sym. Ops., with inversion, found



   Cartesian axes

     site n.     atom                  positions (alat units)
         1           Al  tau(   1) = (   0.0000000   0.0000000   0.0000000  )
         2           Al  tau(   2) = (   0.4985002   0.4985002   0.0000000  )
         3           Al  tau(   3) = (   0.4985002   0.0000000   0.4984995  )
         4           Al  tau(   4) = (   0.0000000   0.4985002   0.4984995  )

     number of k points=     4  Marzari-Vanderbilt smearing, width (Ry)=  0.0400
                       cart. coord. in units 2pi/alat
        k(    1) = (   0.1671682   0.1671682   0.1671682), wk =   0.5925926
        k(    2) = (   0.1671682   0.1671682  -0.5015045), wk =   0.8888889
        k(    3) = (   0.1671682  -0.5015045  -0.5015045), wk =   0.4444444
        k(    4) = (  -0.5015045  -0.5015045  -0.5015045), wk =   0.0740741

     Dense  grid:     3407 G-vectors     FFT dimensions: (  20,  20,  20)

     Estimated max dynamical RAM per process >       6.01 MB

     Initial potential from superposition of free atoms

     starting charge   11.99084, renormalised to   12.00000
     Starting wfcs are   16 randomized atomic wfcs
     Checking if some PAW data can be deallocated... 

     total cpu time spent up to now is        0.6 secs

     Self-consistent Calculation

     iteration #  1     ecut=    20.00 Ry     beta= 0.10
     Davidson diagonalization with overlap
     ethr =  1.00E-02,  avg # of iterations =  2.8

     Threshold (ethr) on eigenvalues was too large:
     Diagonalizing with lowered threshold

     Davidson diagonalization with overlap
     ethr =  1.87E-04,  avg # of iterations =  2.2

     total cpu time spent up to now is        0.7 secs

     total energy              =    -158.05027775 Ry
     Harris-Foulkes estimate   =    -158.05093029 Ry
     estimated scf accuracy    <       0.02174640 Ry

     iteration #  2     ecut=    20.00 Ry     beta= 0.10
     Davidson diagonalization with overlap
     ethr =  1.81E-04,  avg # of iterations =  1.0

     total cpu time spent up to now is        0.9 secs

     total energy              =    -158.04512325 Ry
     Harris-Foulkes estimate   =    -158.05038870 Ry
     estimated scf accuracy    <       0.01875042 Ry

     iteration #  3     ecut=    20.00 Ry     beta= 0.10
     Davidson diagonalization with overlap
     ethr =  1.56E-04,  avg # of iterations =  1.0

     total cpu time spent up to now is        1.0 secs

     total energy              =    -158.04529965 Ry
     Harris-Foulkes estimate   =    -158.04534482 Ry
     estimated scf accuracy    <       0.00008327 Ry

     iteration #  4     ecut=    20.00 Ry     beta= 0.10
     Davidson diagonalization with overlap
     ethr =  6.94E-07,  avg # of iterations =  4.2

     total cpu time spent up to now is        1.2 secs

     total energy              =    -158.04543281 Ry
     Harris-Foulkes estimate   =    -158.04534676 Ry
     estimated scf accuracy    <       0.00004703 Ry

     iteration #  5     ecut=    20.00 Ry     beta= 0.10
     Davidson diagonalization with overlap
     ethr =  3.92E-07,  avg # of iterations =  1.0

     total cpu time spent up to now is        1.4 secs

     total energy              =    -158.04539519 Ry
     Harris-Foulkes estimate   =    -158.04543413 Ry
     estimated scf accuracy    <       0.00008201 Ry

     iteration #  6     ecut=    20.00 Ry     beta= 0.10
     Davidson diagonalization with overlap
     ethr =  3.92E-07,  avg # of iterations =  1.2

     total cpu time spent up to now is        1.5 secs

     End of self-consistent calculation

          k = 0.1672 0.1672 0.1672 (   669 PWs)   bands (ev):

    -2.4333   3.4781   3.4781   3.4782   9.0662   9.0662   9.0663   9.5717
     9.5717   9.5717

          k = 0.1672 0.1672-0.5015 (   658 PWs)   bands (ev):

    -0.4274  -0.4273   5.2586   5.2586   5.5587   5.5589  11.0547  11.0548
    11.0670  11.0672

          k = 0.1672-0.5015-0.5015 (   664 PWs)   bands (ev):

     1.5509   1.5510   1.5510   1.5512   7.3270   7.3271   7.3271   7.3273
    13.1955  13.1956

          k =-0.5015-0.5015-0.5015 (   672 PWs)   bands (ev):

     3.3841   3.3842   3.3842   3.3842   3.6372   3.6372   3.6372   3.6375
    19.5508  19.5508

     the Fermi energy is     8.6635 ev

!    total energy              =    -158.04539808 Ry
     Harris-Foulkes estimate   =    -158.04539877 Ry
     estimated scf accuracy    <       0.00000082 Ry

     total all-electron energy =     -1942.616520 Ry

     The total energy is the sum of the following terms:

     one-electron contribution =      12.73685848 Ry
     hartree contribution      =       0.02559119 Ry
     xc contribution           =     -10.38942944 Ry
     ewald contribution        =     -21.69613541 Ry
     one-center paw contrib.   =    -138.71932225 Ry
     smearing contrib. (-TS)   =      -0.00296064 Ry

     convergence has been achieved in   6 iterations

     Forces acting on atoms (cartesian axes, Ry/au):

     atom    1 type  1   force =     0.00000000    0.00000000    0.00000000
     atom    2 type  1   force =     0.00000000    0.00000000    0.00000000
     atom    3 type  1   force =     0.00000000    0.00000000    0.00000000
     atom    4 type  1   force =     0.00000000    0.00000000    0.00000000

     Total force =     0.000000     Total SCF correction =     0.000000


     Computing stress (Cartesian axis) and pressure

          total   stress  (Ry/bohr**3)                   (kbar)     P=    7.30
   0.00004960   0.00000000   0.00000000          7.30      0.00      0.00
   0.00000000   0.00004960   0.00000000          0.00      7.30      0.00
   0.00000000   0.00000000   0.00004960          0.00      0.00      7.30


     Writing output data file JbirBdzrDaONRgME.save/

     init_run     :      0.23s CPU      0.24s WALL (       1 calls)
     electrons    :      0.96s CPU      0.97s WALL (       1 calls)
     forces       :      0.02s CPU      0.02s WALL (       1 calls)
     stress       :      0.03s CPU      0.03s WALL (       1 calls)

     Called by init_run:
     wfcinit      :      0.01s CPU      0.01s WALL (       1 calls)
     potinit      :      0.13s CPU      0.14s WALL (       1 calls)
     hinit0       :      0.09s CPU      0.09s WALL (       1 calls)

     Called by electrons:
     c_bands      :      0.13s CPU      0.14s WALL (       7 calls)
     sum_band     :      0.03s CPU      0.03s WALL (       7 calls)
     v_of_rho     :      0.02s CPU      0.02s WALL (       7 calls)
     newd         :      0.01s CPU      0.01s WALL (       7 calls)
     PAW_pot      :      0.89s CPU      0.90s WALL (       7 calls)
     mix_rho      :      0.00s CPU      0.00s WALL (       7 calls)

     Called by c_bands:
     init_us_2    :      0.01s CPU      0.01s WALL (      68 calls)
     cegterg      :      0.12s CPU      0.12s WALL (      28 calls)

     Called by sum_band:
     sum_band:bec :      0.00s CPU      0.00s WALL (      28 calls)
     addusdens    :      0.01s CPU      0.01s WALL (       7 calls)

     Called by *egterg:
     h_psi        :      0.07s CPU      0.07s WALL (      86 calls)
     s_psi        :      0.02s CPU      0.02s WALL (      86 calls)
     g_psi        :      0.00s CPU      0.00s WALL (      54 calls)
     cdiaghg      :      0.01s CPU      0.01s WALL (      78 calls)

     Called by h_psi:
     h_psi:pot    :      0.07s CPU      0.07s WALL (      86 calls)
     h_psi:calbec :      0.02s CPU      0.02s WALL (      86 calls)
     vloc_psi     :      0.04s CPU      0.04s WALL (      86 calls)
     add_vuspsi   :      0.02s CPU      0.02s WALL (      86 calls)

     General routines
     calbec       :      0.03s CPU      0.03s WALL (     134 calls)
     fft          :      0.00s CPU      0.00s WALL (     103 calls)
     ffts         :      0.00s CPU      0.00s WALL (       7 calls)
     fftw         :      0.03s CPU      0.04s WALL (    1770 calls)

     Parallel routines

     PWSCF        :      1.54s CPU      1.57s WALL


   This run was terminated on:   0:56:16   9Oct2020            

=------------------------------------------------------------------------------=
   JOB DONE.
=------------------------------------------------------------------------------=
