
     Program PWSCF v.6.4.1 starts on  9Oct2020 at  0:56:21 

     This program is part of the open-source Quantum ESPRESSO suite
     for quantum simulation of materials; please cite
         "P. Giannozzi et al., J. Phys.:Condens. Matter 21 395502 (2009);
         "P. Giannozzi et al., J. Phys.:Condens. Matter 29 465901 (2017);
          URL http://www.quantum-espresso.org", 
     in publications or presentations arising from this work. More details at
     http://www.quantum-espresso.org/quote

     Parallel version (MPI), running on     1 processors

     MPI processes distributed on     1 nodes
     Reading input from wd/eos/eos_003.in
Warning: card &IONS ignored
Warning: card ION_DYNAMICS = 'BFGS', ignored
Warning: card / ignored
Warning: card &CELL ignored
Warning: card CELL_DYNAMICS = 'BFGS', ignored
Warning: card CELL_FACTOR = 2.0, ignored
Warning: card PRESS = 0.0, ignored
Warning: card / ignored

     Current dimensions of program PWSCF are:
     Max number of different atomic species (ntypx) = 10
     Max number of k-points (npk) =  40000
     Max angular momentum in pseudopotentials (lmaxx) =  3
               file Al.pbe-nl-kjpaw_psl.1.0.0.UPF: wavefunction(s)  3S 3P renormalized

     Subspace diagonalization in iterative solution of the eigenvalue problem:
     a serial algorithm will be used

     Found symmetry operation: I + ( -0.5000 -0.5000  0.0000)
     This is a supercell, fractional translations are disabled
     Message from routine setup:
     DEPRECATED: symmetry with ibrav=0, use correct ibrav instead

     G-vector sticks info
     --------------------
     sticks:   dense  smooth     PW     G-vecs:    dense   smooth      PW
     Sum         277     277    121                 3431     3431    1021



     bravais-lattice index     =            0
     lattice parameter (alat)  =       7.6305  a.u.
     unit-cell volume          =     445.6110 (a.u.)^3
     number of atoms/cell      =            4
     number of atomic types    =            1
     number of electrons       =        12.00
     number of Kohn-Sham states=           10
     kinetic-energy cutoff     =      20.0000  Ry
     charge density cutoff     =      60.0000  Ry
     convergence threshold     =      1.0E-06
     mixing beta               =       0.1000
     number of iterations used =           10  TF        mixing
     Exchange-correlation      = SLA PW PBX PBC ( 1  4  3  4 0 0)

     celldm(1)=   7.630469  celldm(2)=   0.000000  celldm(3)=   0.000000
     celldm(4)=   0.000000  celldm(5)=   0.000000  celldm(6)=   0.000000

     crystal axes: (cart. coord. in units of alat)
               a(1) = (   1.001000   0.000000   0.000000 )  
               a(2) = (   0.000000   1.001000   0.000000 )  
               a(3) = (   0.000000   0.000000   1.001000 )  

     reciprocal axes: (cart. coord. in units 2 pi/alat)
               b(1) = (  0.999001  0.000000  0.000000 )  
               b(2) = (  0.000000  0.999001  0.000000 )  
               b(3) = (  0.000000  0.000000  0.999001 )  


     PseudoPot. # 1 for Al read from file:
     /opt/pp/Al.pbe-nl-kjpaw_psl.1.0.0.UPF
     MD5 check sum: 1b67f78b73fe58c7924490f171ce8a1e
     Pseudo is Projector augmented-wave + core cor, Zval =  3.0
     Generated using "atomic" code by A. Dal Corso v.6.3
     Shape of augmentation charge: PSQ
     Using radial grid of 1135 points,  4 beta functions with: 
                l(1) =   0
                l(2) =   0
                l(3) =   1
                l(4) =   1
     Q(r) pseudized with 0 coefficients 


     atomic species   valence    mass     pseudopotential
        Al             3.00    26.98200     Al( 1.00)

     48 Sym. Ops., with inversion, found



   Cartesian axes

     site n.     atom                  positions (alat units)
         1           Al  tau(   1) = (   0.0000000   0.0000000   0.0000000  )
         2           Al  tau(   2) = (   0.5005002   0.5005002   0.0000000  )
         3           Al  tau(   3) = (   0.5005002   0.0000000   0.5004995  )
         4           Al  tau(   4) = (   0.0000000   0.5005002   0.5004995  )

     number of k points=     4  Marzari-Vanderbilt smearing, width (Ry)=  0.0400
                       cart. coord. in units 2pi/alat
        k(    1) = (   0.1665002   0.1665002   0.1665002), wk =   0.5925926
        k(    2) = (   0.1665002   0.1665002  -0.4995005), wk =   0.8888889
        k(    3) = (   0.1665002  -0.4995005  -0.4995005), wk =   0.4444444
        k(    4) = (  -0.4995005  -0.4995005  -0.4995005), wk =   0.0740741

     Dense  grid:     3431 G-vectors     FFT dimensions: (  20,  20,  20)

     Estimated max dynamical RAM per process >       6.05 MB

     Initial potential from superposition of free atoms

     starting charge   11.99084, renormalised to   12.00000
     Starting wfcs are   16 randomized atomic wfcs
     Checking if some PAW data can be deallocated... 

     total cpu time spent up to now is        0.6 secs

     Self-consistent Calculation

     iteration #  1     ecut=    20.00 Ry     beta= 0.10
     Davidson diagonalization with overlap
     ethr =  1.00E-02,  avg # of iterations =  2.8

     Threshold (ethr) on eigenvalues was too large:
     Diagonalizing with lowered threshold

     Davidson diagonalization with overlap
     ethr =  1.88E-04,  avg # of iterations =  2.2

     total cpu time spent up to now is        0.7 secs

     total energy              =    -158.05040845 Ry
     Harris-Foulkes estimate   =    -158.05105997 Ry
     estimated scf accuracy    <       0.02182282 Ry

     iteration #  2     ecut=    20.00 Ry     beta= 0.10
     Davidson diagonalization with overlap
     ethr =  1.82E-04,  avg # of iterations =  1.0

     total cpu time spent up to now is        0.9 secs

     total energy              =    -158.04522007 Ry
     Harris-Foulkes estimate   =    -158.05052012 Ry
     estimated scf accuracy    <       0.01882845 Ry

     iteration #  3     ecut=    20.00 Ry     beta= 0.10
     Davidson diagonalization with overlap
     ethr =  1.57E-04,  avg # of iterations =  1.0

     total cpu time spent up to now is        1.0 secs

     total energy              =    -158.04541372 Ry
     Harris-Foulkes estimate   =    -158.04545268 Ry
     estimated scf accuracy    <       0.00007811 Ry

     iteration #  4     ecut=    20.00 Ry     beta= 0.10
     Davidson diagonalization with overlap
     ethr =  6.51E-07,  avg # of iterations =  4.2

     total cpu time spent up to now is        1.2 secs

     total energy              =    -158.04555044 Ry
     Harris-Foulkes estimate   =    -158.04546222 Ry
     estimated scf accuracy    <       0.00004725 Ry

     iteration #  5     ecut=    20.00 Ry     beta= 0.10
     Davidson diagonalization with overlap
     ethr =  3.94E-07,  avg # of iterations =  1.0

     total cpu time spent up to now is        1.3 secs

     total energy              =    -158.04551050 Ry
     Harris-Foulkes estimate   =    -158.04555198 Ry
     estimated scf accuracy    <       0.00009177 Ry

     iteration #  6     ecut=    20.00 Ry     beta= 0.10
     Davidson diagonalization with overlap
     ethr =  3.94E-07,  avg # of iterations =  1.2

     total cpu time spent up to now is        1.5 secs

     End of self-consistent calculation

          k = 0.1665 0.1665 0.1665 (   687 PWs)   bands (ev):

    -2.4807   3.3877   3.3877   3.3878   8.9480   8.9480   8.9481   9.4185
     9.4185   9.4186

          k = 0.1665 0.1665-0.4995 (   658 PWs)   bands (ev):

    -0.4900  -0.4899   5.1683   5.1684   5.4399   5.4400  10.9222  10.9223
    10.9244  10.9245

          k = 0.1665-0.4995-0.4995 (   664 PWs)   bands (ev):

     1.4737   1.4738   1.4738   1.4740   7.2076   7.2076   7.2076   7.2078
    13.0262  13.0264

          k =-0.4995-0.4995-0.4995 (   672 PWs)   bands (ev):

     3.3076   3.3078   3.3078   3.3078   3.5287   3.5287   3.5287   3.5290
    19.2975  19.2976

     the Fermi energy is     8.5436 ev

!    total energy              =    -158.04551295 Ry
     Harris-Foulkes estimate   =    -158.04551370 Ry
     estimated scf accuracy    <       0.00000096 Ry

     total all-electron energy =     -1942.616635 Ry

     The total energy is the sum of the following terms:

     one-electron contribution =      12.62007189 Ry
     hartree contribution      =       0.02526550 Ry
     xc contribution           =     -10.36356194 Ry
     ewald contribution        =     -21.60943757 Ry
     one-center paw contrib.   =    -138.71485810 Ry
     smearing contrib. (-TS)   =      -0.00299272 Ry

     convergence has been achieved in   6 iterations

     Forces acting on atoms (cartesian axes, Ry/au):

     atom    1 type  1   force =     0.00000000    0.00000000    0.00000000
     atom    2 type  1   force =     0.00000000    0.00000000    0.00000000
     atom    3 type  1   force =     0.00000000    0.00000000    0.00000000
     atom    4 type  1   force =     0.00000000    0.00000000    0.00000000

     Total force =     0.000000     Total SCF correction =     0.000000


     Computing stress (Cartesian axis) and pressure

          total   stress  (Ry/bohr**3)                   (kbar)     P=   -2.89
  -0.00001962   0.00000000   0.00000000         -2.89      0.00      0.00
   0.00000000  -0.00001962   0.00000000          0.00     -2.89      0.00
   0.00000000   0.00000000  -0.00001962          0.00      0.00     -2.89


     Writing output data file viaUjHqNgjlQFWNJ.save/

     init_run     :      0.22s CPU      0.24s WALL (       1 calls)
     electrons    :      0.94s CPU      0.94s WALL (       1 calls)
     forces       :      0.02s CPU      0.02s WALL (       1 calls)
     stress       :      0.03s CPU      0.03s WALL (       1 calls)

     Called by init_run:
     wfcinit      :      0.01s CPU      0.01s WALL (       1 calls)
     potinit      :      0.12s CPU      0.14s WALL (       1 calls)
     hinit0       :      0.08s CPU      0.08s WALL (       1 calls)

     Called by electrons:
     c_bands      :      0.13s CPU      0.13s WALL (       7 calls)
     sum_band     :      0.03s CPU      0.03s WALL (       7 calls)
     v_of_rho     :      0.02s CPU      0.02s WALL (       7 calls)
     newd         :      0.01s CPU      0.01s WALL (       7 calls)
     PAW_pot      :      0.87s CPU      0.88s WALL (       7 calls)
     mix_rho      :      0.00s CPU      0.00s WALL (       7 calls)

     Called by c_bands:
     init_us_2    :      0.01s CPU      0.01s WALL (      68 calls)
     cegterg      :      0.12s CPU      0.12s WALL (      28 calls)

     Called by sum_band:
     sum_band:bec :      0.00s CPU      0.00s WALL (      28 calls)
     addusdens    :      0.01s CPU      0.01s WALL (       7 calls)

     Called by *egterg:
     h_psi        :      0.07s CPU      0.07s WALL (      86 calls)
     s_psi        :      0.01s CPU      0.02s WALL (      86 calls)
     g_psi        :      0.00s CPU      0.00s WALL (      54 calls)
     cdiaghg      :      0.01s CPU      0.01s WALL (      78 calls)

     Called by h_psi:
     h_psi:pot    :      0.07s CPU      0.07s WALL (      86 calls)
     h_psi:calbec :      0.02s CPU      0.02s WALL (      86 calls)
     vloc_psi     :      0.04s CPU      0.04s WALL (      86 calls)
     add_vuspsi   :      0.01s CPU      0.02s WALL (      86 calls)

     General routines
     calbec       :      0.03s CPU      0.03s WALL (     134 calls)
     fft          :      0.00s CPU      0.00s WALL (     103 calls)
     ffts         :      0.00s CPU      0.00s WALL (       7 calls)
     fftw         :      0.03s CPU      0.03s WALL (    1762 calls)

     Parallel routines

     PWSCF        :      1.53s CPU      1.55s WALL


   This run was terminated on:   0:56:23   9Oct2020            

=------------------------------------------------------------------------------=
   JOB DONE.
=------------------------------------------------------------------------------=
