
     Program PWSCF v.6.4.1 starts on  9Oct2020 at  0:56:25 

     This program is part of the open-source Quantum ESPRESSO suite
     for quantum simulation of materials; please cite
         "P. Giannozzi et al., J. Phys.:Condens. Matter 21 395502 (2009);
         "P. Giannozzi et al., J. Phys.:Condens. Matter 29 465901 (2017);
          URL http://www.quantum-espresso.org", 
     in publications or presentations arising from this work. More details at
     http://www.quantum-espresso.org/quote

     Parallel version (MPI), running on     1 processors

     MPI processes distributed on     1 nodes
     Reading input from wd/eos/eos_004.in
Warning: card &IONS ignored
Warning: card ION_DYNAMICS = 'BFGS', ignored
Warning: card / ignored
Warning: card &CELL ignored
Warning: card CELL_DYNAMICS = 'BFGS', ignored
Warning: card CELL_FACTOR = 2.0, ignored
Warning: card PRESS = 0.0, ignored
Warning: card / ignored

     Current dimensions of program PWSCF are:
     Max number of different atomic species (ntypx) = 10
     Max number of k-points (npk) =  40000
     Max angular momentum in pseudopotentials (lmaxx) =  3
               file Al.pbe-nl-kjpaw_psl.1.0.0.UPF: wavefunction(s)  3S 3P renormalized

     Subspace diagonalization in iterative solution of the eigenvalue problem:
     a serial algorithm will be used

     Found symmetry operation: I + ( -0.5000 -0.5000  0.0000)
     This is a supercell, fractional translations are disabled
     Message from routine setup:
     DEPRECATED: symmetry with ibrav=0, use correct ibrav instead

     G-vector sticks info
     --------------------
     sticks:   dense  smooth     PW     G-vecs:    dense   smooth      PW
     Sum         285     285    121                 3575     3575    1021



     bravais-lattice index     =            0
     lattice parameter (alat)  =       7.6305  a.u.
     unit-cell volume          =     448.2874 (a.u.)^3
     number of atoms/cell      =            4
     number of atomic types    =            1
     number of electrons       =        12.00
     number of Kohn-Sham states=           10
     kinetic-energy cutoff     =      20.0000  Ry
     charge density cutoff     =      60.0000  Ry
     convergence threshold     =      1.0E-06
     mixing beta               =       0.1000
     number of iterations used =           10  TF        mixing
     Exchange-correlation      = SLA PW PBX PBC ( 1  4  3  4 0 0)

     celldm(1)=   7.630469  celldm(2)=   0.000000  celldm(3)=   0.000000
     celldm(4)=   0.000000  celldm(5)=   0.000000  celldm(6)=   0.000000

     crystal axes: (cart. coord. in units of alat)
               a(1) = (   1.003000   0.000000   0.000000 )  
               a(2) = (   0.000000   1.003000   0.000000 )  
               a(3) = (   0.000000   0.000000   1.003000 )  

     reciprocal axes: (cart. coord. in units 2 pi/alat)
               b(1) = (  0.997009  0.000000  0.000000 )  
               b(2) = (  0.000000  0.997009  0.000000 )  
               b(3) = (  0.000000  0.000000  0.997009 )  


     PseudoPot. # 1 for Al read from file:
     /opt/pp/Al.pbe-nl-kjpaw_psl.1.0.0.UPF
     MD5 check sum: 1b67f78b73fe58c7924490f171ce8a1e
     Pseudo is Projector augmented-wave + core cor, Zval =  3.0
     Generated using "atomic" code by A. Dal Corso v.6.3
     Shape of augmentation charge: PSQ
     Using radial grid of 1135 points,  4 beta functions with: 
                l(1) =   0
                l(2) =   0
                l(3) =   1
                l(4) =   1
     Q(r) pseudized with 0 coefficients 


     atomic species   valence    mass     pseudopotential
        Al             3.00    26.98200     Al( 1.00)

     48 Sym. Ops., with inversion, found



   Cartesian axes

     site n.     atom                  positions (alat units)
         1           Al  tau(   1) = (   0.0000000   0.0000000   0.0000000  )
         2           Al  tau(   2) = (   0.5015002   0.5015002   0.0000000  )
         3           Al  tau(   3) = (   0.5015002   0.0000000   0.5014995  )
         4           Al  tau(   4) = (   0.0000000   0.5015002   0.5014995  )

     number of k points=     4  Marzari-Vanderbilt smearing, width (Ry)=  0.0400
                       cart. coord. in units 2pi/alat
        k(    1) = (   0.1661682   0.1661682   0.1661682), wk =   0.5925926
        k(    2) = (   0.1661682   0.1661682  -0.4985045), wk =   0.8888889
        k(    3) = (   0.1661682  -0.4985045  -0.4985045), wk =   0.4444444
        k(    4) = (  -0.4985045  -0.4985045  -0.4985045), wk =   0.0740741

     Dense  grid:     3575 G-vectors     FFT dimensions: (  20,  20,  20)

     Estimated max dynamical RAM per process >       6.24 MB

     Initial potential from superposition of free atoms

     starting charge   11.99084, renormalised to   12.00000
     Starting wfcs are   16 randomized atomic wfcs
     Checking if some PAW data can be deallocated... 

     total cpu time spent up to now is        0.5 secs

     Self-consistent Calculation

     iteration #  1     ecut=    20.00 Ry     beta= 0.10
     Davidson diagonalization with overlap
     ethr =  1.00E-02,  avg # of iterations =  2.8

     Threshold (ethr) on eigenvalues was too large:
     Diagonalizing with lowered threshold

     Davidson diagonalization with overlap
     ethr =  1.88E-04,  avg # of iterations =  2.2

     total cpu time spent up to now is        0.7 secs

     total energy              =    -158.05051150 Ry
     Harris-Foulkes estimate   =    -158.05116444 Ry
     estimated scf accuracy    <       0.02188123 Ry

     iteration #  2     ecut=    20.00 Ry     beta= 0.10
     Davidson diagonalization with overlap
     ethr =  1.82E-04,  avg # of iterations =  1.0

     total cpu time spent up to now is        0.9 secs

     total energy              =    -158.04534199 Ry
     Harris-Foulkes estimate   =    -158.05063540 Ry
     estimated scf accuracy    <       0.01886482 Ry

     iteration #  3     ecut=    20.00 Ry     beta= 0.10
     Davidson diagonalization with overlap
     ethr =  1.57E-04,  avg # of iterations =  1.0

     total cpu time spent up to now is        1.0 secs

     total energy              =    -158.04552365 Ry
     Harris-Foulkes estimate   =    -158.04557471 Ry
     estimated scf accuracy    <       0.00008856 Ry

     iteration #  4     ecut=    20.00 Ry     beta= 0.10
     Davidson diagonalization with overlap
     ethr =  7.38E-07,  avg # of iterations =  4.5

     total cpu time spent up to now is        1.2 secs

     total energy              =    -158.04566130 Ry
     Harris-Foulkes estimate   =    -158.04557255 Ry
     estimated scf accuracy    <       0.00004724 Ry

     iteration #  5     ecut=    20.00 Ry     beta= 0.10
     Davidson diagonalization with overlap
     ethr =  3.94E-07,  avg # of iterations =  1.0

     total cpu time spent up to now is        1.3 secs

     total energy              =    -158.04561938 Ry
     Harris-Foulkes estimate   =    -158.04566290 Ry
     estimated scf accuracy    <       0.00009871 Ry

     iteration #  6     ecut=    20.00 Ry     beta= 0.10
     Davidson diagonalization with overlap
     ethr =  3.94E-07,  avg # of iterations =  1.0

     total cpu time spent up to now is        1.5 secs

     total energy              =    -158.04562228 Ry
     Harris-Foulkes estimate   =    -158.04562231 Ry
     estimated scf accuracy    <       0.00000164 Ry

     iteration #  7     ecut=    20.00 Ry     beta= 0.10
     Davidson diagonalization with overlap
     ethr =  1.37E-08,  avg # of iterations =  2.8

     total cpu time spent up to now is        1.7 secs

     total energy              =    -158.04562321 Ry
     Harris-Foulkes estimate   =    -158.04562292 Ry
     estimated scf accuracy    <       0.00000110 Ry

     iteration #  8     ecut=    20.00 Ry     beta= 0.10
     Davidson diagonalization with overlap
     ethr =  9.19E-09,  avg # of iterations =  1.0

     total cpu time spent up to now is        1.8 secs

     total energy              =    -158.04562535 Ry
     Harris-Foulkes estimate   =    -158.04562322 Ry
     estimated scf accuracy    <       0.00000206 Ry

     iteration #  9     ecut=    20.00 Ry     beta= 0.10
     Davidson diagonalization with overlap
     ethr =  9.19E-09,  avg # of iterations =  1.2

     total cpu time spent up to now is        2.0 secs

     total energy              =    -158.04562339 Ry
     Harris-Foulkes estimate   =    -158.04562544 Ry
     estimated scf accuracy    <       0.00000912 Ry

     iteration # 10     ecut=    20.00 Ry     beta= 0.10
     Davidson diagonalization with overlap
     ethr =  9.19E-09,  avg # of iterations =  1.0

     total cpu time spent up to now is        2.1 secs

     total energy              =    -158.04562239 Ry
     Harris-Foulkes estimate   =    -158.04562346 Ry
     estimated scf accuracy    <       0.00000264 Ry

     iteration # 11     ecut=    20.00 Ry     beta= 0.10
     Davidson diagonalization with overlap
     ethr =  9.19E-09,  avg # of iterations =  2.5

     total cpu time spent up to now is        2.3 secs

     total energy              =    -158.04562298 Ry
     Harris-Foulkes estimate   =    -158.04562275 Ry
     estimated scf accuracy    <       0.00000253 Ry

     iteration # 12     ecut=    20.00 Ry     beta= 0.10
     Davidson diagonalization with overlap
     ethr =  9.19E-09,  avg # of iterations =  3.0

     total cpu time spent up to now is        2.4 secs

     total energy              =    -158.04562301 Ry
     Harris-Foulkes estimate   =    -158.04562369 Ry
     estimated scf accuracy    <       0.00000688 Ry

     iteration # 13     ecut=    20.00 Ry     beta= 0.10
     Davidson diagonalization with overlap
     ethr =  9.19E-09,  avg # of iterations =  1.0

     total cpu time spent up to now is        2.6 secs

     total energy              =    -158.04562203 Ry
     Harris-Foulkes estimate   =    -158.04562303 Ry
     estimated scf accuracy    <       0.00000378 Ry

     iteration # 14     ecut=    20.00 Ry     beta= 0.10
     Davidson diagonalization with overlap
     ethr =  9.19E-09,  avg # of iterations =  2.0

     total cpu time spent up to now is        2.7 secs

     End of self-consistent calculation

          k = 0.1662 0.1662 0.1662 (   687 PWs)   bands (ev):

    -2.5044   3.3425   3.3425   3.3425   8.8891   8.8891   8.8892   9.3422
     9.3422   9.3422

          k = 0.1662 0.1662-0.4985 (   682 PWs)   bands (ev):

    -0.5217  -0.5216   5.1227   5.1229   5.3797   5.3799  10.8489  10.8491
    10.8588  10.8589

          k = 0.1662-0.4985-0.4985 (   664 PWs)   bands (ev):

     1.4350   1.4352   1.4352   1.4354   7.1479   7.1481   7.1481   7.1483
    12.9419  12.9419

          k =-0.4985-0.4985-0.4985 (   672 PWs)   bands (ev):

     3.2695   3.2698   3.2698   3.2698   3.4743   3.4743   3.4743   3.4747
    19.1713  19.1715

     the Fermi energy is     8.4837 ev

!    total energy              =    -158.04562221 Ry
     Harris-Foulkes estimate   =    -158.04562222 Ry
     estimated scf accuracy    <       0.00000002 Ry

     total all-electron energy =     -1942.616744 Ry

     The total energy is the sum of the following terms:

     one-electron contribution =      12.56223798 Ry
     hartree contribution      =       0.02513071 Ry
     xc contribution           =     -10.35083656 Ry
     ewald contribution        =     -21.56634796 Ry
     one-center paw contrib.   =    -138.71279538 Ry
     smearing contrib. (-TS)   =      -0.00301100 Ry

     convergence has been achieved in  14 iterations

     Forces acting on atoms (cartesian axes, Ry/au):

     atom    1 type  1   force =     0.00000000    0.00000000    0.00000000
     atom    2 type  1   force =     0.00000000    0.00000000    0.00000000
     atom    3 type  1   force =     0.00000000    0.00000000    0.00000000
     atom    4 type  1   force =     0.00000000    0.00000000    0.00000000

     Total force =     0.000000     Total SCF correction =     0.000000


     Computing stress (Cartesian axis) and pressure

          total   stress  (Ry/bohr**3)                   (kbar)     P=   -7.41
  -0.00005038   0.00000000   0.00000000         -7.41      0.00      0.00
   0.00000000  -0.00005038   0.00000000          0.00     -7.41      0.00
   0.00000000   0.00000000  -0.00005038          0.00      0.00     -7.41


     Writing output data file VzybRiaQsTRQlImw.save/

     init_run     :      0.23s CPU      0.24s WALL (       1 calls)
     electrons    :      2.18s CPU      2.18s WALL (       1 calls)
     forces       :      0.01s CPU      0.01s WALL (       1 calls)
     stress       :      0.03s CPU      0.03s WALL (       1 calls)

     Called by init_run:
     wfcinit      :      0.01s CPU      0.01s WALL (       1 calls)
     potinit      :      0.13s CPU      0.13s WALL (       1 calls)
     hinit0       :      0.08s CPU      0.08s WALL (       1 calls)

     Called by electrons:
     c_bands      :      0.27s CPU      0.28s WALL (      15 calls)
     sum_band     :      0.07s CPU      0.07s WALL (      15 calls)
     v_of_rho     :      0.04s CPU      0.04s WALL (      15 calls)
     newd         :      0.03s CPU      0.03s WALL (      15 calls)
     PAW_pot      :      1.89s CPU      1.90s WALL (      15 calls)
     mix_rho      :      0.01s CPU      0.01s WALL (      15 calls)

     Called by c_bands:
     init_us_2    :      0.01s CPU      0.01s WALL (     132 calls)
     cegterg      :      0.25s CPU      0.25s WALL (      60 calls)

     Called by sum_band:
     sum_band:bec :      0.00s CPU      0.00s WALL (      60 calls)
     addusdens    :      0.02s CPU      0.02s WALL (      15 calls)

     Called by *egterg:
     h_psi        :      0.14s CPU      0.14s WALL (     176 calls)
     s_psi        :      0.03s CPU      0.03s WALL (     176 calls)
     g_psi        :      0.00s CPU      0.00s WALL (     112 calls)
     cdiaghg      :      0.02s CPU      0.02s WALL (     168 calls)

     Called by h_psi:
     h_psi:pot    :      0.14s CPU      0.14s WALL (     176 calls)
     h_psi:calbec :      0.04s CPU      0.04s WALL (     176 calls)
     vloc_psi     :      0.07s CPU      0.08s WALL (     176 calls)
     add_vuspsi   :      0.03s CPU      0.03s WALL (     176 calls)

     General routines
     calbec       :      0.06s CPU      0.06s WALL (     256 calls)
     fft          :      0.00s CPU      0.00s WALL (     191 calls)
     ffts         :      0.00s CPU      0.00s WALL (      15 calls)
     fftw         :      0.07s CPU      0.07s WALL (    3606 calls)

     Parallel routines

     PWSCF        :      2.76s CPU      2.77s WALL


   This run was terminated on:   0:56:27   9Oct2020            

=------------------------------------------------------------------------------=
   JOB DONE.
=------------------------------------------------------------------------------=
