
     Program PWSCF v.6.4.1 starts on 10Jun2020 at 21:20: 3 

     This program is part of the open-source Quantum ESPRESSO suite
     for quantum simulation of materials; please cite
         "P. Giannozzi et al., J. Phys.:Condens. Matter 21 395502 (2009);
         "P. Giannozzi et al., J. Phys.:Condens. Matter 29 465901 (2017);
          URL http://www.quantum-espresso.org", 
     in publications or presentations arising from this work. More details at
     http://www.quantum-espresso.org/quote

     Parallel version (MPI), running on     1 processors

     MPI processes distributed on     1 nodes
     Reading input from wd/eos/eos_006.in
Warning: card &IONS ignored
Warning: card ION_DYNAMICS = 'BFGS', ignored
Warning: card / ignored
Warning: card &CELL ignored
Warning: card CELL_DYNAMICS = 'BFGS', ignored
Warning: card CELL_FACTOR = 2.0, ignored
Warning: card PRESS = 0.0, ignored
Warning: card / ignored

     Current dimensions of program PWSCF are:
     Max number of different atomic species (ntypx) = 10
     Max number of k-points (npk) =  40000
     Max angular momentum in pseudopotentials (lmaxx) =  3
               file Al.pbe-nl-kjpaw_psl.1.0.0.UPF: wavefunction(s)  3S 3P renormalized

     Subspace diagonalization in iterative solution of the eigenvalue problem:
     a serial algorithm will be used

     Found symmetry operation: I + ( -0.5000 -0.5000 -0.5000)
     This is a supercell, fractional translations are disabled
     Message from routine setup:
     DEPRECATED: symmetry with ibrav=0, use correct ibrav instead

     G-vector sticks info
     --------------------
     sticks:   dense  smooth     PW     G-vecs:    dense   smooth      PW
     Sum         285     285     97                 3575     3575     739



     bravais-lattice index     =            0
     lattice parameter (alat)  =       5.9482  a.u.
     unit-cell volume          =     211.7173 (a.u.)^3
     number of atoms/cell      =            2
     number of atomic types    =            1
     number of electrons       =         6.00
     number of Kohn-Sham states=            7
     kinetic-energy cutoff     =      25.0000  Ry
     charge density cutoff     =     100.0000  Ry
     convergence threshold     =      1.0E-06
     mixing beta               =       0.1000
     number of iterations used =           10  TF        mixing
     Exchange-correlation      = SLA PW PBX PBC ( 1  4  3  4 0 0)

     celldm(1)=   5.948184  celldm(2)=   0.000000  celldm(3)=   0.000000
     celldm(4)=   0.000000  celldm(5)=   0.000000  celldm(6)=   0.000000

     crystal axes: (cart. coord. in units of alat)
               a(1) = (   1.002000   0.000000   0.000000 )  
               a(2) = (   0.000000   1.002000   0.000000 )  
               a(3) = (   0.000000   0.000000   1.002000 )  

     reciprocal axes: (cart. coord. in units 2 pi/alat)
               b(1) = (  0.998004  0.000000  0.000000 )  
               b(2) = (  0.000000  0.998004  0.000000 )  
               b(3) = (  0.000000  0.000000  0.998004 )  


     PseudoPot. # 1 for Al read from file:
     /opt/pp/Al.pbe-nl-kjpaw_psl.1.0.0.UPF
     MD5 check sum: 1b67f78b73fe58c7924490f171ce8a1e
     Pseudo is Projector augmented-wave + core cor, Zval =  3.0
     Generated using "atomic" code by A. Dal Corso v.6.3
     Shape of augmentation charge: PSQ
     Using radial grid of 1135 points,  4 beta functions with: 
                l(1) =   0
                l(2) =   0
                l(3) =   1
                l(4) =   1
     Q(r) pseudized with 0 coefficients 


     atomic species   valence    mass     pseudopotential
        Al             3.00    26.98200     Al( 1.00)

     48 Sym. Ops., with inversion, found



   Cartesian axes

     site n.     atom                  positions (alat units)
         1           Al  tau(   1) = (   0.0000000   0.0000000   0.0000000  )
         2           Al  tau(   2) = (   0.5010000   0.5010000   0.5010000  )

     number of k points=     4  Marzari-Vanderbilt smearing, width (Ry)=  0.0400
                       cart. coord. in units 2pi/alat
        k(    1) = (   0.1663340   0.1663340   0.1663340), wk =   0.5925926
        k(    2) = (   0.1663340   0.1663340  -0.4990020), wk =   0.8888889
        k(    3) = (   0.1663340  -0.4990020  -0.4990020), wk =   0.4444444
        k(    4) = (  -0.4990020  -0.4990020  -0.4990020), wk =   0.0740741

     Dense  grid:     3575 G-vectors     FFT dimensions: (  20,  20,  20)

     Estimated max dynamical RAM per process >       5.55 MB

     Initial potential from superposition of free atoms

     starting charge    5.99542, renormalised to    6.00000
     Starting wfcs are    8 randomized atomic wfcs
     Checking if some PAW data can be deallocated... 

     total cpu time spent up to now is        0.7 secs

     Self-consistent Calculation

     iteration #  1     ecut=    25.00 Ry     beta= 0.10
     Davidson diagonalization with overlap
     ethr =  1.00E-02,  avg # of iterations =  3.2

     Threshold (ethr) on eigenvalues was too large:
     Diagonalizing with lowered threshold

     Davidson diagonalization with overlap
     ethr =  2.58E-04,  avg # of iterations =  2.2

     total cpu time spent up to now is        0.8 secs

     total energy              =     -78.98148005 Ry
     Harris-Foulkes estimate   =     -78.98206144 Ry
     estimated scf accuracy    <       0.01518215 Ry

     iteration #  2     ecut=    25.00 Ry     beta= 0.10
     Davidson diagonalization with overlap
     ethr =  2.53E-04,  avg # of iterations =  1.0

     total cpu time spent up to now is        0.9 secs

     total energy              =     -78.97703819 Ry
     Harris-Foulkes estimate   =     -78.98154102 Ry
     estimated scf accuracy    <       0.01314326 Ry

     iteration #  3     ecut=    25.00 Ry     beta= 0.10
     Davidson diagonalization with overlap
     ethr =  2.19E-04,  avg # of iterations =  1.0

     total cpu time spent up to now is        1.0 secs

     total energy              =     -78.97724356 Ry
     Harris-Foulkes estimate   =     -78.97725427 Ry
     estimated scf accuracy    <       0.00003867 Ry

     iteration #  4     ecut=    25.00 Ry     beta= 0.10
     Davidson diagonalization with overlap
     ethr =  6.44E-07,  avg # of iterations =  5.0

     total cpu time spent up to now is        1.1 secs

     total energy              =     -78.97732231 Ry
     Harris-Foulkes estimate   =     -78.97727798 Ry
     estimated scf accuracy    <       0.00003001 Ry

     iteration #  5     ecut=    25.00 Ry     beta= 0.10
     Davidson diagonalization with overlap
     ethr =  5.00E-07,  avg # of iterations =  1.0

     total cpu time spent up to now is        1.2 secs

     total energy              =     -78.97729253 Ry
     Harris-Foulkes estimate   =     -78.97732368 Ry
     estimated scf accuracy    <       0.00006720 Ry

     iteration #  6     ecut=    25.00 Ry     beta= 0.10
     Davidson diagonalization with overlap
     ethr =  5.00E-07,  avg # of iterations =  1.0

     total cpu time spent up to now is        1.3 secs

     End of self-consistent calculation

          k = 0.1663 0.1663 0.1663 (   440 PWs)   bands (ev):

    -1.8203   7.3734   7.3734   8.4364  16.5184  16.5184  16.7168

          k = 0.1663 0.1663-0.4990 (   454 PWs)   bands (ev):

     1.4204   1.4204  10.4347  10.4348  11.1929  11.1930  19.4398

          k = 0.1663-0.4990-0.4990 (   432 PWs)   bands (ev):

     4.3073   4.3073   4.9187   4.9189  13.4896  13.4896  14.3178

          k =-0.4990-0.4990-0.4990 (   432 PWs)   bands (ev):

     7.3712   7.3712   7.3712   7.3713   7.3713   7.3713   9.0938

     the Fermi energy is     8.1823 ev

!    total energy              =     -78.97729333 Ry
     Harris-Foulkes estimate   =     -78.97729413 Ry
     estimated scf accuracy    <       0.00000084 Ry

     total all-electron energy =      -971.262854 Ry

     The total energy is the sum of the following terms:

     one-electron contribution =       6.57581916 Ry
     hartree contribution      =       0.00891885 Ry
     xc contribution           =      -5.22655886 Ry
     ewald contribution        =     -10.99082567 Ry
     one-center paw contrib.   =     -69.35287693 Ry
     smearing contrib. (-TS)   =       0.00823012 Ry

     convergence has been achieved in   6 iterations

     Forces acting on atoms (cartesian axes, Ry/au):

     atom    1 type  1   force =     0.00000000    0.00000000    0.00000000
     atom    2 type  1   force =     0.00000000    0.00000000    0.00000000

     Total force =     0.000000     Total SCF correction =     0.000000


     Computing stress (Cartesian axis) and pressure

          total   stress  (Ry/bohr**3)                   (kbar)     P=   -7.93
  -0.00005392   0.00000000   0.00000000         -7.93      0.00      0.00
   0.00000000  -0.00005392   0.00000000          0.00     -7.93      0.00
   0.00000000   0.00000000  -0.00005392          0.00      0.00     -7.93


     Writing output data file elNhhkVffIyTzHYs.save/

     init_run     :      0.22s CPU      0.23s WALL (       1 calls)
     electrons    :      0.65s CPU      0.65s WALL (       1 calls)
     forces       :      0.02s CPU      0.02s WALL (       1 calls)
     stress       :      0.03s CPU      0.03s WALL (       1 calls)

     Called by init_run:
     wfcinit      :      0.01s CPU      0.01s WALL (       1 calls)
     potinit      :      0.09s CPU      0.10s WALL (       1 calls)
     hinit0       :      0.12s CPU      0.12s WALL (       1 calls)

     Called by electrons:
     c_bands      :      0.08s CPU      0.08s WALL (       7 calls)
     sum_band     :      0.03s CPU      0.03s WALL (       7 calls)
     v_of_rho     :      0.02s CPU      0.02s WALL (       7 calls)
     newd         :      0.01s CPU      0.01s WALL (       7 calls)
     PAW_pot      :      0.59s CPU      0.60s WALL (       7 calls)
     mix_rho      :      0.00s CPU      0.00s WALL (       7 calls)

     Called by c_bands:
     init_us_2    :      0.01s CPU      0.01s WALL (      68 calls)
     cegterg      :      0.08s CPU      0.08s WALL (      28 calls)

     Called by sum_band:
     sum_band:bec :      0.00s CPU      0.00s WALL (      28 calls)
     addusdens    :      0.01s CPU      0.01s WALL (       7 calls)

     Called by *egterg:
     h_psi        :      0.05s CPU      0.05s WALL (      90 calls)
     s_psi        :      0.01s CPU      0.01s WALL (      90 calls)
     g_psi        :      0.00s CPU      0.00s WALL (      58 calls)
     cdiaghg      :      0.01s CPU      0.01s WALL (      82 calls)

     Called by h_psi:
     h_psi:pot    :      0.05s CPU      0.05s WALL (      90 calls)
     h_psi:calbec :      0.01s CPU      0.01s WALL (      90 calls)
     vloc_psi     :      0.04s CPU      0.04s WALL (      90 calls)
     add_vuspsi   :      0.01s CPU      0.01s WALL (      90 calls)

     General routines
     calbec       :      0.01s CPU      0.01s WALL (     138 calls)
     fft          :      0.00s CPU      0.00s WALL (     103 calls)
     ffts         :      0.00s CPU      0.00s WALL (       7 calls)
     fftw         :      0.03s CPU      0.03s WALL (    1212 calls)

     Parallel routines

     PWSCF        :      1.34s CPU      1.37s WALL


   This run was terminated on:  21:20: 4  10Jun2020            

=------------------------------------------------------------------------------=
   JOB DONE.
=------------------------------------------------------------------------------=
