
     Program PWSCF v.6.4.1 starts on 10Jun2020 at 21:19:58 

     This program is part of the open-source Quantum ESPRESSO suite
     for quantum simulation of materials; please cite
         "P. Giannozzi et al., J. Phys.:Condens. Matter 21 395502 (2009);
         "P. Giannozzi et al., J. Phys.:Condens. Matter 29 465901 (2017);
          URL http://www.quantum-espresso.org", 
     in publications or presentations arising from this work. More details at
     http://www.quantum-espresso.org/quote

     Parallel version (MPI), running on     1 processors

     MPI processes distributed on     1 nodes
     Reading input from wd/eos/eos_003.in
Warning: card &IONS ignored
Warning: card ION_DYNAMICS = 'BFGS', ignored
Warning: card / ignored
Warning: card &CELL ignored
Warning: card CELL_DYNAMICS = 'BFGS', ignored
Warning: card CELL_FACTOR = 2.0, ignored
Warning: card PRESS = 0.0, ignored
Warning: card / ignored

     Current dimensions of program PWSCF are:
     Max number of different atomic species (ntypx) = 10
     Max number of k-points (npk) =  40000
     Max angular momentum in pseudopotentials (lmaxx) =  3
               file Al.pbe-nl-kjpaw_psl.1.0.0.UPF: wavefunction(s)  3S 3P renormalized

     Subspace diagonalization in iterative solution of the eigenvalue problem:
     a serial algorithm will be used

     Found symmetry operation: I + ( -0.5000 -0.5000 -0.5000)
     This is a supercell, fractional translations are disabled
     Message from routine setup:
     DEPRECATED: symmetry with ibrav=0, use correct ibrav instead

     G-vector sticks info
     --------------------
     sticks:   dense  smooth     PW     G-vecs:    dense   smooth      PW
     Sum         285     285     97                 3575     3575     739



     bravais-lattice index     =            0
     lattice parameter (alat)  =       5.9482  a.u.
     unit-cell volume          =     209.8213 (a.u.)^3
     number of atoms/cell      =            2
     number of atomic types    =            1
     number of electrons       =         6.00
     number of Kohn-Sham states=            7
     kinetic-energy cutoff     =      25.0000  Ry
     charge density cutoff     =     100.0000  Ry
     convergence threshold     =      1.0E-06
     mixing beta               =       0.1000
     number of iterations used =           10  TF        mixing
     Exchange-correlation      = SLA PW PBX PBC ( 1  4  3  4 0 0)

     celldm(1)=   5.948184  celldm(2)=   0.000000  celldm(3)=   0.000000
     celldm(4)=   0.000000  celldm(5)=   0.000000  celldm(6)=   0.000000

     crystal axes: (cart. coord. in units of alat)
               a(1) = (   0.999000   0.000000   0.000000 )  
               a(2) = (   0.000000   0.999000   0.000000 )  
               a(3) = (   0.000000   0.000000   0.999000 )  

     reciprocal axes: (cart. coord. in units 2 pi/alat)
               b(1) = (  1.001001  0.000000  0.000000 )  
               b(2) = (  0.000000  1.001001  0.000000 )  
               b(3) = (  0.000000  0.000000  1.001001 )  


     PseudoPot. # 1 for Al read from file:
     /opt/pp/Al.pbe-nl-kjpaw_psl.1.0.0.UPF
     MD5 check sum: 1b67f78b73fe58c7924490f171ce8a1e
     Pseudo is Projector augmented-wave + core cor, Zval =  3.0
     Generated using "atomic" code by A. Dal Corso v.6.3
     Shape of augmentation charge: PSQ
     Using radial grid of 1135 points,  4 beta functions with: 
                l(1) =   0
                l(2) =   0
                l(3) =   1
                l(4) =   1
     Q(r) pseudized with 0 coefficients 


     atomic species   valence    mass     pseudopotential
        Al             3.00    26.98200     Al( 1.00)

     48 Sym. Ops., with inversion, found



   Cartesian axes

     site n.     atom                  positions (alat units)
         1           Al  tau(   1) = (   0.0000000   0.0000000   0.0000000  )
         2           Al  tau(   2) = (   0.4995000   0.4995000   0.4995000  )

     number of k points=     4  Marzari-Vanderbilt smearing, width (Ry)=  0.0400
                       cart. coord. in units 2pi/alat
        k(    1) = (   0.1668335   0.1668335   0.1668335), wk =   0.5925926
        k(    2) = (   0.1668335   0.1668335  -0.5005005), wk =   0.8888889
        k(    3) = (   0.1668335  -0.5005005  -0.5005005), wk =   0.4444444
        k(    4) = (  -0.5005005  -0.5005005  -0.5005005), wk =   0.0740741

     Dense  grid:     3575 G-vectors     FFT dimensions: (  20,  20,  20)

     Estimated max dynamical RAM per process >       5.54 MB

     Initial potential from superposition of free atoms

     starting charge    5.99542, renormalised to    6.00000
     Starting wfcs are    8 randomized atomic wfcs
     Checking if some PAW data can be deallocated... 

     total cpu time spent up to now is        0.7 secs

     Self-consistent Calculation

     iteration #  1     ecut=    25.00 Ry     beta= 0.10
     Davidson diagonalization with overlap
     ethr =  1.00E-02,  avg # of iterations =  3.2

     Threshold (ethr) on eigenvalues was too large:
     Diagonalizing with lowered threshold

     Davidson diagonalization with overlap
     ethr =  2.50E-04,  avg # of iterations =  2.2

     total cpu time spent up to now is        0.8 secs

     total energy              =     -78.98141164 Ry
     Harris-Foulkes estimate   =     -78.98197831 Ry
     estimated scf accuracy    <       0.01472277 Ry

     iteration #  2     ecut=    25.00 Ry     beta= 0.10
     Davidson diagonalization with overlap
     ethr =  2.45E-04,  avg # of iterations =  1.0

     total cpu time spent up to now is        0.9 secs

     total energy              =     -78.97709888 Ry
     Harris-Foulkes estimate   =     -78.98147434 Ry
     estimated scf accuracy    <       0.01274653 Ry

     iteration #  3     ecut=    25.00 Ry     beta= 0.10
     Davidson diagonalization with overlap
     ethr =  2.12E-04,  avg # of iterations =  1.0

     total cpu time spent up to now is        1.0 secs

     total energy              =     -78.97726693 Ry
     Harris-Foulkes estimate   =     -78.97728237 Ry
     estimated scf accuracy    <       0.00004132 Ry

     iteration #  4     ecut=    25.00 Ry     beta= 0.10
     Davidson diagonalization with overlap
     ethr =  6.89E-07,  avg # of iterations =  4.8

     total cpu time spent up to now is        1.1 secs

     total energy              =     -78.97735005 Ry
     Harris-Foulkes estimate   =     -78.97730031 Ry
     estimated scf accuracy    <       0.00002936 Ry

     iteration #  5     ecut=    25.00 Ry     beta= 0.10
     Davidson diagonalization with overlap
     ethr =  4.89E-07,  avg # of iterations =  1.2

     total cpu time spent up to now is        1.2 secs

     total energy              =     -78.97731907 Ry
     Harris-Foulkes estimate   =     -78.97735123 Ry
     estimated scf accuracy    <       0.00006923 Ry

     iteration #  6     ecut=    25.00 Ry     beta= 0.10
     Davidson diagonalization with overlap
     ethr =  4.89E-07,  avg # of iterations =  1.0

     total cpu time spent up to now is        1.3 secs

     total energy              =     -78.97732022 Ry
     Harris-Foulkes estimate   =     -78.97732049 Ry
     estimated scf accuracy    <       0.00000101 Ry

     iteration #  7     ecut=    25.00 Ry     beta= 0.10
     Davidson diagonalization with overlap
     ethr =  1.68E-08,  avg # of iterations =  3.0

     total cpu time spent up to now is        1.4 secs

     End of self-consistent calculation

          k = 0.1668 0.1668 0.1668 (   440 PWs)   bands (ev):

    -1.7800   7.4550   7.4550   8.5581  16.6490  16.6490  16.8449

          k = 0.1668 0.1668-0.5005 (   454 PWs)   bands (ev):

     1.4789   1.4789  10.5326  10.5327  11.3203  11.3204  19.6158

          k = 0.1668-0.5005-0.5005 (   432 PWs)   bands (ev):

     4.3719   4.3719   5.0075   5.0077  13.6015  13.6015  14.4740

          k =-0.5005-0.5005-0.5005 (   432 PWs)   bands (ev):

     7.4515   7.4515   7.4515   7.4517   7.4517   7.4517   9.2447

     the Fermi energy is     8.3266 ev

!    total energy              =     -78.97732011 Ry
     Harris-Foulkes estimate   =     -78.97732055 Ry
     estimated scf accuracy    <       0.00000040 Ry

     total all-electron energy =      -971.262881 Ry

     The total energy is the sum of the following terms:

     one-electron contribution =       6.62211926 Ry
     hartree contribution      =       0.00916980 Ry
     xc contribution           =      -5.23691362 Ry
     ewald contribution        =     -11.02383115 Ry
     one-center paw contrib.   =     -69.35532372 Ry
     smearing contrib. (-TS)   =       0.00745932 Ry

     convergence has been achieved in   7 iterations

     Forces acting on atoms (cartesian axes, Ry/au):

     atom    1 type  1   force =     0.00000000    0.00000000    0.00000000
     atom    2 type  1   force =     0.00000000    0.00000000    0.00000000

     Total force =     0.000000     Total SCF correction =     0.000000


     Computing stress (Cartesian axis) and pressure

          total   stress  (Ry/bohr**3)                   (kbar)     P=    3.71
   0.00002524   0.00000000   0.00000000          3.71      0.00      0.00
   0.00000000   0.00002524   0.00000000          0.00      3.71      0.00
   0.00000000   0.00000000   0.00002524          0.00      0.00      3.71


     Writing output data file zwNNCzYvYtnIQFWc.save/

     init_run     :      0.22s CPU      0.23s WALL (       1 calls)
     electrons    :      0.75s CPU      0.75s WALL (       1 calls)
     forces       :      0.02s CPU      0.02s WALL (       1 calls)
     stress       :      0.03s CPU      0.03s WALL (       1 calls)

     Called by init_run:
     wfcinit      :      0.01s CPU      0.01s WALL (       1 calls)
     potinit      :      0.09s CPU      0.10s WALL (       1 calls)
     hinit0       :      0.12s CPU      0.12s WALL (       1 calls)

     Called by electrons:
     c_bands      :      0.09s CPU      0.09s WALL (       8 calls)
     sum_band     :      0.03s CPU      0.03s WALL (       8 calls)
     v_of_rho     :      0.03s CPU      0.03s WALL (       8 calls)
     newd         :      0.02s CPU      0.02s WALL (       8 calls)
     PAW_pot      :      0.67s CPU      0.68s WALL (       8 calls)
     mix_rho      :      0.00s CPU      0.00s WALL (       8 calls)

     Called by c_bands:
     init_us_2    :      0.01s CPU      0.01s WALL (      76 calls)
     cegterg      :      0.08s CPU      0.08s WALL (      32 calls)

     Called by sum_band:
     sum_band:bec :      0.00s CPU      0.00s WALL (      32 calls)
     addusdens    :      0.02s CPU      0.02s WALL (       8 calls)

     Called by *egterg:
     h_psi        :      0.05s CPU      0.05s WALL (     106 calls)
     s_psi        :      0.01s CPU      0.01s WALL (     106 calls)
     g_psi        :      0.00s CPU      0.00s WALL (      70 calls)
     cdiaghg      :      0.01s CPU      0.01s WALL (      98 calls)

     Called by h_psi:
     h_psi:pot    :      0.05s CPU      0.05s WALL (     106 calls)
     h_psi:calbec :      0.01s CPU      0.01s WALL (     106 calls)
     vloc_psi     :      0.04s CPU      0.04s WALL (     106 calls)
     add_vuspsi   :      0.01s CPU      0.01s WALL (     106 calls)

     General routines
     calbec       :      0.01s CPU      0.01s WALL (     158 calls)
     fft          :      0.00s CPU      0.00s WALL (     114 calls)
     ffts         :      0.00s CPU      0.00s WALL (       8 calls)
     fftw         :      0.04s CPU      0.04s WALL (    1380 calls)

     Parallel routines

     PWSCF        :      1.45s CPU      1.46s WALL


   This run was terminated on:  21:19:59  10Jun2020            

=------------------------------------------------------------------------------=
   JOB DONE.
=------------------------------------------------------------------------------=
