
     Program PWSCF v.6.4.1 starts on 14May2021 at 12:14:49 

     This program is part of the open-source Quantum ESPRESSO suite
     for quantum simulation of materials; please cite
         "P. Giannozzi et al., J. Phys.:Condens. Matter 21 395502 (2009);
         "P. Giannozzi et al., J. Phys.:Condens. Matter 29 465901 (2017);
          URL http://www.quantum-espresso.org", 
     in publications or presentations arising from this work. More details at
     http://www.quantum-espresso.org/quote

     Parallel version (MPI), running on     1 processors

     MPI processes distributed on     1 nodes
     Reading input from /cloud/Code/python/qeeos/examples/aluminium/wd/ec/ec_1_002.in
Warning: card &IONS ignored
Warning: card ION_DYNAMICS = 'BFGS', ignored
Warning: card / ignored
Warning: card &CELL ignored
Warning: card CELL_DYNAMICS = 'BFGS', ignored
Warning: card CELL_FACTOR = 2.0, ignored
Warning: card PRESS = 0.0, ignored
Warning: card / ignored

     Current dimensions of program PWSCF are:
     Max number of different atomic species (ntypx) = 10
     Max number of k-points (npk) =  40000
     Max angular momentum in pseudopotentials (lmaxx) =  3
               file Al.pbe-nl-kjpaw_psl.1.0.0.UPF: wavefunction(s)  3S 3P renormalized

     Subspace diagonalization in iterative solution of the eigenvalue problem:
     a serial algorithm will be used

     Found symmetry operation: I + ( -0.5000 -0.5000  0.0000)
     This is a supercell, fractional translations are disabled
     Message from routine setup:
     DEPRECATED: symmetry with ibrav=0, use correct ibrav instead

     G-vector sticks info
     --------------------
     sticks:   dense  smooth     PW     G-vecs:    dense   smooth      PW
     Sum         933     933    285                21247    21247    3575



     bravais-lattice index     =            0
     lattice parameter (alat)  =       7.6308  a.u.
     unit-cell volume          =     444.6150 (a.u.)^3
     number of atoms/cell      =            4
     number of atomic types    =            1
     number of electrons       =        12.00
     number of Kohn-Sham states=           10
     kinetic-energy cutoff     =      50.0000  Ry
     charge density cutoff     =     200.0000  Ry
     convergence threshold     =      1.0E-06
     mixing beta               =       0.1000
     number of iterations used =           10  plain     mixing
     Exchange-correlation      = SLA PW PBX PBC ( 1  4  3  4 0 0)

     celldm(1)=   7.630815  celldm(2)=   0.000000  celldm(3)=   0.000000
     celldm(4)=   0.000000  celldm(5)=   0.000000  celldm(6)=   0.000000

     crystal axes: (cart. coord. in units of alat)
               a(1) = (   1.000625   0.000000   0.000000 )  
               a(2) = (   0.000000   1.000000   0.000000 )  
               a(3) = (   0.000000   0.000000   1.000000 )  

     reciprocal axes: (cart. coord. in units 2 pi/alat)
               b(1) = (  0.999375  0.000000  0.000000 )  
               b(2) = (  0.000000  1.000000  0.000000 )  
               b(3) = (  0.000000  0.000000  1.000000 )  


     PseudoPot. # 1 for Al read from file:
     /opt/pp/Al.pbe-nl-kjpaw_psl.1.0.0.UPF
     MD5 check sum: 1b67f78b73fe58c7924490f171ce8a1e
     Pseudo is Projector augmented-wave + core cor, Zval =  3.0
     Generated using "atomic" code by A. Dal Corso v.6.3
     Shape of augmentation charge: PSQ
     Using radial grid of 1135 points,  4 beta functions with: 
                l(1) =   0
                l(2) =   0
                l(3) =   1
                l(4) =   1
     Q(r) pseudized with 0 coefficients 


     atomic species   valence    mass     pseudopotential
        Al             3.00    26.98200     Al( 1.00)

     16 Sym. Ops., with inversion, found



   Cartesian axes

     site n.     atom                  positions (alat units)
         1           Al  tau(   1) = (   0.0000000   0.0000000   0.0000000  )
         2           Al  tau(   2) = (   0.5003126   0.5000001   0.0000000  )
         3           Al  tau(   3) = (   0.5003126   0.0000000   0.5000000  )
         4           Al  tau(   4) = (   0.0000000   0.5000001   0.5000000  )

     number of k points=   126  Marzari-Vanderbilt smearing, width (Ry)=  0.0400

     Number of k-points >= 100: set verbosity='high' to print them.

     Dense  grid:    21247 G-vectors     FFT dimensions: (  36,  36,  36)

     Estimated max dynamical RAM per process >      83.82 MB

     Initial potential from superposition of free atoms

     starting charge   11.99084, renormalised to   12.00000
     Starting wfcs are   16 randomized atomic wfcs
     Checking if some PAW data can be deallocated... 

     total cpu time spent up to now is        3.4 secs

     Self-consistent Calculation

     iteration #  1     ecut=    50.00 Ry     beta= 0.10
     Davidson diagonalization with overlap
     ethr =  1.00E-02,  avg # of iterations =  3.3

     Threshold (ethr) on eigenvalues was too large:
     Diagonalizing with lowered threshold

     Davidson diagonalization with overlap
     ethr =  1.95E-04,  avg # of iterations =  3.3

     total cpu time spent up to now is       14.3 secs

     total energy              =    -158.01600483 Ry
     Harris-Foulkes estimate   =    -158.01719888 Ry
     estimated scf accuracy    <       0.02259111 Ry

     iteration #  2     ecut=    50.00 Ry     beta= 0.10
     Davidson diagonalization with overlap
     ethr =  1.88E-04,  avg # of iterations =  1.0

     total cpu time spent up to now is       18.3 secs

     total energy              =    -158.01095321 Ry
     Harris-Foulkes estimate   =    -158.01611710 Ry
     estimated scf accuracy    <       0.01802956 Ry

     iteration #  3     ecut=    50.00 Ry     beta= 0.10
     Davidson diagonalization with overlap
     ethr =  1.50E-04,  avg # of iterations =  1.0

     total cpu time spent up to now is       22.2 secs

     total energy              =    -158.01130551 Ry
     Harris-Foulkes estimate   =    -158.01130103 Ry
     estimated scf accuracy    <       0.00004686 Ry

     iteration #  4     ecut=    50.00 Ry     beta= 0.10
     Davidson diagonalization with overlap
     ethr =  3.91E-07,  avg # of iterations =  4.3

     total cpu time spent up to now is       29.3 secs

     total energy              =    -158.01151084 Ry
     Harris-Foulkes estimate   =    -158.01138648 Ry
     estimated scf accuracy    <       0.00003560 Ry

     iteration #  5     ecut=    50.00 Ry     beta= 0.10
     Davidson diagonalization with overlap
     ethr =  2.97E-07,  avg # of iterations =  2.1

     total cpu time spent up to now is       34.4 secs

     total energy              =    -158.01136855 Ry
     Harris-Foulkes estimate   =    -158.01151879 Ry
     estimated scf accuracy    <       0.00036048 Ry

     iteration #  6     ecut=    50.00 Ry     beta= 0.10
     Davidson diagonalization with overlap
     ethr =  2.97E-07,  avg # of iterations =  2.2

     total cpu time spent up to now is       39.4 secs

     total energy              =    -158.01137208 Ry
     Harris-Foulkes estimate   =    -158.01137973 Ry
     estimated scf accuracy    <       0.00001654 Ry

     iteration #  7     ecut=    50.00 Ry     beta= 0.10
     Davidson diagonalization with overlap
     ethr =  1.38E-07,  avg # of iterations =  1.0

     total cpu time spent up to now is       43.3 secs

     End of self-consistent calculation

     Number of k-points >= 100: set verbosity='high' to print the bands.

     the Fermi energy is     7.9246 ev

!    total energy              =    -158.01137272 Ry
     Harris-Foulkes estimate   =    -158.01137284 Ry
     estimated scf accuracy    <       0.00000035 Ry

     total all-electron energy =     -1942.582495 Ry

     The total energy is the sum of the following terms:

     one-electron contribution =      12.66617625 Ry
     hartree contribution      =       0.02458941 Ry
     xc contribution           =     -10.36682571 Ry
     ewald contribution        =     -21.62556184 Ry
     one-center paw contrib.   =    -138.71025486 Ry
     smearing contrib. (-TS)   =       0.00050404 Ry

     convergence has been achieved in   7 iterations

     Forces acting on atoms (cartesian axes, Ry/au):

     atom    1 type  1   force =     0.00000000    0.00000000    0.00000000
     atom    2 type  1   force =     0.00000000    0.00000000    0.00000000
     atom    3 type  1   force =     0.00000000    0.00000000    0.00000000
     atom    4 type  1   force =     0.00000000    0.00000000    0.00000000

     Total force =     0.000000     Total SCF correction =     0.000000


     Computing stress (Cartesian axis) and pressure

          total   stress  (Ry/bohr**3)                   (kbar)     P=   -0.23
  -0.00000392   0.00000000   0.00000000         -0.58      0.00      0.00
   0.00000000  -0.00000037   0.00000000          0.00     -0.05      0.00
   0.00000000   0.00000000  -0.00000037          0.00      0.00     -0.05


     Writing output data file VDOFqWRhzUADxpre.save/

     init_run     :      3.03s CPU      3.08s WALL (       1 calls)
     electrons    :     39.68s CPU     39.90s WALL (       1 calls)
     forces       :      0.64s CPU      0.64s WALL (       1 calls)
     stress       :      1.42s CPU      1.42s WALL (       1 calls)

     Called by init_run:
     wfcinit      :      2.65s CPU      2.69s WALL (       1 calls)
     potinit      :      0.16s CPU      0.16s WALL (       1 calls)
     hinit0       :      0.20s CPU      0.20s WALL (       1 calls)

     Called by electrons:
     c_bands      :     33.24s CPU     33.44s WALL (       8 calls)
     sum_band     :      5.36s CPU      5.38s WALL (       8 calls)
     v_of_rho     :      0.16s CPU      0.16s WALL (       8 calls)
     newd         :      0.09s CPU      0.10s WALL (       8 calls)
     PAW_pot      :      0.96s CPU      0.96s WALL (       8 calls)
     mix_rho      :      0.01s CPU      0.01s WALL (       8 calls)

     Called by c_bands:
     init_us_2    :      0.93s CPU      0.93s WALL (    2394 calls)
     cegterg      :     31.90s CPU     32.07s WALL (    1008 calls)

     Called by sum_band:
     sum_band:bec :      0.00s CPU      0.00s WALL (    1008 calls)
     addusdens    :      0.07s CPU      0.07s WALL (       8 calls)

     Called by *egterg:
     h_psi        :     26.40s CPU     26.57s WALL (    3439 calls)
     s_psi        :      2.10s CPU      2.11s WALL (    3439 calls)
     g_psi        :      0.15s CPU      0.15s WALL (    2305 calls)
     cdiaghg      :      0.42s CPU      0.42s WALL (    3187 calls)

     Called by h_psi:
     h_psi:pot    :     26.29s CPU     26.46s WALL (    3439 calls)
     h_psi:calbec :      2.64s CPU      2.66s WALL (    3439 calls)
     vloc_psi     :     21.58s CPU     21.72s WALL (    3439 calls)
     add_vuspsi   :      2.06s CPU      2.07s WALL (    3439 calls)

     General routines
     calbec       :      4.11s CPU      4.13s WALL (    5077 calls)
     fft          :      0.07s CPU      0.07s WALL (     114 calls)
     ffts         :      0.01s CPU      0.01s WALL (       8 calls)
     fftw         :     23.55s CPU     23.70s WALL (   67028 calls)

     Parallel routines

     PWSCF        :     45.10s CPU     45.42s WALL


   This run was terminated on:  12:15:34  14May2021            

=------------------------------------------------------------------------------=
   JOB DONE.
=------------------------------------------------------------------------------=
