
     Program PWSCF v.6.4.1 starts on 14May2021 at 12:23:42 

     This program is part of the open-source Quantum ESPRESSO suite
     for quantum simulation of materials; please cite
         "P. Giannozzi et al., J. Phys.:Condens. Matter 21 395502 (2009);
         "P. Giannozzi et al., J. Phys.:Condens. Matter 29 465901 (2017);
          URL http://www.quantum-espresso.org", 
     in publications or presentations arising from this work. More details at
     http://www.quantum-espresso.org/quote

     Parallel version (MPI), running on     1 processors

     MPI processes distributed on     1 nodes
     Reading input from /cloud/Code/python/qeeos/examples/aluminium/wd/ec/ec_2_006.in
Warning: card &IONS ignored
Warning: card ION_DYNAMICS = 'BFGS', ignored
Warning: card / ignored
Warning: card &CELL ignored
Warning: card CELL_DYNAMICS = 'BFGS', ignored
Warning: card CELL_FACTOR = 2.0, ignored
Warning: card PRESS = 0.0, ignored
Warning: card / ignored

     Current dimensions of program PWSCF are:
     Max number of different atomic species (ntypx) = 10
     Max number of k-points (npk) =  40000
     Max angular momentum in pseudopotentials (lmaxx) =  3
               file Al.pbe-nl-kjpaw_psl.1.0.0.UPF: wavefunction(s)  3S 3P renormalized

     Subspace diagonalization in iterative solution of the eigenvalue problem:
     a serial algorithm will be used

     Found symmetry operation: I + ( -0.5000 -0.5000  0.0000)
     This is a supercell, fractional translations are disabled
     Message from routine setup:
     DEPRECATED: symmetry with ibrav=0, use correct ibrav instead

     G-vector sticks info
     --------------------
     sticks:   dense  smooth     PW     G-vecs:    dense   smooth      PW
     Sum         937     937    285                21287    21287    3575



     bravais-lattice index     =            0
     lattice parameter (alat)  =       7.6308  a.u.
     unit-cell volume          =     445.7259 (a.u.)^3
     number of atoms/cell      =            4
     number of atomic types    =            1
     number of electrons       =        12.00
     number of Kohn-Sham states=           10
     kinetic-energy cutoff     =      50.0000  Ry
     charge density cutoff     =     200.0000  Ry
     convergence threshold     =      1.0E-06
     mixing beta               =       0.1000
     number of iterations used =           10  plain     mixing
     Exchange-correlation      = SLA PW PBX PBC ( 1  4  3  4 0 0)

     celldm(1)=   7.630815  celldm(2)=   0.000000  celldm(3)=   0.000000
     celldm(4)=   0.000000  celldm(5)=   0.000000  celldm(6)=   0.000000

     crystal axes: (cart. coord. in units of alat)
               a(1) = (   1.000000   0.000000   0.000000 )  
               a(2) = (   0.000000   1.003125   0.000000 )  
               a(3) = (   0.000000   0.000000   1.000000 )  

     reciprocal axes: (cart. coord. in units 2 pi/alat)
               b(1) = (  1.000000  0.000000  0.000000 )  
               b(2) = (  0.000000  0.996885  0.000000 )  
               b(3) = (  0.000000  0.000000  1.000000 )  


     PseudoPot. # 1 for Al read from file:
     /opt/pp/Al.pbe-nl-kjpaw_psl.1.0.0.UPF
     MD5 check sum: 1b67f78b73fe58c7924490f171ce8a1e
     Pseudo is Projector augmented-wave + core cor, Zval =  3.0
     Generated using "atomic" code by A. Dal Corso v.6.3
     Shape of augmentation charge: PSQ
     Using radial grid of 1135 points,  4 beta functions with: 
                l(1) =   0
                l(2) =   0
                l(3) =   1
                l(4) =   1
     Q(r) pseudized with 0 coefficients 


     atomic species   valence    mass     pseudopotential
        Al             3.00    26.98200     Al( 1.00)

     16 Sym. Ops., with inversion, found



   Cartesian axes

     site n.     atom                  positions (alat units)
         1           Al  tau(   1) = (   0.0000000   0.0000000   0.0000000  )
         2           Al  tau(   2) = (   0.5000001   0.5015626   0.0000000  )
         3           Al  tau(   3) = (   0.5000001   0.0000000   0.5000000  )
         4           Al  tau(   4) = (   0.0000000   0.5015626   0.5000000  )

     number of k points=   126  Marzari-Vanderbilt smearing, width (Ry)=  0.0400

     Number of k-points >= 100: set verbosity='high' to print them.

     Dense  grid:    21287 G-vectors     FFT dimensions: (  36,  36,  36)

     Estimated max dynamical RAM per process >      83.99 MB

     Initial potential from superposition of free atoms

     starting charge   11.99084, renormalised to   12.00000
     Starting wfcs are   16 randomized atomic wfcs
     Checking if some PAW data can be deallocated... 

     total cpu time spent up to now is        3.3 secs

     Self-consistent Calculation

     iteration #  1     ecut=    50.00 Ry     beta= 0.10
     Davidson diagonalization with overlap
     ethr =  1.00E-02,  avg # of iterations =  3.4

     Threshold (ethr) on eigenvalues was too large:
     Diagonalizing with lowered threshold

     Davidson diagonalization with overlap
     ethr =  1.95E-04,  avg # of iterations =  3.2

     total cpu time spent up to now is       14.3 secs

     total energy              =    -158.01597943 Ry
     Harris-Foulkes estimate   =    -158.01717056 Ry
     estimated scf accuracy    <       0.02259513 Ry

     iteration #  2     ecut=    50.00 Ry     beta= 0.10
     Davidson diagonalization with overlap
     ethr =  1.88E-04,  avg # of iterations =  1.0

     total cpu time spent up to now is       18.1 secs

     total energy              =    -158.01093262 Ry
     Harris-Foulkes estimate   =    -158.01608868 Ry
     estimated scf accuracy    <       0.01803509 Ry

     iteration #  3     ecut=    50.00 Ry     beta= 0.10
     Davidson diagonalization with overlap
     ethr =  1.50E-04,  avg # of iterations =  1.0

     total cpu time spent up to now is       22.0 secs

     total energy              =    -158.01128759 Ry
     Harris-Foulkes estimate   =    -158.01128274 Ry
     estimated scf accuracy    <       0.00004442 Ry

     iteration #  4     ecut=    50.00 Ry     beta= 0.10
     Davidson diagonalization with overlap
     c_bands:  1 eigenvalues not converged
     c_bands:  1 eigenvalues not converged
     c_bands:  1 eigenvalues not converged
     ethr =  3.70E-07,  avg # of iterations =  4.5

     total cpu time spent up to now is       29.0 secs

     total energy              =    -158.01149705 Ry
     Harris-Foulkes estimate   =    -158.01136833 Ry
     estimated scf accuracy    <       0.00003410 Ry

     iteration #  5     ecut=    50.00 Ry     beta= 0.10
     Davidson diagonalization with overlap
     ethr =  2.84E-07,  avg # of iterations =  2.3

     total cpu time spent up to now is       34.3 secs

     total energy              =    -158.01134167 Ry
     Harris-Foulkes estimate   =    -158.01150446 Ry
     estimated scf accuracy    <       0.00036807 Ry

     iteration #  6     ecut=    50.00 Ry     beta= 0.10
     Davidson diagonalization with overlap
     ethr =  2.84E-07,  avg # of iterations =  2.6

     total cpu time spent up to now is       39.6 secs

     End of self-consistent calculation

     Number of k-points >= 100: set verbosity='high' to print the bands.

     the Fermi energy is     7.8983 ev

!    total energy              =    -158.01135517 Ry
     Harris-Foulkes estimate   =    -158.01135558 Ry
     estimated scf accuracy    <       0.00000089 Ry

     total all-electron energy =     -1942.582477 Ry

     The total energy is the sum of the following terms:

     one-electron contribution =      12.64232300 Ry
     hartree contribution      =       0.02453995 Ry
     xc contribution           =     -10.36163093 Ry
     ewald contribution        =     -21.60757857 Ry
     one-center paw contrib.   =    -138.70949568 Ry
     smearing contrib. (-TS)   =       0.00048706 Ry

     convergence has been achieved in   6 iterations

     Forces acting on atoms (cartesian axes, Ry/au):

     atom    1 type  1   force =     0.00000000    0.00000000    0.00000000
     atom    2 type  1   force =     0.00000000    0.00000000    0.00000000
     atom    3 type  1   force =     0.00000000    0.00000000    0.00000000
     atom    4 type  1   force =     0.00000000    0.00000000    0.00000000

     Total force =     0.000000     Total SCF correction =     0.000000


     Computing stress (Cartesian axis) and pressure

          total   stress  (Ry/bohr**3)                   (kbar)     P=   -2.11
  -0.00000851   0.00000000   0.00000000         -1.25      0.00      0.00
   0.00000000  -0.00002609   0.00000000          0.00     -3.84      0.00
   0.00000000   0.00000000  -0.00000851          0.00      0.00     -1.25


     Writing output data file lxztCIJReQeYuKcv.save/

     init_run     :      2.97s CPU      2.99s WALL (       1 calls)
     electrons    :     36.12s CPU     36.31s WALL (       1 calls)
     forces       :      0.66s CPU      0.66s WALL (       1 calls)
     stress       :      1.45s CPU      1.45s WALL (       1 calls)

     Called by init_run:
     wfcinit      :      2.59s CPU      2.60s WALL (       1 calls)
     potinit      :      0.16s CPU      0.16s WALL (       1 calls)
     hinit0       :      0.20s CPU      0.20s WALL (       1 calls)

     Called by electrons:
     c_bands      :     30.42s CPU     30.58s WALL (       7 calls)
     sum_band     :      4.79s CPU      4.81s WALL (       7 calls)
     v_of_rho     :      0.14s CPU      0.14s WALL (       7 calls)
     newd         :      0.08s CPU      0.09s WALL (       7 calls)
     PAW_pot      :      0.84s CPU      0.84s WALL (       7 calls)
     mix_rho      :      0.01s CPU      0.01s WALL (       7 calls)

     Called by c_bands:
     init_us_2    :      0.85s CPU      0.85s WALL (    2142 calls)
     cegterg      :     29.23s CPU     29.36s WALL (     882 calls)

     Called by sum_band:
     sum_band:bec :      0.00s CPU      0.00s WALL (     882 calls)
     addusdens    :      0.06s CPU      0.06s WALL (       7 calls)

     Called by *egterg:
     h_psi        :     24.17s CPU     24.29s WALL (    3271 calls)
     s_psi        :      1.90s CPU      1.91s WALL (    3271 calls)
     g_psi        :      0.14s CPU      0.14s WALL (    2263 calls)
     cdiaghg      :      0.41s CPU      0.41s WALL (    3019 calls)

     Called by h_psi:
     h_psi:pot    :     24.07s CPU     24.19s WALL (    3271 calls)
     h_psi:calbec :      2.43s CPU      2.45s WALL (    3271 calls)
     vloc_psi     :     19.74s CPU     19.84s WALL (    3271 calls)
     add_vuspsi   :      1.89s CPU      1.90s WALL (    3271 calls)

     General routines
     calbec       :      3.82s CPU      3.84s WALL (    4783 calls)
     fft          :      0.06s CPU      0.07s WALL (     103 calls)
     ffts         :      0.00s CPU      0.00s WALL (       7 calls)
     fftw         :     21.47s CPU     21.57s WALL (   61018 calls)

     Parallel routines

     PWSCF        :     41.52s CPU     41.78s WALL


   This run was terminated on:  12:24:24  14May2021            

=------------------------------------------------------------------------------=
   JOB DONE.
=------------------------------------------------------------------------------=
