
     Program PWSCF v.6.4.1 starts on 14May2021 at 12:28:52 

     This program is part of the open-source Quantum ESPRESSO suite
     for quantum simulation of materials; please cite
         "P. Giannozzi et al., J. Phys.:Condens. Matter 21 395502 (2009);
         "P. Giannozzi et al., J. Phys.:Condens. Matter 29 465901 (2017);
          URL http://www.quantum-espresso.org", 
     in publications or presentations arising from this work. More details at
     http://www.quantum-espresso.org/quote

     Parallel version (MPI), running on     1 processors

     MPI processes distributed on     1 nodes
     Reading input from /cloud/Code/python/qeeos/examples/aluminium/wd/ec/ec_3_005.in
Warning: card &IONS ignored
Warning: card ION_DYNAMICS = 'BFGS', ignored
Warning: card / ignored
Warning: card &CELL ignored
Warning: card CELL_DYNAMICS = 'BFGS', ignored
Warning: card CELL_FACTOR = 2.0, ignored
Warning: card PRESS = 0.0, ignored
Warning: card / ignored

     Current dimensions of program PWSCF are:
     Max number of different atomic species (ntypx) = 10
     Max number of k-points (npk) =  40000
     Max angular momentum in pseudopotentials (lmaxx) =  3
               file Al.pbe-nl-kjpaw_psl.1.0.0.UPF: wavefunction(s)  3S 3P renormalized

     Subspace diagonalization in iterative solution of the eigenvalue problem:
     a serial algorithm will be used

     Found symmetry operation: I + ( -0.5000 -0.5000  0.0000)
     This is a supercell, fractional translations are disabled
     Message from routine setup:
     DEPRECATED: symmetry with ibrav=0, use correct ibrav instead

     G-vector sticks info
     --------------------
     sticks:   dense  smooth     PW     G-vecs:    dense   smooth      PW
     Sum         933     933    285                21263    21263    3575



     bravais-lattice index     =            0
     lattice parameter (alat)  =       7.6308  a.u.
     unit-cell volume          =     445.4481 (a.u.)^3
     number of atoms/cell      =            4
     number of atomic types    =            1
     number of electrons       =        12.00
     number of Kohn-Sham states=           10
     kinetic-energy cutoff     =      50.0000  Ry
     charge density cutoff     =     200.0000  Ry
     convergence threshold     =      1.0E-06
     mixing beta               =       0.1000
     number of iterations used =           10  plain     mixing
     Exchange-correlation      = SLA PW PBX PBC ( 1  4  3  4 0 0)

     celldm(1)=   7.630815  celldm(2)=   0.000000  celldm(3)=   0.000000
     celldm(4)=   0.000000  celldm(5)=   0.000000  celldm(6)=   0.000000

     crystal axes: (cart. coord. in units of alat)
               a(1) = (   1.000000   0.000000   0.000000 )  
               a(2) = (   0.000000   1.000000   0.000000 )  
               a(3) = (   0.000000   0.000000   1.002500 )  

     reciprocal axes: (cart. coord. in units 2 pi/alat)
               b(1) = (  1.000000  0.000000  0.000000 )  
               b(2) = (  0.000000  1.000000  0.000000 )  
               b(3) = (  0.000000  0.000000  0.997506 )  


     PseudoPot. # 1 for Al read from file:
     /opt/pp/Al.pbe-nl-kjpaw_psl.1.0.0.UPF
     MD5 check sum: 1b67f78b73fe58c7924490f171ce8a1e
     Pseudo is Projector augmented-wave + core cor, Zval =  3.0
     Generated using "atomic" code by A. Dal Corso v.6.3
     Shape of augmentation charge: PSQ
     Using radial grid of 1135 points,  4 beta functions with: 
                l(1) =   0
                l(2) =   0
                l(3) =   1
                l(4) =   1
     Q(r) pseudized with 0 coefficients 


     atomic species   valence    mass     pseudopotential
        Al             3.00    26.98200     Al( 1.00)

     16 Sym. Ops., with inversion, found



   Cartesian axes

     site n.     atom                  positions (alat units)
         1           Al  tau(   1) = (   0.0000000   0.0000000   0.0000000  )
         2           Al  tau(   2) = (   0.5000001   0.5000001   0.0000000  )
         3           Al  tau(   3) = (   0.5000001   0.0000000   0.5012500  )
         4           Al  tau(   4) = (   0.0000000   0.5000001   0.5012500  )

     number of k points=   126  Marzari-Vanderbilt smearing, width (Ry)=  0.0400

     Number of k-points >= 100: set verbosity='high' to print them.

     Dense  grid:    21263 G-vectors     FFT dimensions: (  36,  36,  36)

     Estimated max dynamical RAM per process >      83.94 MB

     Initial potential from superposition of free atoms

     starting charge   11.99084, renormalised to   12.00000
     Starting wfcs are   16 randomized atomic wfcs
     Checking if some PAW data can be deallocated... 

     total cpu time spent up to now is        3.3 secs

     Self-consistent Calculation

     iteration #  1     ecut=    50.00 Ry     beta= 0.10
     Davidson diagonalization with overlap
     ethr =  1.00E-02,  avg # of iterations =  3.4

     Threshold (ethr) on eigenvalues was too large:
     Diagonalizing with lowered threshold

     Davidson diagonalization with overlap
     ethr =  1.95E-04,  avg # of iterations =  3.3

     total cpu time spent up to now is       14.1 secs

     total energy              =    -158.01600052 Ry
     Harris-Foulkes estimate   =    -158.01719457 Ry
     estimated scf accuracy    <       0.02259679 Ry

     iteration #  2     ecut=    50.00 Ry     beta= 0.10
     Davidson diagonalization with overlap
     ethr =  1.88E-04,  avg # of iterations =  1.0

     total cpu time spent up to now is       18.0 secs

     total energy              =    -158.01094047 Ry
     Harris-Foulkes estimate   =    -158.01610801 Ry
     estimated scf accuracy    <       0.01803410 Ry

     iteration #  3     ecut=    50.00 Ry     beta= 0.10
     Davidson diagonalization with overlap
     ethr =  1.50E-04,  avg # of iterations =  1.0

     total cpu time spent up to now is       22.1 secs

     total energy              =    -158.01129464 Ry
     Harris-Foulkes estimate   =    -158.01128991 Ry
     estimated scf accuracy    <       0.00004593 Ry

     iteration #  4     ecut=    50.00 Ry     beta= 0.10
     Davidson diagonalization with overlap
     c_bands:  1 eigenvalues not converged
     ethr =  3.83E-07,  avg # of iterations =  4.4

     total cpu time spent up to now is       29.3 secs

     total energy              =    -158.01148928 Ry
     Harris-Foulkes estimate   =    -158.01137550 Ry
     estimated scf accuracy    <       0.00003539 Ry

     iteration #  5     ecut=    50.00 Ry     beta= 0.10
     Davidson diagonalization with overlap
     ethr =  2.95E-07,  avg # of iterations =  2.1

     total cpu time spent up to now is       34.3 secs

     total energy              =    -158.01135314 Ry
     Harris-Foulkes estimate   =    -158.01149606 Ry
     estimated scf accuracy    <       0.00033040 Ry

     iteration #  6     ecut=    50.00 Ry     beta= 0.10
     Davidson diagonalization with overlap
     ethr =  2.95E-07,  avg # of iterations =  2.3

     total cpu time spent up to now is       39.3 secs

     total energy              =    -158.01136167 Ry
     Harris-Foulkes estimate   =    -158.01136477 Ry
     estimated scf accuracy    <       0.00000666 Ry

     iteration #  7     ecut=    50.00 Ry     beta= 0.10
     Davidson diagonalization with overlap
     ethr =  5.55E-08,  avg # of iterations =  1.0

     total cpu time spent up to now is       43.1 secs

     End of self-consistent calculation

     Number of k-points >= 100: set verbosity='high' to print the bands.

     the Fermi energy is     7.9051 ev

!    total energy              =    -158.01136191 Ry
     Harris-Foulkes estimate   =    -158.01136202 Ry
     estimated scf accuracy    <       0.00000032 Ry

     total all-electron energy =     -1942.582484 Ry

     The total energy is the sum of the following terms:

     one-electron contribution =      12.64809419 Ry
     hartree contribution      =       0.02454791 Ry
     xc contribution           =     -10.36283716 Ry
     ewald contribution        =     -21.61206918 Ry
     one-center paw contrib.   =    -138.70958989 Ry
     smearing contrib. (-TS)   =       0.00049222 Ry

     convergence has been achieved in   7 iterations

     Forces acting on atoms (cartesian axes, Ry/au):

     atom    1 type  1   force =     0.00000000    0.00000000    0.00000000
     atom    2 type  1   force =     0.00000000    0.00000000    0.00000000
     atom    3 type  1   force =     0.00000000    0.00000000    0.00000000
     atom    4 type  1   force =     0.00000000    0.00000000    0.00000000

     Total force =     0.000000     Total SCF correction =     0.000000


     Computing stress (Cartesian axis) and pressure

          total   stress  (Ry/bohr**3)                   (kbar)     P=   -1.73
  -0.00000706   0.00000000   0.00000000         -1.04      0.00      0.00
   0.00000000  -0.00000706   0.00000000          0.00     -1.04      0.00
   0.00000000   0.00000000  -0.00002117          0.00      0.00     -3.11


     Writing output data file WhhlwyCjXrYJjewK.save/

     init_run     :      2.93s CPU      2.97s WALL (       1 calls)
     electrons    :     39.61s CPU     39.89s WALL (       1 calls)
     forces       :      0.64s CPU      0.64s WALL (       1 calls)
     stress       :      1.37s CPU      1.37s WALL (       1 calls)

     Called by init_run:
     wfcinit      :      2.56s CPU      2.59s WALL (       1 calls)
     potinit      :      0.16s CPU      0.16s WALL (       1 calls)
     hinit0       :      0.20s CPU      0.20s WALL (       1 calls)

     Called by electrons:
     c_bands      :     33.19s CPU     33.43s WALL (       8 calls)
     sum_band     :      5.36s CPU      5.39s WALL (       8 calls)
     v_of_rho     :      0.16s CPU      0.16s WALL (       8 calls)
     newd         :      0.09s CPU      0.10s WALL (       8 calls)
     PAW_pot      :      0.95s CPU      0.95s WALL (       8 calls)
     mix_rho      :      0.01s CPU      0.01s WALL (       8 calls)

     Called by c_bands:
     init_us_2    :      0.90s CPU      0.91s WALL (    2394 calls)
     cegterg      :     31.86s CPU     32.06s WALL (    1008 calls)

     Called by sum_band:
     sum_band:bec :      0.00s CPU      0.00s WALL (    1008 calls)
     addusdens    :      0.07s CPU      0.07s WALL (       8 calls)

     Called by *egterg:
     h_psi        :     26.30s CPU     26.49s WALL (    3462 calls)
     s_psi        :      2.08s CPU      2.09s WALL (    3462 calls)
     g_psi        :      0.15s CPU      0.15s WALL (    2328 calls)
     cdiaghg      :      0.41s CPU      0.41s WALL (    3210 calls)

     Called by h_psi:
     h_psi:pot    :     26.20s CPU     26.38s WALL (    3462 calls)
     h_psi:calbec :      2.64s CPU      2.65s WALL (    3462 calls)
     vloc_psi     :     21.50s CPU     21.65s WALL (    3462 calls)
     add_vuspsi   :      2.06s CPU      2.07s WALL (    3462 calls)

     General routines
     calbec       :      4.10s CPU      4.13s WALL (    5100 calls)
     fft          :      0.07s CPU      0.07s WALL (     114 calls)
     ffts         :      0.00s CPU      0.00s WALL (       8 calls)
     fftw         :     23.49s CPU     23.66s WALL (   67082 calls)

     Parallel routines

     PWSCF        :     44.87s CPU     45.22s WALL


   This run was terminated on:  12:29:37  14May2021            

=------------------------------------------------------------------------------=
   JOB DONE.
=------------------------------------------------------------------------------=
