
     Program PWSCF v.6.4.1 starts on 14May2021 at 12:29:37 

     This program is part of the open-source Quantum ESPRESSO suite
     for quantum simulation of materials; please cite
         "P. Giannozzi et al., J. Phys.:Condens. Matter 21 395502 (2009);
         "P. Giannozzi et al., J. Phys.:Condens. Matter 29 465901 (2017);
          URL http://www.quantum-espresso.org", 
     in publications or presentations arising from this work. More details at
     http://www.quantum-espresso.org/quote

     Parallel version (MPI), running on     1 processors

     MPI processes distributed on     1 nodes
     Reading input from /cloud/Code/python/qeeos/examples/aluminium/wd/ec/ec_3_006.in
Warning: card &IONS ignored
Warning: card ION_DYNAMICS = 'BFGS', ignored
Warning: card / ignored
Warning: card &CELL ignored
Warning: card CELL_DYNAMICS = 'BFGS', ignored
Warning: card CELL_FACTOR = 2.0, ignored
Warning: card PRESS = 0.0, ignored
Warning: card / ignored

     Current dimensions of program PWSCF are:
     Max number of different atomic species (ntypx) = 10
     Max number of k-points (npk) =  40000
     Max angular momentum in pseudopotentials (lmaxx) =  3
               file Al.pbe-nl-kjpaw_psl.1.0.0.UPF: wavefunction(s)  3S 3P renormalized

     Subspace diagonalization in iterative solution of the eigenvalue problem:
     a serial algorithm will be used

     Found symmetry operation: I + ( -0.5000 -0.5000  0.0000)
     This is a supercell, fractional translations are disabled
     Message from routine setup:
     DEPRECATED: symmetry with ibrav=0, use correct ibrav instead

     G-vector sticks info
     --------------------
     sticks:   dense  smooth     PW     G-vecs:    dense   smooth      PW
     Sum         933     933    285                21287    21287    3575



     bravais-lattice index     =            0
     lattice parameter (alat)  =       7.6308  a.u.
     unit-cell volume          =     445.7259 (a.u.)^3
     number of atoms/cell      =            4
     number of atomic types    =            1
     number of electrons       =        12.00
     number of Kohn-Sham states=           10
     kinetic-energy cutoff     =      50.0000  Ry
     charge density cutoff     =     200.0000  Ry
     convergence threshold     =      1.0E-06
     mixing beta               =       0.1000
     number of iterations used =           10  plain     mixing
     Exchange-correlation      = SLA PW PBX PBC ( 1  4  3  4 0 0)

     celldm(1)=   7.630815  celldm(2)=   0.000000  celldm(3)=   0.000000
     celldm(4)=   0.000000  celldm(5)=   0.000000  celldm(6)=   0.000000

     crystal axes: (cart. coord. in units of alat)
               a(1) = (   1.000000   0.000000   0.000000 )  
               a(2) = (   0.000000   1.000000   0.000000 )  
               a(3) = (   0.000000   0.000000   1.003125 )  

     reciprocal axes: (cart. coord. in units 2 pi/alat)
               b(1) = (  1.000000  0.000000  0.000000 )  
               b(2) = (  0.000000  1.000000  0.000000 )  
               b(3) = (  0.000000  0.000000  0.996885 )  


     PseudoPot. # 1 for Al read from file:
     /opt/pp/Al.pbe-nl-kjpaw_psl.1.0.0.UPF
     MD5 check sum: 1b67f78b73fe58c7924490f171ce8a1e
     Pseudo is Projector augmented-wave + core cor, Zval =  3.0
     Generated using "atomic" code by A. Dal Corso v.6.3
     Shape of augmentation charge: PSQ
     Using radial grid of 1135 points,  4 beta functions with: 
                l(1) =   0
                l(2) =   0
                l(3) =   1
                l(4) =   1
     Q(r) pseudized with 0 coefficients 


     atomic species   valence    mass     pseudopotential
        Al             3.00    26.98200     Al( 1.00)

     16 Sym. Ops., with inversion, found



   Cartesian axes

     site n.     atom                  positions (alat units)
         1           Al  tau(   1) = (   0.0000000   0.0000000   0.0000000  )
         2           Al  tau(   2) = (   0.5000001   0.5000001   0.0000000  )
         3           Al  tau(   3) = (   0.5000001   0.0000000   0.5015625  )
         4           Al  tau(   4) = (   0.0000000   0.5000001   0.5015625  )

     number of k points=   126  Marzari-Vanderbilt smearing, width (Ry)=  0.0400

     Number of k-points >= 100: set verbosity='high' to print them.

     Dense  grid:    21287 G-vectors     FFT dimensions: (  36,  36,  36)

     Estimated max dynamical RAM per process >      83.99 MB

     Initial potential from superposition of free atoms

     starting charge   11.99084, renormalised to   12.00000
     Starting wfcs are   16 randomized atomic wfcs
     Checking if some PAW data can be deallocated... 

     total cpu time spent up to now is        3.2 secs

     Self-consistent Calculation

     iteration #  1     ecut=    50.00 Ry     beta= 0.10
     Davidson diagonalization with overlap
     ethr =  1.00E-02,  avg # of iterations =  3.3

     Threshold (ethr) on eigenvalues was too large:
     Diagonalizing with lowered threshold

     Davidson diagonalization with overlap
     ethr =  1.95E-04,  avg # of iterations =  3.2

     total cpu time spent up to now is       13.8 secs

     total energy              =    -158.01598991 Ry
     Harris-Foulkes estimate   =    -158.01718400 Ry
     estimated scf accuracy    <       0.02259768 Ry

     iteration #  2     ecut=    50.00 Ry     beta= 0.10
     Davidson diagonalization with overlap
     ethr =  1.88E-04,  avg # of iterations =  1.0

     total cpu time spent up to now is       17.7 secs

     total energy              =    -158.01093263 Ry
     Harris-Foulkes estimate   =    -158.01609996 Ry
     estimated scf accuracy    <       0.01803397 Ry

     iteration #  3     ecut=    50.00 Ry     beta= 0.10
     Davidson diagonalization with overlap
     ethr =  1.50E-04,  avg # of iterations =  1.0

     total cpu time spent up to now is       21.5 secs

     total energy              =    -158.01128751 Ry
     Harris-Foulkes estimate   =    -158.01128278 Ry
     estimated scf accuracy    <       0.00004612 Ry

     iteration #  4     ecut=    50.00 Ry     beta= 0.10
     Davidson diagonalization with overlap
     c_bands:  1 eigenvalues not converged
     c_bands:  1 eigenvalues not converged
     ethr =  3.84E-07,  avg # of iterations =  4.7

     total cpu time spent up to now is       28.5 secs

     total energy              =    -158.01148610 Ry
     Harris-Foulkes estimate   =    -158.01136880 Ry
     estimated scf accuracy    <       0.00003544 Ry

     iteration #  5     ecut=    50.00 Ry     beta= 0.10
     Davidson diagonalization with overlap
     ethr =  2.95E-07,  avg # of iterations =  2.2

     total cpu time spent up to now is       33.5 secs

     total energy              =    -158.01134448 Ry
     Harris-Foulkes estimate   =    -158.01149316 Ry
     estimated scf accuracy    <       0.00034010 Ry

     iteration #  6     ecut=    50.00 Ry     beta= 0.10
     Davidson diagonalization with overlap
     ethr =  2.95E-07,  avg # of iterations =  2.3

     total cpu time spent up to now is       38.5 secs

     total energy              =    -158.01135505 Ry
     Harris-Foulkes estimate   =    -158.01135717 Ry
     estimated scf accuracy    <       0.00000456 Ry

     iteration #  7     ecut=    50.00 Ry     beta= 0.10
     Davidson diagonalization with overlap
     ethr =  3.80E-08,  avg # of iterations =  1.1

     total cpu time spent up to now is       42.3 secs

     End of self-consistent calculation

     Number of k-points >= 100: set verbosity='high' to print the bands.

     the Fermi energy is     7.8987 ev

!    total energy              =    -158.01135519 Ry
     Harris-Foulkes estimate   =    -158.01135533 Ry
     estimated scf accuracy    <       0.00000036 Ry

     total all-electron energy =     -1942.582477 Ry

     The total energy is the sum of the following terms:

     one-electron contribution =      12.64206922 Ry
     hartree contribution      =       0.02453403 Ry
     xc contribution           =     -10.36150542 Ry
     ewald contribution        =     -21.60757857 Ry
     one-center paw contrib.   =    -138.70936192 Ry
     smearing contrib. (-TS)   =       0.00048746 Ry

     convergence has been achieved in   7 iterations

     Forces acting on atoms (cartesian axes, Ry/au):

     atom    1 type  1   force =     0.00000000    0.00000000    0.00000000
     atom    2 type  1   force =     0.00000000    0.00000000    0.00000000
     atom    3 type  1   force =     0.00000000    0.00000000    0.00000000
     atom    4 type  1   force =     0.00000000    0.00000000    0.00000000

     Total force =     0.000000     Total SCF correction =     0.000000


     Computing stress (Cartesian axis) and pressure

          total   stress  (Ry/bohr**3)                   (kbar)     P=   -2.24
  -0.00000934   0.00000000   0.00000000         -1.37      0.00      0.00
   0.00000000  -0.00000934   0.00000000          0.00     -1.37      0.00
   0.00000000   0.00000000  -0.00002691          0.00      0.00     -3.96


     Writing output data file BEclMiQXdCRShsfL.save/

     init_run     :      2.93s CPU      2.95s WALL (       1 calls)
     electrons    :     38.93s CPU     39.07s WALL (       1 calls)
     forces       :      0.63s CPU      0.63s WALL (       1 calls)
     stress       :      1.36s CPU      1.36s WALL (       1 calls)

     Called by init_run:
     wfcinit      :      2.56s CPU      2.57s WALL (       1 calls)
     potinit      :      0.16s CPU      0.16s WALL (       1 calls)
     hinit0       :      0.20s CPU      0.20s WALL (       1 calls)

     Called by electrons:
     c_bands      :     32.61s CPU     32.74s WALL (       8 calls)
     sum_band     :      5.28s CPU      5.29s WALL (       8 calls)
     v_of_rho     :      0.15s CPU      0.15s WALL (       8 calls)
     newd         :      0.09s CPU      0.09s WALL (       8 calls)
     PAW_pot      :      0.93s CPU      0.93s WALL (       8 calls)
     mix_rho      :      0.01s CPU      0.01s WALL (       8 calls)

     Called by c_bands:
     init_us_2    :      0.88s CPU      0.89s WALL (    2394 calls)
     cegterg      :     31.32s CPU     31.41s WALL (    1008 calls)

     Called by sum_band:
     sum_band:bec :      0.00s CPU      0.00s WALL (    1008 calls)
     addusdens    :      0.07s CPU      0.07s WALL (       8 calls)

     Called by *egterg:
     h_psi        :     25.93s CPU     26.01s WALL (    3535 calls)
     s_psi        :      2.05s CPU      2.05s WALL (    3535 calls)
     g_psi        :      0.15s CPU      0.15s WALL (    2401 calls)
     cdiaghg      :      0.40s CPU      0.40s WALL (    3283 calls)

     Called by h_psi:
     h_psi:pot    :     25.84s CPU     25.91s WALL (    3535 calls)
     h_psi:calbec :      2.57s CPU      2.58s WALL (    3535 calls)
     vloc_psi     :     21.23s CPU     21.30s WALL (    3535 calls)
     add_vuspsi   :      2.03s CPU      2.03s WALL (    3535 calls)

     General routines
     calbec       :      4.03s CPU      4.03s WALL (    5173 calls)
     fft          :      0.07s CPU      0.07s WALL (     114 calls)
     ffts         :      0.00s CPU      0.00s WALL (       8 calls)
     fftw         :     23.23s CPU     23.30s WALL (   67220 calls)

     Parallel routines

     PWSCF        :     44.17s CPU     44.37s WALL


   This run was terminated on:  12:30:21  14May2021            

=------------------------------------------------------------------------------=
   JOB DONE.
=------------------------------------------------------------------------------=
