
     Program PWSCF v.6.4.1 starts on 14May2021 at 12:31:51 

     This program is part of the open-source Quantum ESPRESSO suite
     for quantum simulation of materials; please cite
         "P. Giannozzi et al., J. Phys.:Condens. Matter 21 395502 (2009);
         "P. Giannozzi et al., J. Phys.:Condens. Matter 29 465901 (2017);
          URL http://www.quantum-espresso.org", 
     in publications or presentations arising from this work. More details at
     http://www.quantum-espresso.org/quote

     Parallel version (MPI), running on     1 processors

     MPI processes distributed on     1 nodes
     Reading input from /cloud/Code/python/qeeos/examples/aluminium/wd/ec/ec_3_009.in
Warning: card &IONS ignored
Warning: card ION_DYNAMICS = 'BFGS', ignored
Warning: card / ignored
Warning: card &CELL ignored
Warning: card CELL_DYNAMICS = 'BFGS', ignored
Warning: card CELL_FACTOR = 2.0, ignored
Warning: card PRESS = 0.0, ignored
Warning: card / ignored

     Current dimensions of program PWSCF are:
     Max number of different atomic species (ntypx) = 10
     Max number of k-points (npk) =  40000
     Max angular momentum in pseudopotentials (lmaxx) =  3
               file Al.pbe-nl-kjpaw_psl.1.0.0.UPF: wavefunction(s)  3S 3P renormalized

     Subspace diagonalization in iterative solution of the eigenvalue problem:
     a serial algorithm will be used

     Found symmetry operation: I + ( -0.5000 -0.5000  0.0000)
     This is a supercell, fractional translations are disabled
     Message from routine setup:
     DEPRECATED: symmetry with ibrav=0, use correct ibrav instead

     G-vector sticks info
     --------------------
     sticks:   dense  smooth     PW     G-vecs:    dense   smooth      PW
     Sum         933     933    285                21319    21319    3583



     bravais-lattice index     =            0
     lattice parameter (alat)  =       7.6308  a.u.
     unit-cell volume          =     446.5590 (a.u.)^3
     number of atoms/cell      =            4
     number of atomic types    =            1
     number of electrons       =        12.00
     number of Kohn-Sham states=           10
     kinetic-energy cutoff     =      50.0000  Ry
     charge density cutoff     =     200.0000  Ry
     convergence threshold     =      1.0E-06
     mixing beta               =       0.1000
     number of iterations used =           10  plain     mixing
     Exchange-correlation      = SLA PW PBX PBC ( 1  4  3  4 0 0)

     celldm(1)=   7.630815  celldm(2)=   0.000000  celldm(3)=   0.000000
     celldm(4)=   0.000000  celldm(5)=   0.000000  celldm(6)=   0.000000

     crystal axes: (cart. coord. in units of alat)
               a(1) = (   1.000000   0.000000   0.000000 )  
               a(2) = (   0.000000   1.000000   0.000000 )  
               a(3) = (   0.000000   0.000000   1.005000 )  

     reciprocal axes: (cart. coord. in units 2 pi/alat)
               b(1) = (  1.000000  0.000000  0.000000 )  
               b(2) = (  0.000000  1.000000  0.000000 )  
               b(3) = (  0.000000  0.000000  0.995025 )  


     PseudoPot. # 1 for Al read from file:
     /opt/pp/Al.pbe-nl-kjpaw_psl.1.0.0.UPF
     MD5 check sum: 1b67f78b73fe58c7924490f171ce8a1e
     Pseudo is Projector augmented-wave + core cor, Zval =  3.0
     Generated using "atomic" code by A. Dal Corso v.6.3
     Shape of augmentation charge: PSQ
     Using radial grid of 1135 points,  4 beta functions with: 
                l(1) =   0
                l(2) =   0
                l(3) =   1
                l(4) =   1
     Q(r) pseudized with 0 coefficients 


     atomic species   valence    mass     pseudopotential
        Al             3.00    26.98200     Al( 1.00)

     16 Sym. Ops., with inversion, found



   Cartesian axes

     site n.     atom                  positions (alat units)
         1           Al  tau(   1) = (   0.0000000   0.0000000   0.0000000  )
         2           Al  tau(   2) = (   0.5000001   0.5000001   0.0000000  )
         3           Al  tau(   3) = (   0.5000001   0.0000000   0.5025000  )
         4           Al  tau(   4) = (   0.0000000   0.5000001   0.5025000  )

     number of k points=   126  Marzari-Vanderbilt smearing, width (Ry)=  0.0400

     Number of k-points >= 100: set verbosity='high' to print them.

     Dense  grid:    21319 G-vectors     FFT dimensions: (  36,  36,  36)

     Estimated max dynamical RAM per process >      84.14 MB

     Initial potential from superposition of free atoms

     starting charge   11.99084, renormalised to   12.00000
     Starting wfcs are   16 randomized atomic wfcs
     Checking if some PAW data can be deallocated... 

     total cpu time spent up to now is        3.2 secs

     Self-consistent Calculation

     iteration #  1     ecut=    50.00 Ry     beta= 0.10
     Davidson diagonalization with overlap
     ethr =  1.00E-02,  avg # of iterations =  3.3

     Threshold (ethr) on eigenvalues was too large:
     Diagonalizing with lowered threshold

     Davidson diagonalization with overlap
     ethr =  1.95E-04,  avg # of iterations =  3.3

     total cpu time spent up to now is       13.8 secs

     total energy              =    -158.01596436 Ry
     Harris-Foulkes estimate   =    -158.01715830 Ry
     estimated scf accuracy    <       0.02259937 Ry

     iteration #  2     ecut=    50.00 Ry     beta= 0.10
     Davidson diagonalization with overlap
     ethr =  1.88E-04,  avg # of iterations =  1.0

     total cpu time spent up to now is       17.6 secs

     total energy              =    -158.01090214 Ry
     Harris-Foulkes estimate   =    -158.01607145 Ry
     estimated scf accuracy    <       0.01803699 Ry

     iteration #  3     ecut=    50.00 Ry     beta= 0.10
     Davidson diagonalization with overlap
     ethr =  1.50E-04,  avg # of iterations =  1.0

     total cpu time spent up to now is       21.5 secs

     total energy              =    -158.01125765 Ry
     Harris-Foulkes estimate   =    -158.01125290 Ry
     estimated scf accuracy    <       0.00004566 Ry

     iteration #  4     ecut=    50.00 Ry     beta= 0.10
     Davidson diagonalization with overlap
     c_bands:  1 eigenvalues not converged
     c_bands:  1 eigenvalues not converged
     ethr =  3.80E-07,  avg # of iterations =  4.5

     total cpu time spent up to now is       28.4 secs

     total energy              =    -158.01146462 Ry
     Harris-Foulkes estimate   =    -158.01133946 Ry
     estimated scf accuracy    <       0.00003562 Ry

     iteration #  5     ecut=    50.00 Ry     beta= 0.10
     Davidson diagonalization with overlap
     ethr =  2.97E-07,  avg # of iterations =  2.3

     total cpu time spent up to now is       33.4 secs

     total energy              =    -158.01131616 Ry
     Harris-Foulkes estimate   =    -158.01147232 Ry
     estimated scf accuracy    <       0.00036200 Ry

     iteration #  6     ecut=    50.00 Ry     beta= 0.10
     Davidson diagonalization with overlap
     ethr =  2.97E-07,  avg # of iterations =  2.3

     total cpu time spent up to now is       38.4 secs

     total energy              =    -158.01132550 Ry
     Harris-Foulkes estimate   =    -158.01132886 Ry
     estimated scf accuracy    <       0.00000726 Ry

     iteration #  7     ecut=    50.00 Ry     beta= 0.10
     Davidson diagonalization with overlap
     ethr =  6.05E-08,  avg # of iterations =  1.0

     total cpu time spent up to now is       42.2 secs

     End of self-consistent calculation

     Number of k-points >= 100: set verbosity='high' to print the bands.

     the Fermi energy is     7.8793 ev

!    total energy              =    -158.01132574 Ry
     Harris-Foulkes estimate   =    -158.01132590 Ry
     estimated scf accuracy    <       0.00000042 Ry

     total all-electron energy =     -1942.582448 Ry

     The total energy is the sum of the following terms:

     one-electron contribution =      12.62411704 Ry
     hartree contribution      =       0.02449186 Ry
     xc contribution           =     -10.35752970 Ry
     ewald contribution        =     -21.59412743 Ry
     one-center paw contrib.   =    -138.70874830 Ry
     smearing contrib. (-TS)   =       0.00047080 Ry

     convergence has been achieved in   7 iterations

     Forces acting on atoms (cartesian axes, Ry/au):

     atom    1 type  1   force =     0.00000000    0.00000000    0.00000000
     atom    2 type  1   force =     0.00000000    0.00000000    0.00000000
     atom    3 type  1   force =     0.00000000    0.00000000    0.00000000
     atom    4 type  1   force =     0.00000000    0.00000000    0.00000000

     Total force =     0.000000     Total SCF correction =     0.000000


     Computing stress (Cartesian axis) and pressure

          total   stress  (Ry/bohr**3)                   (kbar)     P=   -3.63
  -0.00001541   0.00000000   0.00000000         -2.27      0.00      0.00
   0.00000000  -0.00001541   0.00000000          0.00     -2.27      0.00
   0.00000000   0.00000000  -0.00004319          0.00      0.00     -6.35


     Writing output data file krTxEFqtaKBiiNON.save/

     init_run     :      2.92s CPU      2.95s WALL (       1 calls)
     electrons    :     38.71s CPU     38.93s WALL (       1 calls)
     forces       :      0.62s CPU      0.64s WALL (       1 calls)
     stress       :      1.36s CPU      1.37s WALL (       1 calls)

     Called by init_run:
     wfcinit      :      2.55s CPU      2.57s WALL (       1 calls)
     potinit      :      0.15s CPU      0.16s WALL (       1 calls)
     hinit0       :      0.20s CPU      0.20s WALL (       1 calls)

     Called by electrons:
     c_bands      :     32.39s CPU     32.58s WALL (       8 calls)
     sum_band     :      5.28s CPU      5.30s WALL (       8 calls)
     v_of_rho     :      0.15s CPU      0.15s WALL (       8 calls)
     newd         :      0.09s CPU      0.09s WALL (       8 calls)
     PAW_pot      :      0.93s CPU      0.93s WALL (       8 calls)
     mix_rho      :      0.01s CPU      0.01s WALL (       8 calls)

     Called by c_bands:
     init_us_2    :      0.88s CPU      0.89s WALL (    2394 calls)
     cegterg      :     31.11s CPU     31.26s WALL (    1008 calls)

     Called by sum_band:
     sum_band:bec :      0.00s CPU      0.00s WALL (    1008 calls)
     addusdens    :      0.07s CPU      0.07s WALL (       8 calls)

     Called by *egterg:
     h_psi        :     25.73s CPU     25.87s WALL (    3503 calls)
     s_psi        :      2.04s CPU      2.05s WALL (    3503 calls)
     g_psi        :      0.15s CPU      0.15s WALL (    2369 calls)
     cdiaghg      :      0.39s CPU      0.40s WALL (    3251 calls)

     Called by h_psi:
     h_psi:pot    :     25.64s CPU     25.79s WALL (    3503 calls)
     h_psi:calbec :      2.56s CPU      2.58s WALL (    3503 calls)
     vloc_psi     :     21.06s CPU     21.18s WALL (    3503 calls)
     add_vuspsi   :      2.01s CPU      2.02s WALL (    3503 calls)

     General routines
     calbec       :      4.01s CPU      4.03s WALL (    5141 calls)
     fft          :      0.07s CPU      0.07s WALL (     114 calls)
     ffts         :      0.00s CPU      0.00s WALL (       8 calls)
     fftw         :     23.09s CPU     23.21s WALL (   67252 calls)

     Parallel routines

     PWSCF        :     43.93s CPU     44.24s WALL


   This run was terminated on:  12:32:35  14May2021            

=------------------------------------------------------------------------------=
   JOB DONE.
=------------------------------------------------------------------------------=
