
     Program PWSCF v.6.4.1 starts on 14May2021 at 12:30:22 

     This program is part of the open-source Quantum ESPRESSO suite
     for quantum simulation of materials; please cite
         "P. Giannozzi et al., J. Phys.:Condens. Matter 21 395502 (2009);
         "P. Giannozzi et al., J. Phys.:Condens. Matter 29 465901 (2017);
          URL http://www.quantum-espresso.org", 
     in publications or presentations arising from this work. More details at
     http://www.quantum-espresso.org/quote

     Parallel version (MPI), running on     1 processors

     MPI processes distributed on     1 nodes
     Reading input from /cloud/Code/python/qeeos/examples/aluminium/wd/ec/ec_3_007.in
Warning: card &IONS ignored
Warning: card ION_DYNAMICS = 'BFGS', ignored
Warning: card / ignored
Warning: card &CELL ignored
Warning: card CELL_DYNAMICS = 'BFGS', ignored
Warning: card CELL_FACTOR = 2.0, ignored
Warning: card PRESS = 0.0, ignored
Warning: card / ignored

     Current dimensions of program PWSCF are:
     Max number of different atomic species (ntypx) = 10
     Max number of k-points (npk) =  40000
     Max angular momentum in pseudopotentials (lmaxx) =  3
               file Al.pbe-nl-kjpaw_psl.1.0.0.UPF: wavefunction(s)  3S 3P renormalized

     Subspace diagonalization in iterative solution of the eigenvalue problem:
     a serial algorithm will be used

     Found symmetry operation: I + ( -0.5000 -0.5000  0.0000)
     This is a supercell, fractional translations are disabled
     Message from routine setup:
     DEPRECATED: symmetry with ibrav=0, use correct ibrav instead

     G-vector sticks info
     --------------------
     sticks:   dense  smooth     PW     G-vecs:    dense   smooth      PW
     Sum         933     933    285                21295    21295    3575



     bravais-lattice index     =            0
     lattice parameter (alat)  =       7.6308  a.u.
     unit-cell volume          =     446.0036 (a.u.)^3
     number of atoms/cell      =            4
     number of atomic types    =            1
     number of electrons       =        12.00
     number of Kohn-Sham states=           10
     kinetic-energy cutoff     =      50.0000  Ry
     charge density cutoff     =     200.0000  Ry
     convergence threshold     =      1.0E-06
     mixing beta               =       0.1000
     number of iterations used =           10  plain     mixing
     Exchange-correlation      = SLA PW PBX PBC ( 1  4  3  4 0 0)

     celldm(1)=   7.630815  celldm(2)=   0.000000  celldm(3)=   0.000000
     celldm(4)=   0.000000  celldm(5)=   0.000000  celldm(6)=   0.000000

     crystal axes: (cart. coord. in units of alat)
               a(1) = (   1.000000   0.000000   0.000000 )  
               a(2) = (   0.000000   1.000000   0.000000 )  
               a(3) = (   0.000000   0.000000   1.003750 )  

     reciprocal axes: (cart. coord. in units 2 pi/alat)
               b(1) = (  1.000000  0.000000  0.000000 )  
               b(2) = (  0.000000  1.000000  0.000000 )  
               b(3) = (  0.000000  0.000000  0.996264 )  


     PseudoPot. # 1 for Al read from file:
     /opt/pp/Al.pbe-nl-kjpaw_psl.1.0.0.UPF
     MD5 check sum: 1b67f78b73fe58c7924490f171ce8a1e
     Pseudo is Projector augmented-wave + core cor, Zval =  3.0
     Generated using "atomic" code by A. Dal Corso v.6.3
     Shape of augmentation charge: PSQ
     Using radial grid of 1135 points,  4 beta functions with: 
                l(1) =   0
                l(2) =   0
                l(3) =   1
                l(4) =   1
     Q(r) pseudized with 0 coefficients 


     atomic species   valence    mass     pseudopotential
        Al             3.00    26.98200     Al( 1.00)

     16 Sym. Ops., with inversion, found



   Cartesian axes

     site n.     atom                  positions (alat units)
         1           Al  tau(   1) = (   0.0000000   0.0000000   0.0000000  )
         2           Al  tau(   2) = (   0.5000001   0.5000001   0.0000000  )
         3           Al  tau(   3) = (   0.5000001   0.0000000   0.5018750  )
         4           Al  tau(   4) = (   0.0000000   0.5000001   0.5018750  )

     number of k points=   126  Marzari-Vanderbilt smearing, width (Ry)=  0.0400

     Number of k-points >= 100: set verbosity='high' to print them.

     Dense  grid:    21295 G-vectors     FFT dimensions: (  36,  36,  36)

     Estimated max dynamical RAM per process >      84.04 MB

     Initial potential from superposition of free atoms

     starting charge   11.99084, renormalised to   12.00000
     Starting wfcs are   16 randomized atomic wfcs
     Checking if some PAW data can be deallocated... 

     total cpu time spent up to now is        3.2 secs

     Self-consistent Calculation

     iteration #  1     ecut=    50.00 Ry     beta= 0.10
     Davidson diagonalization with overlap
     ethr =  1.00E-02,  avg # of iterations =  3.3

     Threshold (ethr) on eigenvalues was too large:
     Diagonalizing with lowered threshold

     Davidson diagonalization with overlap
     ethr =  1.95E-04,  avg # of iterations =  3.2

     total cpu time spent up to now is       13.8 secs

     total energy              =    -158.01598226 Ry
     Harris-Foulkes estimate   =    -158.01717646 Ry
     estimated scf accuracy    <       0.02259965 Ry

     iteration #  2     ecut=    50.00 Ry     beta= 0.10
     Davidson diagonalization with overlap
     ethr =  1.88E-04,  avg # of iterations =  1.0

     total cpu time spent up to now is       17.6 secs

     total energy              =    -158.01092428 Ry
     Harris-Foulkes estimate   =    -158.01609152 Ry
     estimated scf accuracy    <       0.01803471 Ry

     iteration #  3     ecut=    50.00 Ry     beta= 0.10
     Davidson diagonalization with overlap
     ethr =  1.50E-04,  avg # of iterations =  1.0

     total cpu time spent up to now is       21.5 secs

     total energy              =    -158.01127936 Ry
     Harris-Foulkes estimate   =    -158.01127464 Ry
     estimated scf accuracy    <       0.00004628 Ry

     iteration #  4     ecut=    50.00 Ry     beta= 0.10
     Davidson diagonalization with overlap
     c_bands:  1 eigenvalues not converged
     c_bands:  1 eigenvalues not converged
     ethr =  3.86E-07,  avg # of iterations =  4.6

     total cpu time spent up to now is       28.5 secs

     total energy              =    -158.01147734 Ry
     Harris-Foulkes estimate   =    -158.01136061 Ry
     estimated scf accuracy    <       0.00003561 Ry

     iteration #  5     ecut=    50.00 Ry     beta= 0.10
     Davidson diagonalization with overlap
     ethr =  2.97E-07,  avg # of iterations =  2.2

     total cpu time spent up to now is       33.4 secs

     total energy              =    -158.01133755 Ry
     Harris-Foulkes estimate   =    -158.01148438 Ry
     estimated scf accuracy    <       0.00033881 Ry

     iteration #  6     ecut=    50.00 Ry     beta= 0.10
     Davidson diagonalization with overlap
     ethr =  2.97E-07,  avg # of iterations =  2.2

     total cpu time spent up to now is       38.5 secs

     total energy              =    -158.01134668 Ry
     Harris-Foulkes estimate   =    -158.01134967 Ry
     estimated scf accuracy    <       0.00000641 Ry

     iteration #  7     ecut=    50.00 Ry     beta= 0.10
     Davidson diagonalization with overlap
     ethr =  5.34E-08,  avg # of iterations =  1.0

     total cpu time spent up to now is       42.3 secs

     End of self-consistent calculation

     Number of k-points >= 100: set verbosity='high' to print the bands.

     the Fermi energy is     7.8922 ev

!    total energy              =    -158.01134690 Ry
     Harris-Foulkes estimate   =    -158.01134704 Ry
     estimated scf accuracy    <       0.00000036 Ry

     total all-electron energy =     -1942.582469 Ry

     The total energy is the sum of the following terms:

     one-electron contribution =      12.63608532 Ry
     hartree contribution      =       0.02451986 Ry
     xc contribution           =     -10.36017951 Ry
     ewald contribution        =     -21.60309141 Ry
     one-center paw contrib.   =    -138.70916346 Ry
     smearing contrib. (-TS)   =       0.00048229 Ry

     convergence has been achieved in   7 iterations

     Forces acting on atoms (cartesian axes, Ry/au):

     atom    1 type  1   force =     0.00000000    0.00000000    0.00000000
     atom    2 type  1   force =     0.00000000    0.00000000    0.00000000
     atom    3 type  1   force =     0.00000000    0.00000000    0.00000000
     atom    4 type  1   force =     0.00000000    0.00000000    0.00000000

     Total force =     0.000000     Total SCF correction =     0.000000


     Computing stress (Cartesian axis) and pressure

          total   stress  (Ry/bohr**3)                   (kbar)     P=   -2.69
  -0.00001129   0.00000000   0.00000000         -1.66      0.00      0.00
   0.00000000  -0.00001129   0.00000000          0.00     -1.66      0.00
   0.00000000   0.00000000  -0.00003230          0.00      0.00     -4.75


     Writing output data file tdfyGmVOLBCHoBzW.save/

     init_run     :      2.94s CPU      2.95s WALL (       1 calls)
     electrons    :     38.78s CPU     39.02s WALL (       1 calls)
     forces       :      0.63s CPU      0.63s WALL (       1 calls)
     stress       :      1.37s CPU      1.37s WALL (       1 calls)

     Called by init_run:
     wfcinit      :      2.57s CPU      2.58s WALL (       1 calls)
     potinit      :      0.16s CPU      0.16s WALL (       1 calls)
     hinit0       :      0.20s CPU      0.20s WALL (       1 calls)

     Called by electrons:
     c_bands      :     32.45s CPU     32.66s WALL (       8 calls)
     sum_band     :      5.28s CPU      5.30s WALL (       8 calls)
     v_of_rho     :      0.15s CPU      0.15s WALL (       8 calls)
     newd         :      0.10s CPU      0.10s WALL (       8 calls)
     PAW_pot      :      0.93s CPU      0.94s WALL (       8 calls)
     mix_rho      :      0.01s CPU      0.01s WALL (       8 calls)

     Called by c_bands:
     init_us_2    :      0.88s CPU      0.89s WALL (    2394 calls)
     cegterg      :     31.17s CPU     31.34s WALL (    1008 calls)

     Called by sum_band:
     sum_band:bec :      0.00s CPU      0.00s WALL (    1008 calls)
     addusdens    :      0.07s CPU      0.07s WALL (       8 calls)

     Called by *egterg:
     h_psi        :     25.78s CPU     25.93s WALL (    3494 calls)
     s_psi        :      2.05s CPU      2.06s WALL (    3494 calls)
     g_psi        :      0.15s CPU      0.15s WALL (    2360 calls)
     cdiaghg      :      0.40s CPU      0.40s WALL (    3242 calls)

     Called by h_psi:
     h_psi:pot    :     25.69s CPU     25.84s WALL (    3494 calls)
     h_psi:calbec :      2.57s CPU      2.59s WALL (    3494 calls)
     vloc_psi     :     21.08s CPU     21.21s WALL (    3494 calls)
     add_vuspsi   :      2.03s CPU      2.04s WALL (    3494 calls)

     General routines
     calbec       :      4.03s CPU      4.04s WALL (    5132 calls)
     fft          :      0.07s CPU      0.07s WALL (     114 calls)
     ffts         :      0.00s CPU      0.00s WALL (       8 calls)
     fftw         :     23.09s CPU     23.23s WALL (   67206 calls)

     Parallel routines

     PWSCF        :     44.06s CPU     44.33s WALL


   This run was terminated on:  12:31: 6  14May2021            

=------------------------------------------------------------------------------=
   JOB DONE.
=------------------------------------------------------------------------------=
