
     Program PWSCF v.6.4.1 starts on 14May2021 at 12:40: 4 

     This program is part of the open-source Quantum ESPRESSO suite
     for quantum simulation of materials; please cite
         "P. Giannozzi et al., J. Phys.:Condens. Matter 21 395502 (2009);
         "P. Giannozzi et al., J. Phys.:Condens. Matter 29 465901 (2017);
          URL http://www.quantum-espresso.org", 
     in publications or presentations arising from this work. More details at
     http://www.quantum-espresso.org/quote

     Parallel version (MPI), running on     1 processors

     MPI processes distributed on     1 nodes
     Reading input from /cloud/Code/python/qeeos/examples/aluminium/wd/ec/ec_4_008.in
Warning: card &IONS ignored
Warning: card ION_DYNAMICS = 'BFGS', ignored
Warning: card / ignored
Warning: card &CELL ignored
Warning: card CELL_DYNAMICS = 'BFGS', ignored
Warning: card CELL_FACTOR = 2.0, ignored
Warning: card PRESS = 0.0, ignored
Warning: card / ignored

     Current dimensions of program PWSCF are:
     Max number of different atomic species (ntypx) = 10
     Max number of k-points (npk) =  40000
     Max angular momentum in pseudopotentials (lmaxx) =  3
               file Al.pbe-nl-kjpaw_psl.1.0.0.UPF: wavefunction(s)  3S 3P renormalized

     Subspace diagonalization in iterative solution of the eigenvalue problem:
     a serial algorithm will be used

     Found symmetry operation: I + ( -0.5000 -0.5000  0.0000)
     This is a supercell, fractional translations are disabled
     Message from routine setup:
     DEPRECATED: symmetry with ibrav=0, use correct ibrav instead

     G-vector sticks info
     --------------------
     sticks:   dense  smooth     PW     G-vecs:    dense   smooth      PW
     Sum         933     933    285                21231    21231    3555



     bravais-lattice index     =            0
     lattice parameter (alat)  =       7.6308  a.u.
     unit-cell volume          =     444.3373 (a.u.)^3
     number of atoms/cell      =            4
     number of atomic types    =            1
     number of electrons       =        12.00
     number of Kohn-Sham states=           10
     kinetic-energy cutoff     =      50.0000  Ry
     charge density cutoff     =     200.0000  Ry
     convergence threshold     =      1.0E-06
     mixing beta               =       0.1000
     number of iterations used =           10  plain     mixing
     Exchange-correlation      = SLA PW PBX PBC ( 1  4  3  4 0 0)

     celldm(1)=   7.630815  celldm(2)=   0.000000  celldm(3)=   0.000000
     celldm(4)=   0.000000  celldm(5)=   0.000000  celldm(6)=   0.000000

     crystal axes: (cart. coord. in units of alat)
               a(1) = (   1.000006   0.000000   0.000000 )  
               a(2) = (   0.000000   1.000006   0.004375 )  
               a(3) = (   0.000000   0.004375   1.000006 )  

     reciprocal axes: (cart. coord. in units 2 pi/alat)
               b(1) = (  0.999994  0.000000  0.000000 )  
               b(2) = (  0.000000  1.000013 -0.004375 )  
               b(3) = (  0.000000 -0.004375  1.000013 )  


     PseudoPot. # 1 for Al read from file:
     /opt/pp/Al.pbe-nl-kjpaw_psl.1.0.0.UPF
     MD5 check sum: 1b67f78b73fe58c7924490f171ce8a1e
     Pseudo is Projector augmented-wave + core cor, Zval =  3.0
     Generated using "atomic" code by A. Dal Corso v.6.3
     Shape of augmentation charge: PSQ
     Using radial grid of 1135 points,  4 beta functions with: 
                l(1) =   0
                l(2) =   0
                l(3) =   1
                l(4) =   1
     Q(r) pseudized with 0 coefficients 


     atomic species   valence    mass     pseudopotential
        Al             3.00    26.98200     Al( 1.00)

      8 Sym. Ops., with inversion, found



   Cartesian axes

     site n.     atom                  positions (alat units)
         1           Al  tau(   1) = (   0.0000000   0.0000000   0.0000000  )
         2           Al  tau(   2) = (   0.5000033   0.5000033   0.0021875  )
         3           Al  tau(   3) = (   0.5000033   0.0021875   0.5000032  )
         4           Al  tau(   4) = (   0.0000000   0.5021908   0.5021907  )

     number of k points=   216  Marzari-Vanderbilt smearing, width (Ry)=  0.0400

     Number of k-points >= 100: set verbosity='high' to print them.

     Dense  grid:    21231 G-vectors     FFT dimensions: (  36,  36,  36)

     Estimated max dynamical RAM per process >     120.20 MB

     Initial potential from superposition of free atoms

     starting charge   11.99084, renormalised to   12.00000
     Starting wfcs are   16 randomized atomic wfcs
     Checking if some PAW data can be deallocated... 

     total cpu time spent up to now is        5.1 secs

     Self-consistent Calculation

     iteration #  1     ecut=    50.00 Ry     beta= 0.10
     Davidson diagonalization with overlap
     ethr =  1.00E-02,  avg # of iterations =  3.3

     Threshold (ethr) on eigenvalues was too large:
     Diagonalizing with lowered threshold

     Davidson diagonalization with overlap
     ethr =  1.95E-04,  avg # of iterations =  3.2

     total cpu time spent up to now is       23.3 secs

     total energy              =    -158.01597674 Ry
     Harris-Foulkes estimate   =    -158.01717184 Ry
     estimated scf accuracy    <       0.02259622 Ry

     iteration #  2     ecut=    50.00 Ry     beta= 0.10
     Davidson diagonalization with overlap
     ethr =  1.88E-04,  avg # of iterations =  1.1

     total cpu time spent up to now is       29.7 secs

     total energy              =    -158.01091417 Ry
     Harris-Foulkes estimate   =    -158.01608414 Ry
     estimated scf accuracy    <       0.01803548 Ry

     iteration #  3     ecut=    50.00 Ry     beta= 0.10
     Davidson diagonalization with overlap
     ethr =  1.50E-04,  avg # of iterations =  1.0

     total cpu time spent up to now is       36.1 secs

     total energy              =    -158.01126638 Ry
     Harris-Foulkes estimate   =    -158.01126187 Ry
     estimated scf accuracy    <       0.00004659 Ry

     iteration #  4     ecut=    50.00 Ry     beta= 0.10
     Davidson diagonalization with overlap
     ethr =  3.88E-07,  avg # of iterations =  4.9

     total cpu time spent up to now is       48.0 secs

     total energy              =    -158.01147851 Ry
     Harris-Foulkes estimate   =    -158.01134747 Ry
     estimated scf accuracy    <       0.00003577 Ry

     iteration #  5     ecut=    50.00 Ry     beta= 0.10
     Davidson diagonalization with overlap
     ethr =  2.98E-07,  avg # of iterations =  2.2

     total cpu time spent up to now is       56.4 secs

     total energy              =    -158.01132856 Ry
     Harris-Foulkes estimate   =    -158.01148699 Ry
     estimated scf accuracy    <       0.00037945 Ry

     iteration #  6     ecut=    50.00 Ry     beta= 0.10
     Davidson diagonalization with overlap
     ethr =  2.98E-07,  avg # of iterations =  2.3

     total cpu time spent up to now is       64.8 secs

     total energy              =    -158.01133303 Ry
     Harris-Foulkes estimate   =    -158.01134047 Ry
     estimated scf accuracy    <       0.00001609 Ry

     iteration #  7     ecut=    50.00 Ry     beta= 0.10
     Davidson diagonalization with overlap
     ethr =  1.34E-07,  avg # of iterations =  1.0

     total cpu time spent up to now is       71.2 secs

     End of self-consistent calculation

     Number of k-points >= 100: set verbosity='high' to print the bands.

     the Fermi energy is     7.9311 ev

!    total energy              =    -158.01133365 Ry
     Harris-Foulkes estimate   =    -158.01133381 Ry
     estimated scf accuracy    <       0.00000042 Ry

     total all-electron energy =     -1942.582456 Ry

     The total energy is the sum of the following terms:

     one-electron contribution =      12.67210142 Ry
     hartree contribution      =       0.02465918 Ry
     xc contribution           =     -10.36820672 Ry
     ewald contribution        =     -21.62989508 Ry
     one-center paw contrib.   =    -138.71049825 Ry
     smearing contrib. (-TS)   =       0.00050579 Ry

     convergence has been achieved in   7 iterations

     Forces acting on atoms (cartesian axes, Ry/au):

     atom    1 type  1   force =     0.00000000    0.00000000    0.00000000
     atom    2 type  1   force =     0.00000000    0.00000000    0.00000000
     atom    3 type  1   force =     0.00000000    0.00000000    0.00000000
     atom    4 type  1   force =     0.00000000    0.00000000    0.00000000

     Total force =     0.000000     Total SCF correction =     0.000000


     Computing stress (Cartesian axis) and pressure

          total   stress  (Ry/bohr**3)                   (kbar)     P=    0.32
   0.00000222   0.00000000   0.00000000          0.33      0.00      0.00
   0.00000000   0.00000210  -0.00002039          0.00      0.31     -3.00
   0.00000000  -0.00002039   0.00000210          0.00     -3.00      0.31


     Writing output data file sKnQvxShcCBdaaYT.save/

     init_run     :      4.78s CPU      4.83s WALL (       1 calls)
     electrons    :     65.82s CPU     66.13s WALL (       1 calls)
     forces       :      1.06s CPU      1.07s WALL (       1 calls)
     stress       :      2.34s CPU      2.35s WALL (       1 calls)

     Called by init_run:
     wfcinit      :      4.35s CPU      4.38s WALL (       1 calls)
     potinit      :      0.17s CPU      0.18s WALL (       1 calls)
     hinit0       :      0.25s CPU      0.25s WALL (       1 calls)

     Called by electrons:
     c_bands      :     55.75s CPU     56.02s WALL (       8 calls)
     sum_band     :      9.03s CPU      9.06s WALL (       8 calls)
     v_of_rho     :      0.16s CPU      0.16s WALL (       8 calls)
     newd         :      0.08s CPU      0.09s WALL (       8 calls)
     PAW_pot      :      0.93s CPU      0.93s WALL (       8 calls)
     mix_rho      :      0.01s CPU      0.01s WALL (       8 calls)

     Called by c_bands:
     init_us_2    :      1.56s CPU      1.57s WALL (    4104 calls)
     cegterg      :     53.53s CPU     53.74s WALL (    1728 calls)

     Called by sum_band:
     sum_band:bec :      0.01s CPU      0.01s WALL (    1728 calls)
     addusdens    :      0.07s CPU      0.07s WALL (       8 calls)

     Called by *egterg:
     h_psi        :     44.27s CPU     44.46s WALL (    6050 calls)
     s_psi        :      3.49s CPU      3.50s WALL (    6050 calls)
     g_psi        :      0.25s CPU      0.25s WALL (    4106 calls)
     cdiaghg      :      0.69s CPU      0.70s WALL (    5618 calls)

     Called by h_psi:
     h_psi:pot    :     44.11s CPU     44.30s WALL (    6050 calls)
     h_psi:calbec :      4.39s CPU      4.40s WALL (    6050 calls)
     vloc_psi     :     36.26s CPU     36.43s WALL (    6050 calls)
     add_vuspsi   :      3.46s CPU      3.47s WALL (    6050 calls)

     General routines
     calbec       :      6.86s CPU      6.89s WALL (    8858 calls)
     fft          :      0.07s CPU      0.07s WALL (     114 calls)
     ffts         :      0.01s CPU      0.01s WALL (       8 calls)
     fftw         :     39.75s CPU     39.93s WALL (  115414 calls)

     Parallel routines

     PWSCF        :   1m14.36s CPU   1m14.77s WALL


   This run was terminated on:  12:41:19  14May2021            

=------------------------------------------------------------------------------=
   JOB DONE.
=------------------------------------------------------------------------------=
