
     Program PWSCF v.6.4.1 starts on 14May2021 at 12:38:49 

     This program is part of the open-source Quantum ESPRESSO suite
     for quantum simulation of materials; please cite
         "P. Giannozzi et al., J. Phys.:Condens. Matter 21 395502 (2009);
         "P. Giannozzi et al., J. Phys.:Condens. Matter 29 465901 (2017);
          URL http://www.quantum-espresso.org", 
     in publications or presentations arising from this work. More details at
     http://www.quantum-espresso.org/quote

     Parallel version (MPI), running on     1 processors

     MPI processes distributed on     1 nodes
     Reading input from /cloud/Code/python/qeeos/examples/aluminium/wd/ec/ec_4_007.in
Warning: card &IONS ignored
Warning: card ION_DYNAMICS = 'BFGS', ignored
Warning: card / ignored
Warning: card &CELL ignored
Warning: card CELL_DYNAMICS = 'BFGS', ignored
Warning: card CELL_FACTOR = 2.0, ignored
Warning: card PRESS = 0.0, ignored
Warning: card / ignored

     Current dimensions of program PWSCF are:
     Max number of different atomic species (ntypx) = 10
     Max number of k-points (npk) =  40000
     Max angular momentum in pseudopotentials (lmaxx) =  3
               file Al.pbe-nl-kjpaw_psl.1.0.0.UPF: wavefunction(s)  3S 3P renormalized

     Subspace diagonalization in iterative solution of the eigenvalue problem:
     a serial algorithm will be used

     Found symmetry operation: I + ( -0.5000 -0.5000  0.0000)
     This is a supercell, fractional translations are disabled
     Message from routine setup:
     DEPRECATED: symmetry with ibrav=0, use correct ibrav instead

     G-vector sticks info
     --------------------
     sticks:   dense  smooth     PW     G-vecs:    dense   smooth      PW
     Sum         933     933    285                21263    21263    3547



     bravais-lattice index     =            0
     lattice parameter (alat)  =       7.6308  a.u.
     unit-cell volume          =     444.3373 (a.u.)^3
     number of atoms/cell      =            4
     number of atomic types    =            1
     number of electrons       =        12.00
     number of Kohn-Sham states=           10
     kinetic-energy cutoff     =      50.0000  Ry
     charge density cutoff     =     200.0000  Ry
     convergence threshold     =      1.0E-06
     mixing beta               =       0.1000
     number of iterations used =           10  plain     mixing
     Exchange-correlation      = SLA PW PBX PBC ( 1  4  3  4 0 0)

     celldm(1)=   7.630815  celldm(2)=   0.000000  celldm(3)=   0.000000
     celldm(4)=   0.000000  celldm(5)=   0.000000  celldm(6)=   0.000000

     crystal axes: (cart. coord. in units of alat)
               a(1) = (   1.000005   0.000000   0.000000 )  
               a(2) = (   0.000000   1.000005   0.003750 )  
               a(3) = (   0.000000   0.003750   1.000005 )  

     reciprocal axes: (cart. coord. in units 2 pi/alat)
               b(1) = (  0.999995  0.000000  0.000000 )  
               b(2) = (  0.000000  1.000009 -0.003750 )  
               b(3) = (  0.000000 -0.003750  1.000009 )  


     PseudoPot. # 1 for Al read from file:
     /opt/pp/Al.pbe-nl-kjpaw_psl.1.0.0.UPF
     MD5 check sum: 1b67f78b73fe58c7924490f171ce8a1e
     Pseudo is Projector augmented-wave + core cor, Zval =  3.0
     Generated using "atomic" code by A. Dal Corso v.6.3
     Shape of augmentation charge: PSQ
     Using radial grid of 1135 points,  4 beta functions with: 
                l(1) =   0
                l(2) =   0
                l(3) =   1
                l(4) =   1
     Q(r) pseudized with 0 coefficients 


     atomic species   valence    mass     pseudopotential
        Al             3.00    26.98200     Al( 1.00)

      8 Sym. Ops., with inversion, found



   Cartesian axes

     site n.     atom                  positions (alat units)
         1           Al  tau(   1) = (   0.0000000   0.0000000   0.0000000  )
         2           Al  tau(   2) = (   0.5000024   0.5000024   0.0018750  )
         3           Al  tau(   3) = (   0.5000024   0.0018750   0.5000023  )
         4           Al  tau(   4) = (   0.0000000   0.5018775   0.5018774  )

     number of k points=   216  Marzari-Vanderbilt smearing, width (Ry)=  0.0400

     Number of k-points >= 100: set verbosity='high' to print them.

     Dense  grid:    21263 G-vectors     FFT dimensions: (  36,  36,  36)

     Estimated max dynamical RAM per process >     120.24 MB

     Initial potential from superposition of free atoms

     starting charge   11.99084, renormalised to   12.00000
     Starting wfcs are   16 randomized atomic wfcs
     Checking if some PAW data can be deallocated... 

     total cpu time spent up to now is        5.2 secs

     Self-consistent Calculation

     iteration #  1     ecut=    50.00 Ry     beta= 0.10
     Davidson diagonalization with overlap
     ethr =  1.00E-02,  avg # of iterations =  3.3

     Threshold (ethr) on eigenvalues was too large:
     Diagonalizing with lowered threshold

     Davidson diagonalization with overlap
     ethr =  1.95E-04,  avg # of iterations =  3.3

     total cpu time spent up to now is       23.4 secs

     total energy              =    -158.01598654 Ry
     Harris-Foulkes estimate   =    -158.01718135 Ry
     estimated scf accuracy    <       0.02259368 Ry

     iteration #  2     ecut=    50.00 Ry     beta= 0.10
     Davidson diagonalization with overlap
     ethr =  1.88E-04,  avg # of iterations =  1.1

     total cpu time spent up to now is       29.9 secs

     total energy              =    -158.01092358 Ry
     Harris-Foulkes estimate   =    -158.01609465 Ry
     estimated scf accuracy    <       0.01803459 Ry

     iteration #  3     ecut=    50.00 Ry     beta= 0.10
     Davidson diagonalization with overlap
     ethr =  1.50E-04,  avg # of iterations =  1.0

     total cpu time spent up to now is       36.4 secs

     total energy              =    -158.01127710 Ry
     Harris-Foulkes estimate   =    -158.01127252 Ry
     estimated scf accuracy    <       0.00004617 Ry

     iteration #  4     ecut=    50.00 Ry     beta= 0.10
     Davidson diagonalization with overlap
     ethr =  3.85E-07,  avg # of iterations =  4.9

     total cpu time spent up to now is       48.3 secs

     total energy              =    -158.01148867 Ry
     Harris-Foulkes estimate   =    -158.01135806 Ry
     estimated scf accuracy    <       0.00003594 Ry

     iteration #  5     ecut=    50.00 Ry     beta= 0.10
     Davidson diagonalization with overlap
     ethr =  2.99E-07,  avg # of iterations =  2.2

     total cpu time spent up to now is       56.7 secs

     total energy              =    -158.01134126 Ry
     Harris-Foulkes estimate   =    -158.01149716 Ry
     estimated scf accuracy    <       0.00037869 Ry

     iteration #  6     ecut=    50.00 Ry     beta= 0.10
     Davidson diagonalization with overlap
     ethr =  2.99E-07,  avg # of iterations =  2.3

     total cpu time spent up to now is       65.1 secs

     total energy              =    -158.01134333 Ry
     Harris-Foulkes estimate   =    -158.01135256 Ry
     estimated scf accuracy    <       0.00001997 Ry

     iteration #  7     ecut=    50.00 Ry     beta= 0.10
     Davidson diagonalization with overlap
     ethr =  1.66E-07,  avg # of iterations =  1.0

     total cpu time spent up to now is       71.6 secs

     End of self-consistent calculation

     Number of k-points >= 100: set verbosity='high' to print the bands.

     the Fermi energy is     7.9311 ev

!    total energy              =    -158.01134412 Ry
     Harris-Foulkes estimate   =    -158.01134427 Ry
     estimated scf accuracy    <       0.00000040 Ry

     total all-electron energy =     -1942.582466 Ry

     The total energy is the sum of the following terms:

     one-electron contribution =      12.67213874 Ry
     hartree contribution      =       0.02464417 Ry
     xc contribution           =     -10.36819380 Ry
     ewald contribution        =     -21.62994052 Ry
     one-center paw contrib.   =    -138.71049885 Ry
     smearing contrib. (-TS)   =       0.00050614 Ry

     convergence has been achieved in   7 iterations

     Forces acting on atoms (cartesian axes, Ry/au):

     atom    1 type  1   force =     0.00000000    0.00000000    0.00000000
     atom    2 type  1   force =     0.00000000    0.00000000    0.00000000
     atom    3 type  1   force =     0.00000000    0.00000000    0.00000000
     atom    4 type  1   force =     0.00000000    0.00000000    0.00000000

     Total force =     0.000000     Total SCF correction =     0.000000


     Computing stress (Cartesian axis) and pressure

          total   stress  (Ry/bohr**3)                   (kbar)     P=    0.32
   0.00000221   0.00000000   0.00000000          0.33      0.00      0.00
   0.00000000   0.00000212  -0.00001747          0.00      0.31     -2.57
   0.00000000  -0.00001747   0.00000212          0.00     -2.57      0.31


     Writing output data file fsQaFIpnFJKDyXow.save/

     init_run     :      4.85s CPU      4.91s WALL (       1 calls)
     electrons    :     65.96s CPU     66.35s WALL (       1 calls)
     forces       :      1.06s CPU      1.07s WALL (       1 calls)
     stress       :      2.33s CPU      2.33s WALL (       1 calls)

     Called by init_run:
     wfcinit      :      4.41s CPU      4.46s WALL (       1 calls)
     potinit      :      0.17s CPU      0.18s WALL (       1 calls)
     hinit0       :      0.25s CPU      0.25s WALL (       1 calls)

     Called by electrons:
     c_bands      :     55.86s CPU     56.22s WALL (       8 calls)
     sum_band     :      9.05s CPU      9.08s WALL (       8 calls)
     v_of_rho     :      0.15s CPU      0.16s WALL (       8 calls)
     newd         :      0.09s CPU      0.09s WALL (       8 calls)
     PAW_pot      :      0.93s CPU      0.94s WALL (       8 calls)
     mix_rho      :      0.01s CPU      0.01s WALL (       8 calls)

     Called by c_bands:
     init_us_2    :      1.56s CPU      1.57s WALL (    4104 calls)
     cegterg      :     53.63s CPU     53.93s WALL (    1728 calls)

     Called by sum_band:
     sum_band:bec :      0.01s CPU      0.01s WALL (    1728 calls)
     addusdens    :      0.07s CPU      0.07s WALL (       8 calls)

     Called by *egterg:
     h_psi        :     44.41s CPU     44.67s WALL (    6067 calls)
     s_psi        :      3.50s CPU      3.52s WALL (    6067 calls)
     g_psi        :      0.25s CPU      0.25s WALL (    4123 calls)
     cdiaghg      :      0.71s CPU      0.71s WALL (    5635 calls)

     Called by h_psi:
     h_psi:pot    :     44.25s CPU     44.51s WALL (    6067 calls)
     h_psi:calbec :      4.41s CPU      4.44s WALL (    6067 calls)
     vloc_psi     :     36.37s CPU     36.58s WALL (    6067 calls)
     add_vuspsi   :      3.46s CPU      3.48s WALL (    6067 calls)

     General routines
     calbec       :      6.90s CPU      6.94s WALL (    8875 calls)
     fft          :      0.07s CPU      0.07s WALL (     114 calls)
     ffts         :      0.01s CPU      0.01s WALL (       8 calls)
     fftw         :     39.84s CPU     40.06s WALL (  115478 calls)

     Parallel routines

     PWSCF        :   1m14.54s CPU   1m15.07s WALL


   This run was terminated on:  12:40: 4  14May2021            

=------------------------------------------------------------------------------=
   JOB DONE.
=------------------------------------------------------------------------------=
