
     Program PWSCF v.6.4.1 starts on 14May2021 at 12:43:43 

     This program is part of the open-source Quantum ESPRESSO suite
     for quantum simulation of materials; please cite
         "P. Giannozzi et al., J. Phys.:Condens. Matter 21 395502 (2009);
         "P. Giannozzi et al., J. Phys.:Condens. Matter 29 465901 (2017);
          URL http://www.quantum-espresso.org", 
     in publications or presentations arising from this work. More details at
     http://www.quantum-espresso.org/quote

     Parallel version (MPI), running on     1 processors

     MPI processes distributed on     1 nodes
     Reading input from /cloud/Code/python/qeeos/examples/aluminium/wd/ec/ec_5_003.in
Warning: card &IONS ignored
Warning: card ION_DYNAMICS = 'BFGS', ignored
Warning: card / ignored
Warning: card &CELL ignored
Warning: card CELL_DYNAMICS = 'BFGS', ignored
Warning: card CELL_FACTOR = 2.0, ignored
Warning: card PRESS = 0.0, ignored
Warning: card / ignored

     Current dimensions of program PWSCF are:
     Max number of different atomic species (ntypx) = 10
     Max number of k-points (npk) =  40000
     Max angular momentum in pseudopotentials (lmaxx) =  3
               file Al.pbe-nl-kjpaw_psl.1.0.0.UPF: wavefunction(s)  3S 3P renormalized

     Subspace diagonalization in iterative solution of the eigenvalue problem:
     a serial algorithm will be used

     Found symmetry operation: I + ( -0.5000 -0.5000  0.0000)
     This is a supercell, fractional translations are disabled
     Message from routine setup:
     DEPRECATED: symmetry with ibrav=0, use correct ibrav instead

     G-vector sticks info
     --------------------
     sticks:   dense  smooth     PW     G-vecs:    dense   smooth      PW
     Sum         933     933    285                21247    21247    3575



     bravais-lattice index     =            0
     lattice parameter (alat)  =       7.6308  a.u.
     unit-cell volume          =     444.3373 (a.u.)^3
     number of atoms/cell      =            4
     number of atomic types    =            1
     number of electrons       =        12.00
     number of Kohn-Sham states=           10
     kinetic-energy cutoff     =      50.0000  Ry
     charge density cutoff     =     200.0000  Ry
     convergence threshold     =      1.0E-06
     mixing beta               =       0.1000
     number of iterations used =           10  plain     mixing
     Exchange-correlation      = SLA PW PBX PBC ( 1  4  3  4 0 0)

     celldm(1)=   7.630815  celldm(2)=   0.000000  celldm(3)=   0.000000
     celldm(4)=   0.000000  celldm(5)=   0.000000  celldm(6)=   0.000000

     crystal axes: (cart. coord. in units of alat)
               a(1) = (   1.000001   0.000000   0.001250 )  
               a(2) = (   0.000000   1.000001   0.000000 )  
               a(3) = (   0.001250   0.000000   1.000001 )  

     reciprocal axes: (cart. coord. in units 2 pi/alat)
               b(1) = (  1.000001  0.000000 -0.001250 )  
               b(2) = (  0.000000  0.999999  0.000000 )  
               b(3) = ( -0.001250  0.000000  1.000001 )  


     PseudoPot. # 1 for Al read from file:
     /opt/pp/Al.pbe-nl-kjpaw_psl.1.0.0.UPF
     MD5 check sum: 1b67f78b73fe58c7924490f171ce8a1e
     Pseudo is Projector augmented-wave + core cor, Zval =  3.0
     Generated using "atomic" code by A. Dal Corso v.6.3
     Shape of augmentation charge: PSQ
     Using radial grid of 1135 points,  4 beta functions with: 
                l(1) =   0
                l(2) =   0
                l(3) =   1
                l(4) =   1
     Q(r) pseudized with 0 coefficients 


     atomic species   valence    mass     pseudopotential
        Al             3.00    26.98200     Al( 1.00)

      8 Sym. Ops., with inversion, found



   Cartesian axes

     site n.     atom                  positions (alat units)
         1           Al  tau(   1) = (   0.0000000   0.0000000   0.0000000  )
         2           Al  tau(   2) = (   0.5000004   0.5000004   0.0006250  )
         3           Al  tau(   3) = (   0.5006254   0.0000000   0.5006253  )
         4           Al  tau(   4) = (   0.0006250   0.5000004   0.5000003  )

     number of k points=   216  Marzari-Vanderbilt smearing, width (Ry)=  0.0400

     Number of k-points >= 100: set verbosity='high' to print them.

     Dense  grid:    21247 G-vectors     FFT dimensions: (  36,  36,  36)

     Estimated max dynamical RAM per process >     120.22 MB

     Initial potential from superposition of free atoms

     starting charge   11.99084, renormalised to   12.00000
     Starting wfcs are   16 randomized atomic wfcs
     Checking if some PAW data can be deallocated... 

     total cpu time spent up to now is        5.1 secs

     Self-consistent Calculation

     iteration #  1     ecut=    50.00 Ry     beta= 0.10
     Davidson diagonalization with overlap
     ethr =  1.00E-02,  avg # of iterations =  3.3

     Threshold (ethr) on eigenvalues was too large:
     Diagonalizing with lowered threshold

     Davidson diagonalization with overlap
     ethr =  1.95E-04,  avg # of iterations =  3.3

     total cpu time spent up to now is       23.2 secs

     total energy              =    -158.01601187 Ry
     Harris-Foulkes estimate   =    -158.01720696 Ry
     estimated scf accuracy    <       0.02259051 Ry

     iteration #  2     ecut=    50.00 Ry     beta= 0.10
     Davidson diagonalization with overlap
     ethr =  1.88E-04,  avg # of iterations =  1.0

     total cpu time spent up to now is       29.7 secs

     total energy              =    -158.01095121 Ry
     Harris-Foulkes estimate   =    -158.01612177 Ry
     estimated scf accuracy    <       0.01802955 Ry

     iteration #  3     ecut=    50.00 Ry     beta= 0.10
     Davidson diagonalization with overlap
     ethr =  1.50E-04,  avg # of iterations =  1.0

     total cpu time spent up to now is       36.1 secs

     total energy              =    -158.01130213 Ry
     Harris-Foulkes estimate   =    -158.01129740 Ry
     estimated scf accuracy    <       0.00004542 Ry

     iteration #  4     ecut=    50.00 Ry     beta= 0.10
     Davidson diagonalization with overlap
     c_bands:  1 eigenvalues not converged
     c_bands:  2 eigenvalues not converged
     ethr =  3.78E-07,  avg # of iterations =  4.8

     total cpu time spent up to now is       47.9 secs

     total energy              =    -158.01151635 Ry
     Harris-Foulkes estimate   =    -158.01138331 Ry
     estimated scf accuracy    <       0.00003424 Ry

     iteration #  5     ecut=    50.00 Ry     beta= 0.10
     Davidson diagonalization with overlap
     ethr =  2.85E-07,  avg # of iterations =  2.2

     total cpu time spent up to now is       56.3 secs

     total energy              =    -158.01135630 Ry
     Harris-Foulkes estimate   =    -158.01152401 Ry
     estimated scf accuracy    <       0.00038065 Ry

     iteration #  6     ecut=    50.00 Ry     beta= 0.10
     Davidson diagonalization with overlap
     ethr =  2.85E-07,  avg # of iterations =  2.7

     total cpu time spent up to now is       64.9 secs

     End of self-consistent calculation

     Number of k-points >= 100: set verbosity='high' to print the bands.

     the Fermi energy is     7.9307 ev

!    total energy              =    -158.01137008 Ry
     Harris-Foulkes estimate   =    -158.01137050 Ry
     estimated scf accuracy    <       0.00000091 Ry

     total all-electron energy =     -1942.582492 Ry

     The total energy is the sum of the following terms:

     one-electron contribution =      12.67241059 Ry
     hartree contribution      =       0.02461520 Ry
     xc contribution           =     -10.36828932 Ry
     ewald contribution        =     -21.63005238 Ry
     one-center paw contrib.   =    -138.71056078 Ry
     smearing contrib. (-TS)   =       0.00050661 Ry

     convergence has been achieved in   6 iterations

     Forces acting on atoms (cartesian axes, Ry/au):

     atom    1 type  1   force =     0.00000000    0.00000000    0.00000000
     atom    2 type  1   force =     0.00000000    0.00000000    0.00000000
     atom    3 type  1   force =     0.00000000    0.00000000    0.00000000
     atom    4 type  1   force =     0.00000000    0.00000000    0.00000000

     Total force =     0.000000     Total SCF correction =     0.000000


     Computing stress (Cartesian axis) and pressure

          total   stress  (Ry/bohr**3)                   (kbar)     P=    0.31
   0.00000208   0.00000000  -0.00000583          0.31      0.00     -0.86
   0.00000000   0.00000209   0.00000000          0.00      0.31      0.00
  -0.00000583   0.00000000   0.00000208         -0.86      0.00      0.31


     Writing output data file fXqOnTgaojfImERK.save/

     init_run     :      4.79s CPU      4.84s WALL (       1 calls)
     electrons    :     59.39s CPU     59.77s WALL (       1 calls)
     forces       :      1.06s CPU      1.06s WALL (       1 calls)
     stress       :      2.33s CPU      2.33s WALL (       1 calls)

     Called by init_run:
     wfcinit      :      4.37s CPU      4.39s WALL (       1 calls)
     potinit      :      0.17s CPU      0.17s WALL (       1 calls)
     hinit0       :      0.25s CPU      0.25s WALL (       1 calls)

     Called by electrons:
     c_bands      :     50.61s CPU     50.94s WALL (       7 calls)
     sum_band     :      7.88s CPU      7.92s WALL (       7 calls)
     v_of_rho     :      0.14s CPU      0.14s WALL (       7 calls)
     newd         :      0.07s CPU      0.08s WALL (       7 calls)
     PAW_pot      :      0.82s CPU      0.83s WALL (       7 calls)
     mix_rho      :      0.01s CPU      0.01s WALL (       7 calls)

     Called by c_bands:
     init_us_2    :      1.40s CPU      1.41s WALL (    3672 calls)
     cegterg      :     48.66s CPU     48.94s WALL (    1512 calls)

     Called by sum_band:
     sum_band:bec :      0.01s CPU      0.01s WALL (    1512 calls)
     addusdens    :      0.06s CPU      0.06s WALL (       7 calls)

     Called by *egterg:
     h_psi        :     40.38s CPU     40.61s WALL (    5689 calls)
     s_psi        :      3.18s CPU      3.20s WALL (    5689 calls)
     g_psi        :      0.23s CPU      0.24s WALL (    3961 calls)
     cdiaghg      :      0.67s CPU      0.68s WALL (    5257 calls)

     Called by h_psi:
     h_psi:pot    :     40.23s CPU     40.46s WALL (    5689 calls)
     h_psi:calbec :      3.99s CPU      4.02s WALL (    5689 calls)
     vloc_psi     :     33.09s CPU     33.27s WALL (    5689 calls)
     add_vuspsi   :      3.14s CPU      3.16s WALL (    5689 calls)

     General routines
     calbec       :      6.28s CPU      6.32s WALL (    8281 calls)
     fft          :      0.06s CPU      0.06s WALL (     103 calls)
     ffts         :      0.00s CPU      0.00s WALL (       7 calls)
     fftw         :     36.02s CPU     36.23s WALL (  104952 calls)

     Parallel routines

     PWSCF        :   1m 7.90s CPU   1m 8.39s WALL


   This run was terminated on:  12:44:51  14May2021            

=------------------------------------------------------------------------------=
   JOB DONE.
=------------------------------------------------------------------------------=
