
     Program PWSCF v.6.4.1 starts on 14May2021 at 12:47:23 

     This program is part of the open-source Quantum ESPRESSO suite
     for quantum simulation of materials; please cite
         "P. Giannozzi et al., J. Phys.:Condens. Matter 21 395502 (2009);
         "P. Giannozzi et al., J. Phys.:Condens. Matter 29 465901 (2017);
          URL http://www.quantum-espresso.org", 
     in publications or presentations arising from this work. More details at
     http://www.quantum-espresso.org/quote

     Parallel version (MPI), running on     1 processors

     MPI processes distributed on     1 nodes
     Reading input from /cloud/Code/python/qeeos/examples/aluminium/wd/ec/ec_5_006.in
Warning: card &IONS ignored
Warning: card ION_DYNAMICS = 'BFGS', ignored
Warning: card / ignored
Warning: card &CELL ignored
Warning: card CELL_DYNAMICS = 'BFGS', ignored
Warning: card CELL_FACTOR = 2.0, ignored
Warning: card PRESS = 0.0, ignored
Warning: card / ignored

     Current dimensions of program PWSCF are:
     Max number of different atomic species (ntypx) = 10
     Max number of k-points (npk) =  40000
     Max angular momentum in pseudopotentials (lmaxx) =  3
               file Al.pbe-nl-kjpaw_psl.1.0.0.UPF: wavefunction(s)  3S 3P renormalized

     Subspace diagonalization in iterative solution of the eigenvalue problem:
     a serial algorithm will be used

     Found symmetry operation: I + ( -0.5000 -0.5000 -0.0000)
     This is a supercell, fractional translations are disabled
     Message from routine setup:
     DEPRECATED: symmetry with ibrav=0, use correct ibrav instead

     G-vector sticks info
     --------------------
     sticks:   dense  smooth     PW     G-vecs:    dense   smooth      PW
     Sum         933     933    285                21251    21251    3555



     bravais-lattice index     =            0
     lattice parameter (alat)  =       7.6308  a.u.
     unit-cell volume          =     444.3373 (a.u.)^3
     number of atoms/cell      =            4
     number of atomic types    =            1
     number of electrons       =        12.00
     number of Kohn-Sham states=           10
     kinetic-energy cutoff     =      50.0000  Ry
     charge density cutoff     =     200.0000  Ry
     convergence threshold     =      1.0E-06
     mixing beta               =       0.1000
     number of iterations used =           10  plain     mixing
     Exchange-correlation      = SLA PW PBX PBC ( 1  4  3  4 0 0)

     celldm(1)=   7.630815  celldm(2)=   0.000000  celldm(3)=   0.000000
     celldm(4)=   0.000000  celldm(5)=   0.000000  celldm(6)=   0.000000

     crystal axes: (cart. coord. in units of alat)
               a(1) = (   1.000003   0.000000   0.003125 )  
               a(2) = (   0.000000   1.000003   0.000000 )  
               a(3) = (   0.003125   0.000000   1.000003 )  

     reciprocal axes: (cart. coord. in units 2 pi/alat)
               b(1) = (  1.000007  0.000000 -0.003125 )  
               b(2) = (  0.000000  0.999997  0.000000 )  
               b(3) = ( -0.003125  0.000000  1.000007 )  


     PseudoPot. # 1 for Al read from file:
     /opt/pp/Al.pbe-nl-kjpaw_psl.1.0.0.UPF
     MD5 check sum: 1b67f78b73fe58c7924490f171ce8a1e
     Pseudo is Projector augmented-wave + core cor, Zval =  3.0
     Generated using "atomic" code by A. Dal Corso v.6.3
     Shape of augmentation charge: PSQ
     Using radial grid of 1135 points,  4 beta functions with: 
                l(1) =   0
                l(2) =   0
                l(3) =   1
                l(4) =   1
     Q(r) pseudized with 0 coefficients 


     atomic species   valence    mass     pseudopotential
        Al             3.00    26.98200     Al( 1.00)

      8 Sym. Ops., with inversion, found



   Cartesian axes

     site n.     atom                  positions (alat units)
         1           Al  tau(   1) = (   0.0000000   0.0000000   0.0000000  )
         2           Al  tau(   2) = (   0.5000017   0.5000017   0.0015625  )
         3           Al  tau(   3) = (   0.5015642   0.0000000   0.5015641  )
         4           Al  tau(   4) = (   0.0015625   0.5000017   0.5000016  )

     number of k points=   216  Marzari-Vanderbilt smearing, width (Ry)=  0.0400

     Number of k-points >= 100: set verbosity='high' to print them.

     Dense  grid:    21251 G-vectors     FFT dimensions: (  36,  36,  36)

     Estimated max dynamical RAM per process >     120.22 MB

     Initial potential from superposition of free atoms

     starting charge   11.99084, renormalised to   12.00000
     Starting wfcs are   16 randomized atomic wfcs
     Checking if some PAW data can be deallocated... 

     total cpu time spent up to now is        5.1 secs

     Self-consistent Calculation

     iteration #  1     ecut=    50.00 Ry     beta= 0.10
     Davidson diagonalization with overlap
     ethr =  1.00E-02,  avg # of iterations =  3.3

     Threshold (ethr) on eigenvalues was too large:
     Diagonalizing with lowered threshold

     Davidson diagonalization with overlap
     ethr =  1.95E-04,  avg # of iterations =  3.2

     total cpu time spent up to now is       23.1 secs

     total energy              =    -158.01599737 Ry
     Harris-Foulkes estimate   =    -158.01719234 Ry
     estimated scf accuracy    <       0.02258960 Ry

     iteration #  2     ecut=    50.00 Ry     beta= 0.10
     Davidson diagonalization with overlap
     ethr =  1.88E-04,  avg # of iterations =  1.0

     total cpu time spent up to now is       29.5 secs

     total energy              =    -158.01093485 Ry
     Harris-Foulkes estimate   =    -158.01610579 Ry
     estimated scf accuracy    <       0.01803079 Ry

     iteration #  3     ecut=    50.00 Ry     beta= 0.10
     Davidson diagonalization with overlap
     ethr =  1.50E-04,  avg # of iterations =  1.0

     total cpu time spent up to now is       35.9 secs

     total energy              =    -158.01128601 Ry
     Harris-Foulkes estimate   =    -158.01128131 Ry
     estimated scf accuracy    <       0.00004492 Ry

     iteration #  4     ecut=    50.00 Ry     beta= 0.10
     Davidson diagonalization with overlap
     ethr =  3.74E-07,  avg # of iterations =  5.0

     total cpu time spent up to now is       47.8 secs

     total energy              =    -158.01150387 Ry
     Harris-Foulkes estimate   =    -158.01136621 Ry
     estimated scf accuracy    <       0.00003392 Ry

     iteration #  5     ecut=    50.00 Ry     beta= 0.10
     Davidson diagonalization with overlap
     ethr =  2.83E-07,  avg # of iterations =  2.2

     total cpu time spent up to now is       56.3 secs

     total energy              =    -158.01134036 Ry
     Harris-Foulkes estimate   =    -158.01151191 Ry
     estimated scf accuracy    <       0.00039270 Ry

     iteration #  6     ecut=    50.00 Ry     beta= 0.10
     Davidson diagonalization with overlap
     ethr =  2.83E-07,  avg # of iterations =  2.6

     total cpu time spent up to now is       64.9 secs

     total energy              =    -158.01135317 Ry
     Harris-Foulkes estimate   =    -158.01135410 Ry
     estimated scf accuracy    <       0.00000228 Ry

     iteration #  7     ecut=    50.00 Ry     beta= 0.10
     Davidson diagonalization with overlap
     ethr =  1.90E-08,  avg # of iterations =  1.6

     total cpu time spent up to now is       71.6 secs

     End of self-consistent calculation

     Number of k-points >= 100: set verbosity='high' to print the bands.

     the Fermi energy is     7.9312 ev

!    total energy              =    -158.01135322 Ry
     Harris-Foulkes estimate   =    -158.01135339 Ry
     estimated scf accuracy    <       0.00000051 Ry

     total all-electron energy =     -1942.582475 Ry

     The total energy is the sum of the following terms:

     one-electron contribution =      12.67206109 Ry
     hartree contribution      =       0.02463408 Ry
     xc contribution           =     -10.36817785 Ry
     ewald contribution        =     -21.62997897 Ry
     one-center paw contrib.   =    -138.71039807 Ry
     smearing contrib. (-TS)   =       0.00050650 Ry

     convergence has been achieved in   7 iterations

     Forces acting on atoms (cartesian axes, Ry/au):

     atom    1 type  1   force =     0.00000000    0.00000000    0.00000000
     atom    2 type  1   force =     0.00000000    0.00000000    0.00000000
     atom    3 type  1   force =     0.00000000    0.00000000    0.00000000
     atom    4 type  1   force =     0.00000000    0.00000000    0.00000000

     Total force =     0.000000     Total SCF correction =     0.000000


     Computing stress (Cartesian axis) and pressure

          total   stress  (Ry/bohr**3)                   (kbar)     P=    0.14
   0.00000096   0.00000000  -0.00001455          0.14      0.00     -2.14
   0.00000000   0.00000102   0.00000000          0.00      0.15      0.00
  -0.00001455   0.00000000   0.00000096         -2.14      0.00      0.14


     Writing output data file swIXalRAyrXIlnEK.save/

     init_run     :      4.78s CPU      4.84s WALL (       1 calls)
     electrons    :     66.11s CPU     66.45s WALL (       1 calls)
     forces       :      1.06s CPU      1.06s WALL (       1 calls)
     stress       :      2.37s CPU      2.37s WALL (       1 calls)

     Called by init_run:
     wfcinit      :      4.34s CPU      4.39s WALL (       1 calls)
     potinit      :      0.16s CPU      0.18s WALL (       1 calls)
     hinit0       :      0.25s CPU      0.25s WALL (       1 calls)

     Called by electrons:
     c_bands      :     56.07s CPU     56.38s WALL (       8 calls)
     sum_band     :      9.00s CPU      9.03s WALL (       8 calls)
     v_of_rho     :      0.15s CPU      0.16s WALL (       8 calls)
     newd         :      0.09s CPU      0.09s WALL (       8 calls)
     PAW_pot      :      0.92s CPU      0.93s WALL (       8 calls)
     mix_rho      :      0.01s CPU      0.01s WALL (       8 calls)

     Called by c_bands:
     init_us_2    :      1.56s CPU      1.57s WALL (    4104 calls)
     cegterg      :     53.85s CPU     54.10s WALL (    1728 calls)

     Called by sum_band:
     sum_band:bec :      0.01s CPU      0.01s WALL (    1728 calls)
     addusdens    :      0.06s CPU      0.06s WALL (       8 calls)

     Called by *egterg:
     h_psi        :     44.44s CPU     44.69s WALL (    6275 calls)
     s_psi        :      3.51s CPU      3.53s WALL (    6275 calls)
     g_psi        :      0.25s CPU      0.26s WALL (    4331 calls)
     cdiaghg      :      0.72s CPU      0.73s WALL (    5843 calls)

     Called by h_psi:
     h_psi:pot    :     44.28s CPU     44.52s WALL (    6275 calls)
     h_psi:calbec :      4.41s CPU      4.43s WALL (    6275 calls)
     vloc_psi     :     36.39s CPU     36.61s WALL (    6275 calls)
     add_vuspsi   :      3.46s CPU      3.48s WALL (    6275 calls)

     General routines
     calbec       :      6.89s CPU      6.92s WALL (    9083 calls)
     fft          :      0.07s CPU      0.07s WALL (     114 calls)
     ffts         :      0.00s CPU      0.00s WALL (       8 calls)
     fftw         :     39.84s CPU     40.06s WALL (  116160 calls)

     Parallel routines

     PWSCF        :   1m14.65s CPU   1m15.13s WALL


   This run was terminated on:  12:48:38  14May2021            

=------------------------------------------------------------------------------=
   JOB DONE.
=------------------------------------------------------------------------------=
