
     Program PWSCF v.6.4.1 starts on 14May2021 at 12:52:21 

     This program is part of the open-source Quantum ESPRESSO suite
     for quantum simulation of materials; please cite
         "P. Giannozzi et al., J. Phys.:Condens. Matter 21 395502 (2009);
         "P. Giannozzi et al., J. Phys.:Condens. Matter 29 465901 (2017);
          URL http://www.quantum-espresso.org", 
     in publications or presentations arising from this work. More details at
     http://www.quantum-espresso.org/quote

     Parallel version (MPI), running on     1 processors

     MPI processes distributed on     1 nodes
     Reading input from /cloud/Code/python/qeeos/examples/aluminium/wd/ec/ec_6_002.in
Warning: card &IONS ignored
Warning: card ION_DYNAMICS = 'BFGS', ignored
Warning: card / ignored
Warning: card &CELL ignored
Warning: card CELL_DYNAMICS = 'BFGS', ignored
Warning: card CELL_FACTOR = 2.0, ignored
Warning: card PRESS = 0.0, ignored
Warning: card / ignored

     Current dimensions of program PWSCF are:
     Max number of different atomic species (ntypx) = 10
     Max number of k-points (npk) =  40000
     Max angular momentum in pseudopotentials (lmaxx) =  3
               file Al.pbe-nl-kjpaw_psl.1.0.0.UPF: wavefunction(s)  3S 3P renormalized

     Subspace diagonalization in iterative solution of the eigenvalue problem:
     a serial algorithm will be used

     Found symmetry operation: I + ( -0.5000 -0.5000  0.0000)
     This is a supercell, fractional translations are disabled
     Message from routine setup:
     DEPRECATED: symmetry with ibrav=0, use correct ibrav instead

     G-vector sticks info
     --------------------
     sticks:   dense  smooth     PW     G-vecs:    dense   smooth      PW
     Sum         933     933    285                21247    21247    3575



     bravais-lattice index     =            0
     lattice parameter (alat)  =       7.6308  a.u.
     unit-cell volume          =     444.3373 (a.u.)^3
     number of atoms/cell      =            4
     number of atomic types    =            1
     number of electrons       =        12.00
     number of Kohn-Sham states=           10
     kinetic-energy cutoff     =      50.0000  Ry
     charge density cutoff     =     200.0000  Ry
     convergence threshold     =      1.0E-06
     mixing beta               =       0.1000
     number of iterations used =           10  plain     mixing
     Exchange-correlation      = SLA PW PBX PBC ( 1  4  3  4 0 0)

     celldm(1)=   7.630815  celldm(2)=   0.000000  celldm(3)=   0.000000
     celldm(4)=   0.000000  celldm(5)=   0.000000  celldm(6)=   0.000000

     crystal axes: (cart. coord. in units of alat)
               a(1) = (   1.000000   0.000625   0.000000 )  
               a(2) = (   0.000625   1.000000   0.000000 )  
               a(3) = (   0.000000   0.000000   1.000000 )  

     reciprocal axes: (cart. coord. in units 2 pi/alat)
               b(1) = (  1.000000 -0.000625  0.000000 )  
               b(2) = ( -0.000625  1.000000  0.000000 )  
               b(3) = (  0.000000  0.000000  1.000000 )  


     PseudoPot. # 1 for Al read from file:
     /opt/pp/Al.pbe-nl-kjpaw_psl.1.0.0.UPF
     MD5 check sum: 1b67f78b73fe58c7924490f171ce8a1e
     Pseudo is Projector augmented-wave + core cor, Zval =  3.0
     Generated using "atomic" code by A. Dal Corso v.6.3
     Shape of augmentation charge: PSQ
     Using radial grid of 1135 points,  4 beta functions with: 
                l(1) =   0
                l(2) =   0
                l(3) =   1
                l(4) =   1
     Q(r) pseudized with 0 coefficients 


     atomic species   valence    mass     pseudopotential
        Al             3.00    26.98200     Al( 1.00)

      8 Sym. Ops., with inversion, found



   Cartesian axes

     site n.     atom                  positions (alat units)
         1           Al  tau(   1) = (   0.0000000   0.0000000   0.0000000  )
         2           Al  tau(   2) = (   0.5003127   0.5003127   0.0000000  )
         3           Al  tau(   3) = (   0.5000002   0.0003125   0.5000001  )
         4           Al  tau(   4) = (   0.0003125   0.5000002   0.5000001  )

     number of k points=   216  Marzari-Vanderbilt smearing, width (Ry)=  0.0400

     Number of k-points >= 100: set verbosity='high' to print them.

     Dense  grid:    21247 G-vectors     FFT dimensions: (  36,  36,  36)

     Estimated max dynamical RAM per process >     120.22 MB

     Initial potential from superposition of free atoms

     starting charge   11.99084, renormalised to   12.00000
     Starting wfcs are   16 randomized atomic wfcs
     Checking if some PAW data can be deallocated... 

     total cpu time spent up to now is        5.4 secs

     Self-consistent Calculation

     iteration #  1     ecut=    50.00 Ry     beta= 0.10
     Davidson diagonalization with overlap
     ethr =  1.00E-02,  avg # of iterations =  3.3

     Threshold (ethr) on eigenvalues was too large:
     Diagonalizing with lowered threshold

     Davidson diagonalization with overlap
     ethr =  1.95E-04,  avg # of iterations =  3.2

     total cpu time spent up to now is       23.9 secs

     total energy              =    -158.01602058 Ry
     Harris-Foulkes estimate   =    -158.01721672 Ry
     estimated scf accuracy    <       0.02258967 Ry

     iteration #  2     ecut=    50.00 Ry     beta= 0.10
     Davidson diagonalization with overlap
     ethr =  1.88E-04,  avg # of iterations =  1.0

     total cpu time spent up to now is       30.3 secs

     total energy              =    -158.01095267 Ry
     Harris-Foulkes estimate   =    -158.01612926 Ry
     estimated scf accuracy    <       0.01802995 Ry

     iteration #  3     ecut=    50.00 Ry     beta= 0.10
     Davidson diagonalization with overlap
     ethr =  1.50E-04,  avg # of iterations =  1.1

     total cpu time spent up to now is       36.9 secs

     total energy              =    -158.01130565 Ry
     Harris-Foulkes estimate   =    -158.01130101 Ry
     estimated scf accuracy    <       0.00004584 Ry

     iteration #  4     ecut=    50.00 Ry     beta= 0.10
     Davidson diagonalization with overlap
     c_bands:  1 eigenvalues not converged
     ethr =  3.82E-07,  avg # of iterations =  4.7

     total cpu time spent up to now is       48.7 secs

     total energy              =    -158.01151499 Ry
     Harris-Foulkes estimate   =    -158.01138603 Ry
     estimated scf accuracy    <       0.00003519 Ry

     iteration #  5     ecut=    50.00 Ry     beta= 0.10
     Davidson diagonalization with overlap
     ethr =  2.93E-07,  avg # of iterations =  2.2

     total cpu time spent up to now is       57.2 secs

     total energy              =    -158.01136567 Ry
     Harris-Foulkes estimate   =    -158.01152300 Ry
     estimated scf accuracy    <       0.00037207 Ry

     iteration #  6     ecut=    50.00 Ry     beta= 0.10
     Davidson diagonalization with overlap
     ethr =  2.93E-07,  avg # of iterations =  2.3

     total cpu time spent up to now is       65.7 secs

     total energy              =    -158.01137202 Ry
     Harris-Foulkes estimate   =    -158.01137749 Ry
     estimated scf accuracy    <       0.00001187 Ry

     iteration #  7     ecut=    50.00 Ry     beta= 0.10
     Davidson diagonalization with overlap
     ethr =  9.90E-08,  avg # of iterations =  1.0

     total cpu time spent up to now is       72.1 secs

     End of self-consistent calculation

     Number of k-points >= 100: set verbosity='high' to print the bands.

     the Fermi energy is     7.9311 ev

!    total energy              =    -158.01137246 Ry
     Harris-Foulkes estimate   =    -158.01137261 Ry
     estimated scf accuracy    <       0.00000042 Ry

     total all-electron energy =     -1942.582495 Ry

     The total energy is the sum of the following terms:

     one-electron contribution =      12.67218490 Ry
     hartree contribution      =       0.02460503 Ry
     xc contribution           =     -10.36815649 Ry
     ewald contribution        =     -21.63006286 Ry
     one-center paw contrib.   =    -138.71045017 Ry
     smearing contrib. (-TS)   =       0.00050713 Ry

     convergence has been achieved in   7 iterations

     Forces acting on atoms (cartesian axes, Ry/au):

     atom    1 type  1   force =     0.00000000    0.00000000    0.00000000
     atom    2 type  1   force =     0.00000000    0.00000000    0.00000000
     atom    3 type  1   force =     0.00000000    0.00000000    0.00000000
     atom    4 type  1   force =     0.00000000    0.00000000    0.00000000

     Total force =     0.000000     Total SCF correction =     0.000000


     Computing stress (Cartesian axis) and pressure

          total   stress  (Ry/bohr**3)                   (kbar)     P=    0.23
   0.00000157  -0.00000291   0.00000000          0.23     -0.43      0.00
  -0.00000291   0.00000157   0.00000000         -0.43      0.23      0.00
   0.00000000   0.00000000   0.00000157          0.00      0.00      0.23


     Writing output data file IVkMbjUbSTFNiulu.save/

     init_run     :      5.04s CPU      5.10s WALL (       1 calls)
     electrons    :     66.27s CPU     66.73s WALL (       1 calls)
     forces       :      1.07s CPU      1.08s WALL (       1 calls)
     stress       :      2.31s CPU      2.32s WALL (       1 calls)

     Called by init_run:
     wfcinit      :      4.60s CPU      4.64s WALL (       1 calls)
     potinit      :      0.17s CPU      0.18s WALL (       1 calls)
     hinit0       :      0.26s CPU      0.26s WALL (       1 calls)

     Called by electrons:
     c_bands      :     56.20s CPU     56.61s WALL (       8 calls)
     sum_band     :      9.02s CPU      9.06s WALL (       8 calls)
     v_of_rho     :      0.16s CPU      0.16s WALL (       8 calls)
     newd         :      0.08s CPU      0.09s WALL (       8 calls)
     PAW_pot      :      0.93s CPU      0.94s WALL (       8 calls)
     mix_rho      :      0.01s CPU      0.01s WALL (       8 calls)

     Called by c_bands:
     init_us_2    :      1.54s CPU      1.55s WALL (    4104 calls)
     cegterg      :     53.97s CPU     54.31s WALL (    1728 calls)

     Called by sum_band:
     sum_band:bec :      0.01s CPU      0.01s WALL (    1728 calls)
     addusdens    :      0.06s CPU      0.07s WALL (       8 calls)

     Called by *egterg:
     h_psi        :     44.78s CPU     45.08s WALL (    5993 calls)
     s_psi        :      3.54s CPU      3.56s WALL (    5993 calls)
     g_psi        :      0.25s CPU      0.25s WALL (    4049 calls)
     cdiaghg      :      0.71s CPU      0.71s WALL (    5561 calls)

     Called by h_psi:
     h_psi:pot    :     44.61s CPU     44.91s WALL (    5993 calls)
     h_psi:calbec :      4.46s CPU      4.48s WALL (    5993 calls)
     vloc_psi     :     36.64s CPU     36.90s WALL (    5993 calls)
     add_vuspsi   :      3.50s CPU      3.52s WALL (    5993 calls)

     General routines
     calbec       :      6.96s CPU      6.99s WALL (    8801 calls)
     fft          :      0.07s CPU      0.07s WALL (     114 calls)
     ffts         :      0.01s CPU      0.01s WALL (       8 calls)
     fftw         :     40.07s CPU     40.33s WALL (  115194 calls)

     Parallel routines

     PWSCF        :   1m15.04s CPU   1m15.63s WALL


   This run was terminated on:  12:53:37  14May2021            

=------------------------------------------------------------------------------=
   JOB DONE.
=------------------------------------------------------------------------------=
