
     Program PWSCF v.6.4.1 starts on 14May2021 at 12:12:51 

     This program is part of the open-source Quantum ESPRESSO suite
     for quantum simulation of materials; please cite
         "P. Giannozzi et al., J. Phys.:Condens. Matter 21 395502 (2009);
         "P. Giannozzi et al., J. Phys.:Condens. Matter 29 465901 (2017);
          URL http://www.quantum-espresso.org", 
     in publications or presentations arising from this work. More details at
     http://www.quantum-espresso.org/quote

     Parallel version (MPI), running on     1 processors

     MPI processes distributed on     1 nodes
     Reading input from /cloud/Code/python/qeeos/examples/aluminium/wd/eos/eos_006.in
Warning: card &IONS ignored
Warning: card ION_DYNAMICS = 'BFGS', ignored
Warning: card / ignored
Warning: card &CELL ignored
Warning: card CELL_DYNAMICS = 'BFGS', ignored
Warning: card CELL_FACTOR = 2.0, ignored
Warning: card PRESS = 0.0, ignored
Warning: card / ignored

     Current dimensions of program PWSCF are:
     Max number of different atomic species (ntypx) = 10
     Max number of k-points (npk) =  40000
     Max angular momentum in pseudopotentials (lmaxx) =  3
               file Al.pbe-nl-kjpaw_psl.1.0.0.UPF: wavefunction(s)  3S 3P renormalized

     Subspace diagonalization in iterative solution of the eigenvalue problem:
     a serial algorithm will be used

     Found symmetry operation: I + ( -0.5000 -0.5000  0.0000)
     This is a supercell, fractional translations are disabled
     Message from routine setup:
     DEPRECATED: symmetry with ibrav=0, use correct ibrav instead

     G-vector sticks info
     --------------------
     sticks:   dense  smooth     PW     G-vecs:    dense   smooth      PW
     Sum         933     933    285                21247    21247    3575



     bravais-lattice index     =            0
     lattice parameter (alat)  =       7.6308  a.u.
     unit-cell volume          =     444.3373 (a.u.)^3
     number of atoms/cell      =            4
     number of atomic types    =            1
     number of electrons       =        12.00
     number of Kohn-Sham states=           10
     kinetic-energy cutoff     =      50.0000  Ry
     charge density cutoff     =     200.0000  Ry
     convergence threshold     =      1.0E-06
     mixing beta               =       0.1000
     number of iterations used =           10  plain     mixing
     Exchange-correlation      = SLA PW PBX PBC ( 1  4  3  4 0 0)

     celldm(1)=   7.630815  celldm(2)=   0.000000  celldm(3)=   0.000000
     celldm(4)=   0.000000  celldm(5)=   0.000000  celldm(6)=   0.000000

     crystal axes: (cart. coord. in units of alat)
               a(1) = (   1.000000   0.000000   0.000000 )  
               a(2) = (   0.000000   1.000000   0.000000 )  
               a(3) = (   0.000000   0.000000   1.000000 )  

     reciprocal axes: (cart. coord. in units 2 pi/alat)
               b(1) = (  1.000000  0.000000  0.000000 )  
               b(2) = (  0.000000  1.000000  0.000000 )  
               b(3) = (  0.000000  0.000000  1.000000 )  


     PseudoPot. # 1 for Al read from file:
     /opt/pp/Al.pbe-nl-kjpaw_psl.1.0.0.UPF
     MD5 check sum: 1b67f78b73fe58c7924490f171ce8a1e
     Pseudo is Projector augmented-wave + core cor, Zval =  3.0
     Generated using "atomic" code by A. Dal Corso v.6.3
     Shape of augmentation charge: PSQ
     Using radial grid of 1135 points,  4 beta functions with: 
                l(1) =   0
                l(2) =   0
                l(3) =   1
                l(4) =   1
     Q(r) pseudized with 0 coefficients 


     atomic species   valence    mass     pseudopotential
        Al             3.00    26.98200     Al( 1.00)

     48 Sym. Ops., with inversion, found



   Cartesian axes

     site n.     atom                  positions (alat units)
         1           Al  tau(   1) = (   0.0000000   0.0000000   0.0000000  )
         2           Al  tau(   2) = (   0.5000001   0.5000001   0.0000000  )
         3           Al  tau(   3) = (   0.5000001   0.0000000   0.5000000  )
         4           Al  tau(   4) = (   0.0000000   0.5000001   0.5000000  )

     number of k points=    56  Marzari-Vanderbilt smearing, width (Ry)=  0.0400
                       cart. coord. in units 2pi/alat
        k(    1) = (   0.0454545   0.0454545   0.0454545), wk =   0.0120210
        k(    2) = (   0.0454545   0.0454545   0.1363636), wk =   0.0360631
        k(    3) = (   0.0454545   0.0454545   0.2272727), wk =   0.0360631
        k(    4) = (   0.0454545   0.0454545   0.3181818), wk =   0.0360631
        k(    5) = (   0.0454545   0.0454545   0.4090909), wk =   0.0360631
        k(    6) = (   0.0454545   0.0454545  -0.5000000), wk =   0.0180316
        k(    7) = (   0.0454545   0.1363636   0.1363636), wk =   0.0360631
        k(    8) = (   0.0454545   0.1363636   0.2272727), wk =   0.0721262
        k(    9) = (   0.0454545   0.1363636   0.3181818), wk =   0.0721262
        k(   10) = (   0.0454545   0.1363636   0.4090909), wk =   0.0721262
        k(   11) = (   0.0454545   0.1363636  -0.5000000), wk =   0.0360631
        k(   12) = (   0.0454545   0.2272727   0.2272727), wk =   0.0360631
        k(   13) = (   0.0454545   0.2272727   0.3181818), wk =   0.0721262
        k(   14) = (   0.0454545   0.2272727   0.4090909), wk =   0.0721262
        k(   15) = (   0.0454545   0.2272727  -0.5000000), wk =   0.0360631
        k(   16) = (   0.0454545   0.3181818   0.3181818), wk =   0.0360631
        k(   17) = (   0.0454545   0.3181818   0.4090909), wk =   0.0721262
        k(   18) = (   0.0454545   0.3181818  -0.5000000), wk =   0.0360631
        k(   19) = (   0.0454545   0.4090909   0.4090909), wk =   0.0360631
        k(   20) = (   0.0454545   0.4090909  -0.5000000), wk =   0.0360631
        k(   21) = (   0.0454545  -0.5000000  -0.5000000), wk =   0.0090158
        k(   22) = (   0.1363636   0.1363636   0.1363636), wk =   0.0120210
        k(   23) = (   0.1363636   0.1363636   0.2272727), wk =   0.0360631
        k(   24) = (   0.1363636   0.1363636   0.3181818), wk =   0.0360631
        k(   25) = (   0.1363636   0.1363636   0.4090909), wk =   0.0360631
        k(   26) = (   0.1363636   0.1363636  -0.5000000), wk =   0.0180316
        k(   27) = (   0.1363636   0.2272727   0.2272727), wk =   0.0360631
        k(   28) = (   0.1363636   0.2272727   0.3181818), wk =   0.0721262
        k(   29) = (   0.1363636   0.2272727   0.4090909), wk =   0.0721262
        k(   30) = (   0.1363636   0.2272727  -0.5000000), wk =   0.0360631
        k(   31) = (   0.1363636   0.3181818   0.3181818), wk =   0.0360631
        k(   32) = (   0.1363636   0.3181818   0.4090909), wk =   0.0721262
        k(   33) = (   0.1363636   0.3181818  -0.5000000), wk =   0.0360631
        k(   34) = (   0.1363636   0.4090909   0.4090909), wk =   0.0360631
        k(   35) = (   0.1363636   0.4090909  -0.5000000), wk =   0.0360631
        k(   36) = (   0.1363636  -0.5000000  -0.5000000), wk =   0.0090158
        k(   37) = (   0.2272727   0.2272727   0.2272727), wk =   0.0120210
        k(   38) = (   0.2272727   0.2272727   0.3181818), wk =   0.0360631
        k(   39) = (   0.2272727   0.2272727   0.4090909), wk =   0.0360631
        k(   40) = (   0.2272727   0.2272727  -0.5000000), wk =   0.0180316
        k(   41) = (   0.2272727   0.3181818   0.3181818), wk =   0.0360631
        k(   42) = (   0.2272727   0.3181818   0.4090909), wk =   0.0721262
        k(   43) = (   0.2272727   0.3181818  -0.5000000), wk =   0.0360631
        k(   44) = (   0.2272727   0.4090909   0.4090909), wk =   0.0360631
        k(   45) = (   0.2272727   0.4090909  -0.5000000), wk =   0.0360631
        k(   46) = (   0.2272727  -0.5000000  -0.5000000), wk =   0.0090158
        k(   47) = (   0.3181818   0.3181818   0.3181818), wk =   0.0120210
        k(   48) = (   0.3181818   0.3181818   0.4090909), wk =   0.0360631
        k(   49) = (   0.3181818   0.3181818  -0.5000000), wk =   0.0180316
        k(   50) = (   0.3181818   0.4090909   0.4090909), wk =   0.0360631
        k(   51) = (   0.3181818   0.4090909  -0.5000000), wk =   0.0360631
        k(   52) = (   0.3181818  -0.5000000  -0.5000000), wk =   0.0090158
        k(   53) = (   0.4090909   0.4090909   0.4090909), wk =   0.0120210
        k(   54) = (   0.4090909   0.4090909  -0.5000000), wk =   0.0180316
        k(   55) = (   0.4090909  -0.5000000  -0.5000000), wk =   0.0090158
        k(   56) = (  -0.5000000  -0.5000000  -0.5000000), wk =   0.0015026

     Dense  grid:    21247 G-vectors     FFT dimensions: (  36,  36,  36)

     Estimated max dynamical RAM per process >      55.45 MB

     Initial potential from superposition of free atoms

     starting charge   11.99084, renormalised to   12.00000
     Starting wfcs are   16 randomized atomic wfcs
     Checking if some PAW data can be deallocated... 

     total cpu time spent up to now is        1.8 secs

     Self-consistent Calculation

     iteration #  1     ecut=    50.00 Ry     beta= 0.10
     Davidson diagonalization with overlap
     ethr =  1.00E-02,  avg # of iterations =  3.4

     Threshold (ethr) on eigenvalues was too large:
     Diagonalizing with lowered threshold

     Davidson diagonalization with overlap
     ethr =  1.95E-04,  avg # of iterations =  3.1

     total cpu time spent up to now is        6.7 secs

     total energy              =    -158.01598938 Ry
     Harris-Foulkes estimate   =    -158.01717940 Ry
     estimated scf accuracy    <       0.02259756 Ry

     iteration #  2     ecut=    50.00 Ry     beta= 0.10
     Davidson diagonalization with overlap
     ethr =  1.88E-04,  avg # of iterations =  1.0

     total cpu time spent up to now is        8.5 secs

     total energy              =    -158.01095525 Ry
     Harris-Foulkes estimate   =    -158.01609959 Ry
     estimated scf accuracy    <       0.01803097 Ry

     iteration #  3     ecut=    50.00 Ry     beta= 0.10
     Davidson diagonalization with overlap
     ethr =  1.50E-04,  avg # of iterations =  1.0

     total cpu time spent up to now is       10.3 secs

     total energy              =    -158.01130580 Ry
     Harris-Foulkes estimate   =    -158.01130093 Ry
     estimated scf accuracy    <       0.00004630 Ry

     iteration #  4     ecut=    50.00 Ry     beta= 0.10
     Davidson diagonalization with overlap
     ethr =  3.86E-07,  avg # of iterations =  4.2

     total cpu time spent up to now is       13.5 secs

     total energy              =    -158.01152707 Ry
     Harris-Foulkes estimate   =    -158.01138662 Ry
     estimated scf accuracy    <       0.00003436 Ry

     iteration #  5     ecut=    50.00 Ry     beta= 0.10
     Davidson diagonalization with overlap
     ethr =  2.86E-07,  avg # of iterations =  2.2

     total cpu time spent up to now is       15.9 secs

     total energy              =    -158.01135798 Ry
     Harris-Foulkes estimate   =    -158.01153522 Ry
     estimated scf accuracy    <       0.00040113 Ry

     iteration #  6     ecut=    50.00 Ry     beta= 0.10
     Davidson diagonalization with overlap
     ethr =  2.86E-07,  avg # of iterations =  2.8

     total cpu time spent up to now is       18.3 secs

     End of self-consistent calculation

          k = 0.0455 0.0455 0.0455 (  2638 PWs)   bands (ev):

    -3.1706   4.6830   4.6830   4.6830   6.7459   6.7460   6.7460  12.2155
    12.2155  12.2156

          k = 0.0455 0.0455 0.1364 (  2644 PWs)   bands (ev):

    -3.0206   3.3934   4.8225   4.8225   6.8880   6.8880   8.2946  10.9263
    10.9263  12.3544

          k = 0.0455 0.0455 0.2273 (  2666 PWs)   bands (ev):

    -2.7211   2.1220   5.1013   5.1013   7.1687   7.1688   9.7014   9.7014
    10.0832  11.8262

          k = 0.0455 0.0455 0.3182 (  2665 PWs)   bands (ev):

    -2.2731   0.9674   5.5187   5.5187   7.5728   7.5729   8.6123   8.6123
    10.7942  10.7944

          k = 0.0455 0.0455 0.4091 (  2656 PWs)   bands (ev):

    -1.6779  -0.0546   6.0731   6.0731   7.5724   7.5725   8.1724   8.1726
     9.8851   9.8853

          k = 0.0455 0.0455-0.5000 (  2672 PWs)   bands (ev):

    -0.9378  -0.9373   6.6988   6.6993   6.8358   6.8363   8.5486   8.5489
     9.3523   9.3527

          k = 0.0455 0.1364 0.1364 (  2651 PWs)   bands (ev):

    -2.8708   3.5360   3.5360   4.9619   7.0267   8.4312   8.4312   9.7126
    11.0662  11.0662

          k = 0.0455 0.1364 0.2273 (  2671 PWs)   bands (ev):

    -2.5716   2.2664   3.8208   5.2402   7.2888   8.5214   8.6951   9.8480
    10.2083  11.3502

          k = 0.0455 0.1364 0.3182 (  2656 PWs)   bands (ev):

    -2.1241   1.1130   4.2468   5.6559   7.2571   7.8750   8.6794   9.1534
    10.9539  11.7160

          k = 0.0455 0.1364 0.4091 (  2662 PWs)   bands (ev):

    -1.5295   0.0922   4.8122   6.1682   6.4034   7.7459   8.3532   9.4748
    10.2061  11.3085

          k = 0.0455 0.1364-0.5000 (  2668 PWs)   bands (ev):

    -0.7901  -0.7897   5.5124   5.5128   6.9196   6.9201   9.0066   9.0070
    10.5315  10.5319

          k = 0.0455 0.2273 0.2273 (  2665 PWs)   bands (ev):

    -2.2731   2.5546   2.5546   5.5166   7.1295   7.7505  10.0642  10.0643
    10.5203  10.5203

          k = 0.0455 0.2273 0.3182 (  2655 PWs)   bands (ev):

    -1.8265   1.4039   2.9859   5.8922   6.1464   8.0907   8.9936  10.5136
    10.7220  11.4002

          k = 0.0455 0.2273 0.4091 (  2647 PWs)   bands (ev):

    -1.2332   0.3852   3.5587   5.1153   6.5055   8.0281   8.6437  10.1270
    11.0706  11.5934

          k = 0.0455 0.2273-0.5000 (  2650 PWs)   bands (ev):

    -0.4953  -0.4949   4.2702   4.2706   7.1967   7.1972   9.3332   9.3336
    11.7616  11.7620

          k = 0.0455 0.3182 0.3182 (  2656 PWs)   bands (ev):

    -1.3812   1.8391   1.8391   4.9794   6.3668   8.5086   9.4141   9.4141
    11.5029  11.5030

          k = 0.0455 0.3182 0.4091 (  2653 PWs)   bands (ev):

    -0.7897   0.8237   2.4173   3.9928   6.9199   8.4461   9.0709   9.9698
    10.5874  11.4905

          k = 0.0455 0.3182-0.5000 (  2642 PWs)   bands (ev):

    -0.0541  -0.0537   3.1361   3.1365   7.6138   7.6142   9.7674   9.7677
    10.6620  10.6624

          k = 0.0455 0.4091 0.4091 (  2650 PWs)   bands (ev):

    -0.2006   1.4062   1.4062   2.9945   7.4755   9.0018   9.0018   9.6348
    10.5253  11.1531

          k = 0.0455 0.4091-0.5000 (  2658 PWs)   bands (ev):

     0.5320   0.5324   2.1305   2.1309   8.1696   8.1701   9.6949   9.6954
    10.3311  10.3315

          k = 0.0455-0.5000-0.5000 (  2668 PWs)   bands (ev):

     1.2609   1.2613   1.2613   1.2617   8.8634   8.8638   8.8638   8.8643
    11.0247  11.0250

          k = 0.1364 0.1364 0.1364 (  2653 PWs)   bands (ev):

    -2.7211   3.6784   3.6784   3.6784   8.5559   8.5559   8.5559   9.8646
     9.8646   9.8646

          k = 0.1364 0.1364 0.2273 (  2663 PWs)   bands (ev):

    -2.4223   2.4106   3.9628   3.9628   8.4958   8.4959   8.9889   8.9890
    10.0112  10.4713

          k = 0.1364 0.1364 0.3182 (  2661 PWs)   bands (ev):

    -1.9752   1.2585   4.3877   4.3877   7.4831   7.4831   9.3108   9.3108
    10.5073  12.3148

          k = 0.1364 0.1364 0.4091 (  2663 PWs)   bands (ev):

    -1.3813   0.2388   4.9493   4.9494   6.5200   6.5201   9.8324   9.8325
    11.0690  11.4663

          k = 0.1364 0.1364-0.5000 (  2664 PWs)   bands (ev):

    -0.6426  -0.6422   5.5322   5.5326   5.8013   5.8017  10.2742  10.2746
    10.8962  10.8966

          k = 0.1364 0.2273 0.2273 (  2651 PWs)   bands (ev):

    -2.1241   2.6985   2.6985   4.2459   7.3648   8.8699   8.8699   9.1844
    10.6711  10.6711

          k = 0.1364 0.2273 0.3182 (  2645 PWs)   bands (ev):

    -1.6779   1.5491   3.1292   4.6667   6.2670   7.7736   9.2982   9.5933
    11.0556  12.3391

          k = 0.1364 0.2273 0.4091 (  2659 PWs)   bands (ev):

    -1.0852   0.5315   3.7008   5.1211   5.3962   6.8005   9.8577  10.1411
    11.3802  11.3818

          k = 0.1364 0.2273-0.5000 (  2650 PWs)   bands (ev):

    -0.3481  -0.3476   4.4083   4.4087   5.9637   5.9641  10.5518  10.5523
    10.8062  10.8066

          k = 0.1364 0.3182 0.3182 (  2657 PWs)   bands (ev):

    -1.2331   1.9839   1.9839   4.9830   5.2577   8.1966   8.1967  10.0125
    11.2495  12.7672

          k = 0.1364 0.3182 0.4091 (  2651 PWs)   bands (ev):

    -0.6422   0.9695   2.5614   4.1314   5.6828   7.2221   8.7567  10.2856
    10.5664  12.0435

          k = 0.1364 0.3182-0.5000 (  2644 PWs)   bands (ev):

     0.0927   0.0931   3.2789   3.2793   6.3818   6.3822   9.4534   9.4538
    11.2489  11.2493

          k = 0.1364 0.4091 0.4091 (  2639 PWs)   bands (ev):

    -0.0537   1.5514   1.5514   3.1375   6.2418   7.7832   7.7832   9.3176
    11.1222  12.6128

          k = 0.1364 0.4091-0.5000 (  2656 PWs)   bands (ev):

     0.6782   0.6786   2.2750   2.2754   6.9434   6.9438   8.4821   8.4826
    11.8067  11.8071

          k = 0.1364-0.5000-0.5000 (  2652 PWs)   bands (ev):

     1.4064   1.4068   1.4068   1.4072   7.6442   7.6445   7.6445   7.6450
    12.4900  12.4906

          k = 0.2273 0.2273 0.2273 (  2647 PWs)   bands (ev):

    -1.8265   2.9857   2.9858   2.9858   7.6569   7.6569   7.6570  10.9475
    10.9475  10.9475

          k = 0.2273 0.2273 0.3182 (  2656 PWs)   bands (ev):

    -1.3812   1.8391   3.4150   3.4150   6.5485   6.5485   8.0810  11.1368
    11.3559  11.3559

          k = 0.2273 0.2273 0.4091 (  2653 PWs)   bands (ev):

    -0.7897   0.8237   3.9822   3.9823   5.5697   5.5698   8.6420  10.1726
    11.8837  11.8838

          k = 0.2273 0.2273-0.5000 (  2640 PWs)   bands (ev):

    -0.0541  -0.0537   4.5712   4.5716   4.8426   4.8431   9.3396   9.3401
    12.3465  12.8625

          k = 0.2273 0.3182 0.3182 (  2660 PWs)   bands (ev):

    -0.9374   2.2730   2.2730   3.8399   5.4342   6.9715   6.9716  10.0418
    11.7733  13.2520

          k = 0.2273 0.3182 0.4091 (  2648 PWs)   bands (ev):

    -0.3476   1.2608   2.8488   4.2946   4.5590   5.9899   7.5344   9.0725
    12.3168  13.5867

          k = 0.2273 0.3182-0.5000 (  2644 PWs)   bands (ev):

     0.3858   0.3862   3.5619   3.5624   5.1456   5.1461   8.2352   8.2357
    12.9753  12.9756

          k = 0.2273 0.4091 0.4091 (  2641 PWs)   bands (ev):

     0.2397   1.8415   1.8415   3.4211   5.0040   6.5540   6.5541   8.0986
    12.8653  14.3080

          k = 0.2273 0.4091-0.5000 (  2644 PWs)   bands (ev):

     0.9701   0.9706   2.5632   2.5636   5.7082   5.7087   7.2577   7.2581
    13.5341  13.5345

          k = 0.2273-0.5000-0.5000 (  2648 PWs)   bands (ev):

     1.6968   1.6972   1.6972   1.6976   6.4138   6.4141   6.4141   6.4146
    14.2040  14.2043

          k = 0.3182 0.3182 0.3182 (  2644 PWs)   bands (ev):

    -0.4948   2.7050   2.7050   2.7050   5.8550   5.8550   5.8551   8.9410
    13.6704  13.6705

          k = 0.3182 0.3182 0.4091 (  2647 PWs)   bands (ev):

     0.0931   1.6966   3.2765   3.2765   4.8693   4.8694   6.4200   7.9663
    14.1945  14.1946

          k = 0.3182 0.3182-0.5000 (  2640 PWs)   bands (ev):

     0.8243   0.8248   3.8786   3.8790   4.1283   4.1287   7.1245   7.1249
    15.0517  15.0522

          k = 0.3182 0.4091 0.4091 (  2647 PWs)   bands (ev):

     0.6787   2.2752   2.2752   3.7400   3.9836   5.4337   5.4337   6.9868
    14.7356  16.0036

          k = 0.3182 0.4091-0.5000 (  2634 PWs)   bands (ev):

     1.4069   1.4073   2.9923   2.9927   4.5848   4.5852   6.1410   6.1414
    15.3738  15.3742

          k = 0.3182-0.5000-0.5000 (  2644 PWs)   bands (ev):

     2.1310   2.1314   2.1314   2.1318   5.2922   5.2925   5.2925   5.2930
    16.0210  16.0214

          k = 0.4091 0.4091 0.4091 (  2644 PWs)   bands (ev):

     1.2619   2.8492   2.8493   2.8493   4.4441   4.4441   4.4442   6.0023
    16.6853  16.6854

          k = 0.4091 0.4091-0.5000 (  2630 PWs)   bands (ev):

     1.9869   1.9873   3.4620   3.4624   3.6920   3.6925   5.1525   5.1529
    17.3391  17.3397

          k = 0.4091-0.5000-0.5000 (  2612 PWs)   bands (ev):

     2.7059   2.7064   2.7064   2.7067   4.3013   4.3017   4.3017   4.3022
    17.8415  17.8418

          k =-0.5000-0.5000-0.5000 (  2608 PWs)   bands (ev):

     3.3226   3.3234   3.3234   3.3234   3.5455   3.5455   3.5455   3.5464
    19.3514  19.3517

     the Fermi energy is     7.9308 ev

!    total energy              =    -158.01137335 Ry
     Harris-Foulkes estimate   =    -158.01137347 Ry
     estimated scf accuracy    <       0.00000030 Ry

     total all-electron energy =     -1942.582495 Ry

     The total energy is the sum of the following terms:

     one-electron contribution =      12.67233004 Ry
     hartree contribution      =       0.02460896 Ry
     xc contribution           =     -10.36825143 Ry
     ewald contribution        =     -21.63006636 Ry
     one-center paw contrib.   =    -138.71050142 Ry
     smearing contrib. (-TS)   =       0.00050686 Ry

     convergence has been achieved in   6 iterations

     Forces acting on atoms (cartesian axes, Ry/au):

     atom    1 type  1   force =     0.00000000    0.00000000    0.00000000
     atom    2 type  1   force =     0.00000000    0.00000000    0.00000000
     atom    3 type  1   force =     0.00000000    0.00000000    0.00000000
     atom    4 type  1   force =     0.00000000    0.00000000    0.00000000

     Total force =     0.000000     Total SCF correction =     0.000000


     Computing stress (Cartesian axis) and pressure

          total   stress  (Ry/bohr**3)                   (kbar)     P=    0.23
   0.00000160   0.00000000   0.00000000          0.23      0.00      0.00
   0.00000000   0.00000160   0.00000000          0.00      0.23      0.00
   0.00000000   0.00000000   0.00000160          0.00      0.00      0.23


     Writing output data file DWNjqkoJEWzDVkjG.save/

     init_run     :      1.49s CPU      1.52s WALL (       1 calls)
     electrons    :     16.37s CPU     16.51s WALL (       1 calls)
     forces       :      0.30s CPU      0.31s WALL (       1 calls)
     stress       :      0.64s CPU      0.64s WALL (       1 calls)

     Called by init_run:
     wfcinit      :      1.15s CPU      1.17s WALL (       1 calls)
     potinit      :      0.15s CPU      0.15s WALL (       1 calls)
     hinit0       :      0.17s CPU      0.17s WALL (       1 calls)

     Called by electrons:
     c_bands      :     13.36s CPU     13.46s WALL (       7 calls)
     sum_band     :      2.10s CPU      2.13s WALL (       7 calls)
     v_of_rho     :      0.14s CPU      0.14s WALL (       7 calls)
     newd         :      0.09s CPU      0.09s WALL (       7 calls)
     PAW_pot      :      0.83s CPU      0.83s WALL (       7 calls)
     mix_rho      :      0.01s CPU      0.01s WALL (       7 calls)

     Called by c_bands:
     init_us_2    :      0.36s CPU      0.37s WALL (     952 calls)
     cegterg      :     12.84s CPU     12.93s WALL (     392 calls)

     Called by sum_band:
     sum_band:bec :      0.00s CPU      0.00s WALL (     392 calls)
     addusdens    :      0.06s CPU      0.06s WALL (       7 calls)

     Called by *egterg:
     h_psi        :     10.65s CPU     10.74s WALL (    1437 calls)
     s_psi        :      0.84s CPU      0.84s WALL (    1437 calls)
     g_psi        :      0.06s CPU      0.06s WALL (     989 calls)
     cdiaghg      :      0.17s CPU      0.18s WALL (    1325 calls)

     Called by h_psi:
     h_psi:pot    :     10.60s CPU     10.69s WALL (    1437 calls)
     h_psi:calbec :      1.07s CPU      1.07s WALL (    1437 calls)
     vloc_psi     :      8.71s CPU      8.78s WALL (    1437 calls)
     add_vuspsi   :      0.83s CPU      0.83s WALL (    1437 calls)

     General routines
     calbec       :      1.66s CPU      1.68s WALL (    2109 calls)
     fft          :      0.07s CPU      0.07s WALL (     103 calls)
     ffts         :      0.00s CPU      0.00s WALL (       7 calls)
     fftw         :      9.45s CPU      9.54s WALL (   27092 calls)

     Parallel routines

     PWSCF        :     19.12s CPU     19.31s WALL


   This run was terminated on:  12:13:10  14May2021            

=------------------------------------------------------------------------------=
   JOB DONE.
=------------------------------------------------------------------------------=
