
     Program PWSCF v.6.4.1 starts on 14May2021 at 13:21:11 

     This program is part of the open-source Quantum ESPRESSO suite
     for quantum simulation of materials; please cite
         "P. Giannozzi et al., J. Phys.:Condens. Matter 21 395502 (2009);
         "P. Giannozzi et al., J. Phys.:Condens. Matter 29 465901 (2017);
          URL http://www.quantum-espresso.org", 
     in publications or presentations arising from this work. More details at
     http://www.quantum-espresso.org/quote

     Parallel version (MPI), running on     1 processors

     MPI processes distributed on     1 nodes
     Reading input from /cloud/Code/python/qeeos/examples/aluminium/wd/ec/ec_8_009.in
Warning: card &IONS ignored
Warning: card ION_DYNAMICS = 'BFGS', ignored
Warning: card / ignored
Warning: card &CELL ignored
Warning: card CELL_DYNAMICS = 'BFGS', ignored
Warning: card CELL_FACTOR = 2.0, ignored
Warning: card PRESS = 0.0, ignored
Warning: card / ignored

     Current dimensions of program PWSCF are:
     Max number of different atomic species (ntypx) = 10
     Max number of k-points (npk) =  40000
     Max angular momentum in pseudopotentials (lmaxx) =  3
               file Al.pbe-nl-kjpaw_psl.1.0.0.UPF: wavefunction(s)  3S 3P renormalized

     Subspace diagonalization in iterative solution of the eigenvalue problem:
     a serial algorithm will be used

     Found symmetry operation: I + ( -0.5000 -0.5000  0.0000)
     This is a supercell, fractional translations are disabled
     Message from routine setup:
     DEPRECATED: symmetry with ibrav=0, use correct ibrav instead

     G-vector sticks info
     --------------------
     sticks:   dense  smooth     PW     G-vecs:    dense   smooth      PW
     Sum         937     937    289                21227    21227    3543



     bravais-lattice index     =            0
     lattice parameter (alat)  =       7.6308  a.u.
     unit-cell volume          =     444.3373 (a.u.)^3
     number of atoms/cell      =            4
     number of atomic types    =            1
     number of electrons       =        12.00
     number of Kohn-Sham states=           10
     kinetic-energy cutoff     =      50.0000  Ry
     charge density cutoff     =     200.0000  Ry
     convergence threshold     =      1.0E-06
     mixing beta               =       0.1000
     number of iterations used =           10  plain     mixing
     Exchange-correlation      = SLA PW PBX PBC ( 1  4  3  4 0 0)

     celldm(1)=   7.630815  celldm(2)=   0.000000  celldm(3)=   0.000000
     celldm(4)=   0.000000  celldm(5)=   0.000000  celldm(6)=   0.000000

     crystal axes: (cart. coord. in units of alat)
               a(1) = (   1.005008   0.000000   0.000000 )  
               a(2) = (   0.000000   1.000008   0.000000 )  
               a(3) = (   0.000000   0.000000   0.995008 )  

     reciprocal axes: (cart. coord. in units 2 pi/alat)
               b(1) = (  0.995017  0.000000  0.000000 )  
               b(2) = (  0.000000  0.999992  0.000000 )  
               b(3) = (  0.000000  0.000000  1.005017 )  


     PseudoPot. # 1 for Al read from file:
     /opt/pp/Al.pbe-nl-kjpaw_psl.1.0.0.UPF
     MD5 check sum: 1b67f78b73fe58c7924490f171ce8a1e
     Pseudo is Projector augmented-wave + core cor, Zval =  3.0
     Generated using "atomic" code by A. Dal Corso v.6.3
     Shape of augmentation charge: PSQ
     Using radial grid of 1135 points,  4 beta functions with: 
                l(1) =   0
                l(2) =   0
                l(3) =   1
                l(4) =   1
     Q(r) pseudized with 0 coefficients 


     atomic species   valence    mass     pseudopotential
        Al             3.00    26.98200     Al( 1.00)

      8 Sym. Ops., with inversion, found



   Cartesian axes

     site n.     atom                  positions (alat units)
         1           Al  tau(   1) = (   0.0000000   0.0000000   0.0000000  )
         2           Al  tau(   2) = (   0.5025043   0.5000043   0.0000000  )
         3           Al  tau(   3) = (   0.5025043   0.0000000   0.4975041  )
         4           Al  tau(   4) = (   0.0000000   0.5000043   0.4975041  )

     number of k points=   216  Marzari-Vanderbilt smearing, width (Ry)=  0.0400

     Number of k-points >= 100: set verbosity='high' to print them.

     Dense  grid:    21227 G-vectors     FFT dimensions: (  36,  36,  36)

     Estimated max dynamical RAM per process >     120.19 MB

     Initial potential from superposition of free atoms

     starting charge   11.99084, renormalised to   12.00000
     Starting wfcs are   16 randomized atomic wfcs
     Checking if some PAW data can be deallocated... 

     total cpu time spent up to now is        5.1 secs

     Self-consistent Calculation

     iteration #  1     ecut=    50.00 Ry     beta= 0.10
     Davidson diagonalization with overlap
     ethr =  1.00E-02,  avg # of iterations =  3.3

     Threshold (ethr) on eigenvalues was too large:
     Diagonalizing with lowered threshold

     Davidson diagonalization with overlap
     ethr =  1.95E-04,  avg # of iterations =  3.4

     total cpu time spent up to now is       23.4 secs

     total energy              =    -158.01595980 Ry
     Harris-Foulkes estimate   =    -158.01715634 Ry
     estimated scf accuracy    <       0.02258655 Ry

     iteration #  2     ecut=    50.00 Ry     beta= 0.10
     Davidson diagonalization with overlap
     ethr =  1.88E-04,  avg # of iterations =  1.0

     total cpu time spent up to now is       30.0 secs

     total energy              =    -158.01088996 Ry
     Harris-Foulkes estimate   =    -158.01606645 Ry
     estimated scf accuracy    <       0.01802637 Ry

     iteration #  3     ecut=    50.00 Ry     beta= 0.10
     Davidson diagonalization with overlap
     ethr =  1.50E-04,  avg # of iterations =  1.0

     total cpu time spent up to now is       36.5 secs

     total energy              =    -158.01124277 Ry
     Harris-Foulkes estimate   =    -158.01123816 Ry
     estimated scf accuracy    <       0.00004696 Ry

     iteration #  4     ecut=    50.00 Ry     beta= 0.10
     Davidson diagonalization with overlap
     c_bands:  1 eigenvalues not converged
     c_bands:  1 eigenvalues not converged
     ethr =  3.91E-07,  avg # of iterations =  4.7

     total cpu time spent up to now is       48.6 secs

     total energy              =    -158.01145148 Ry
     Harris-Foulkes estimate   =    -158.01132406 Ry
     estimated scf accuracy    <       0.00003647 Ry

     iteration #  5     ecut=    50.00 Ry     beta= 0.10
     Davidson diagonalization with overlap
     ethr =  3.04E-07,  avg # of iterations =  2.2

     total cpu time spent up to now is       57.1 secs

     total energy              =    -158.01130970 Ry
     Harris-Foulkes estimate   =    -158.01145973 Ry
     estimated scf accuracy    <       0.00037081 Ry

     iteration #  6     ecut=    50.00 Ry     beta= 0.10
     Davidson diagonalization with overlap
     ethr =  3.04E-07,  avg # of iterations =  2.2

     total cpu time spent up to now is       66.0 secs

     total energy              =    -158.01130888 Ry
     Harris-Foulkes estimate   =    -158.01132016 Ry
     estimated scf accuracy    <       0.00002445 Ry

     iteration #  7     ecut=    50.00 Ry     beta= 0.10
     Davidson diagonalization with overlap
     ethr =  2.04E-07,  avg # of iterations =  1.0

     total cpu time spent up to now is       72.6 secs

     End of self-consistent calculation

     Number of k-points >= 100: set verbosity='high' to print the bands.

     the Fermi energy is     7.9312 ev

!    total energy              =    -158.01130987 Ry
     Harris-Foulkes estimate   =    -158.01131002 Ry
     estimated scf accuracy    <       0.00000041 Ry

     total all-electron energy =     -1942.582432 Ry

     The total energy is the sum of the following terms:

     one-electron contribution =      12.67235219 Ry
     hartree contribution      =       0.02459355 Ry
     xc contribution           =     -10.36816716 Ry
     ewald contribution        =     -21.63004139 Ry
     one-center paw contrib.   =    -138.71051141 Ry
     smearing contrib. (-TS)   =       0.00046436 Ry

     convergence has been achieved in   7 iterations

     Forces acting on atoms (cartesian axes, Ry/au):

     atom    1 type  1   force =     0.00000000    0.00000000    0.00000000
     atom    2 type  1   force =     0.00000000    0.00000000    0.00000000
     atom    3 type  1   force =     0.00000000    0.00000000    0.00000000
     atom    4 type  1   force =     0.00000000    0.00000000    0.00000000

     Total force =     0.000000     Total SCF correction =     0.000000


     Computing stress (Cartesian axis) and pressure

          total   stress  (Ry/bohr**3)                   (kbar)     P=    0.36
  -0.00002584   0.00000000   0.00000000         -3.80      0.00      0.00
   0.00000000   0.00000240   0.00000000          0.00      0.35      0.00
   0.00000000   0.00000000   0.00003081          0.00      0.00      4.53


     Writing output data file eoVjdBioxOulmFAw.save/

     init_run     :      4.80s CPU      4.84s WALL (       1 calls)
     electrons    :     67.09s CPU     67.46s WALL (       1 calls)
     forces       :      1.14s CPU      1.15s WALL (       1 calls)
     stress       :      2.55s CPU      2.55s WALL (       1 calls)

     Called by init_run:
     wfcinit      :      4.36s CPU      4.38s WALL (       1 calls)
     potinit      :      0.18s CPU      0.18s WALL (       1 calls)
     hinit0       :      0.25s CPU      0.25s WALL (       1 calls)

     Called by electrons:
     c_bands      :     56.83s CPU     57.17s WALL (       8 calls)
     sum_band     :      9.19s CPU      9.21s WALL (       8 calls)
     v_of_rho     :      0.16s CPU      0.16s WALL (       8 calls)
     newd         :      0.09s CPU      0.10s WALL (       8 calls)
     PAW_pot      :      0.96s CPU      0.96s WALL (       8 calls)
     mix_rho      :      0.01s CPU      0.01s WALL (       8 calls)

     Called by c_bands:
     init_us_2    :      1.59s CPU      1.60s WALL (    4104 calls)
     cegterg      :     54.56s CPU     54.83s WALL (    1728 calls)

     Called by sum_band:
     sum_band:bec :      0.01s CPU      0.01s WALL (    1728 calls)
     addusdens    :      0.07s CPU      0.07s WALL (       8 calls)

     Called by *egterg:
     h_psi        :     45.06s CPU     45.30s WALL (    6018 calls)
     s_psi        :      3.55s CPU      3.56s WALL (    6018 calls)
     g_psi        :      0.25s CPU      0.25s WALL (    4074 calls)
     cdiaghg      :      0.71s CPU      0.71s WALL (    5586 calls)

     Called by h_psi:
     h_psi:pot    :     44.89s CPU     45.13s WALL (    6018 calls)
     h_psi:calbec :      4.48s CPU      4.50s WALL (    6018 calls)
     vloc_psi     :     36.89s CPU     37.10s WALL (    6018 calls)
     add_vuspsi   :      3.51s CPU      3.52s WALL (    6018 calls)

     General routines
     calbec       :      7.06s CPU      7.08s WALL (    8826 calls)
     fft          :      0.07s CPU      0.07s WALL (     114 calls)
     ffts         :      0.00s CPU      0.00s WALL (       8 calls)
     fftw         :     40.41s CPU     40.62s WALL (  115318 calls)

     Parallel routines

     PWSCF        :   1m15.92s CPU   1m16.41s WALL


   This run was terminated on:  13:22:27  14May2021            

=------------------------------------------------------------------------------=
   JOB DONE.
=------------------------------------------------------------------------------=
