
     Program PWSCF v.6.4.1 starts on 14May2021 at 13:33:23 

     This program is part of the open-source Quantum ESPRESSO suite
     for quantum simulation of materials; please cite
         "P. Giannozzi et al., J. Phys.:Condens. Matter 21 395502 (2009);
         "P. Giannozzi et al., J. Phys.:Condens. Matter 29 465901 (2017);
          URL http://www.quantum-espresso.org", 
     in publications or presentations arising from this work. More details at
     http://www.quantum-espresso.org/quote

     Parallel version (MPI), running on     1 processors

     MPI processes distributed on     1 nodes
     Reading input from /cloud/Code/python/qeeos/examples/aluminium/wd/ec/ec_9_008.in
Warning: card &IONS ignored
Warning: card ION_DYNAMICS = 'BFGS', ignored
Warning: card / ignored
Warning: card &CELL ignored
Warning: card CELL_DYNAMICS = 'BFGS', ignored
Warning: card CELL_FACTOR = 2.0, ignored
Warning: card PRESS = 0.0, ignored
Warning: card / ignored

     Current dimensions of program PWSCF are:
     Max number of different atomic species (ntypx) = 10
     Max number of k-points (npk) =  40000
     Max angular momentum in pseudopotentials (lmaxx) =  3
               file Al.pbe-nl-kjpaw_psl.1.0.0.UPF: wavefunction(s)  3S 3P renormalized

     Subspace diagonalization in iterative solution of the eigenvalue problem:
     a serial algorithm will be used

     Found symmetry operation: I + ( -0.5000 -0.5000  0.0000)
     This is a supercell, fractional translations are disabled
     Message from routine setup:
     DEPRECATED: symmetry with ibrav=0, use correct ibrav instead

     G-vector sticks info
     --------------------
     sticks:   dense  smooth     PW     G-vecs:    dense   smooth      PW
     Sum         937     937    289                21243    21243    3543



     bravais-lattice index     =            0
     lattice parameter (alat)  =       7.6308  a.u.
     unit-cell volume          =     444.3373 (a.u.)^3
     number of atoms/cell      =            4
     number of atomic types    =            1
     number of electrons       =        12.00
     number of Kohn-Sham states=           10
     kinetic-energy cutoff     =      50.0000  Ry
     charge density cutoff     =     200.0000  Ry
     convergence threshold     =      1.0E-06
     mixing beta               =       0.1000
     number of iterations used =           10  plain     mixing
     Exchange-correlation      = SLA PW PBX PBC ( 1  4  3  4 0 0)

     celldm(1)=   7.630815  celldm(2)=   0.000000  celldm(3)=   0.000000
     celldm(4)=   0.000000  celldm(5)=   0.000000  celldm(6)=   0.000000

     crystal axes: (cart. coord. in units of alat)
               a(1) = (   1.000006   0.000000   0.000000 )  
               a(2) = (   0.000000   1.004381   0.000000 )  
               a(3) = (   0.000000   0.000000   0.995631 )  

     reciprocal axes: (cart. coord. in units 2 pi/alat)
               b(1) = (  0.999994  0.000000  0.000000 )  
               b(2) = (  0.000000  0.995638  0.000000 )  
               b(3) = (  0.000000  0.000000  1.004388 )  


     PseudoPot. # 1 for Al read from file:
     /opt/pp/Al.pbe-nl-kjpaw_psl.1.0.0.UPF
     MD5 check sum: 1b67f78b73fe58c7924490f171ce8a1e
     Pseudo is Projector augmented-wave + core cor, Zval =  3.0
     Generated using "atomic" code by A. Dal Corso v.6.3
     Shape of augmentation charge: PSQ
     Using radial grid of 1135 points,  4 beta functions with: 
                l(1) =   0
                l(2) =   0
                l(3) =   1
                l(4) =   1
     Q(r) pseudized with 0 coefficients 


     atomic species   valence    mass     pseudopotential
        Al             3.00    26.98200     Al( 1.00)

      8 Sym. Ops., with inversion, found



   Cartesian axes

     site n.     atom                  positions (alat units)
         1           Al  tau(   1) = (   0.0000000   0.0000000   0.0000000  )
         2           Al  tau(   2) = (   0.5000033   0.5021908   0.0000000  )
         3           Al  tau(   3) = (   0.5000033   0.0000000   0.4978157  )
         4           Al  tau(   4) = (   0.0000000   0.5021908   0.4978157  )

     number of k points=   216  Marzari-Vanderbilt smearing, width (Ry)=  0.0400

     Number of k-points >= 100: set verbosity='high' to print them.

     Dense  grid:    21243 G-vectors     FFT dimensions: (  36,  36,  36)

     Estimated max dynamical RAM per process >     120.21 MB

     Initial potential from superposition of free atoms

     starting charge   11.99084, renormalised to   12.00000
     Starting wfcs are   16 randomized atomic wfcs
     Checking if some PAW data can be deallocated... 

     total cpu time spent up to now is        8.5 secs

     Self-consistent Calculation

     iteration #  1     ecut=    50.00 Ry     beta= 0.10
     Davidson diagonalization with overlap
     ethr =  1.00E-02,  avg # of iterations =  3.3

     Threshold (ethr) on eigenvalues was too large:
     Diagonalizing with lowered threshold

     Davidson diagonalization with overlap
     ethr =  1.95E-04,  avg # of iterations =  3.3

     total cpu time spent up to now is       39.7 secs

     total energy              =    -158.01597207 Ry
     Harris-Foulkes estimate   =    -158.01716922 Ry
     estimated scf accuracy    <       0.02259249 Ry

     iteration #  2     ecut=    50.00 Ry     beta= 0.10
     Davidson diagonalization with overlap
     ethr =  1.88E-04,  avg # of iterations =  1.0

     total cpu time spent up to now is       50.0 secs

     total energy              =    -158.01090542 Ry
     Harris-Foulkes estimate   =    -158.01608081 Ry
     estimated scf accuracy    <       0.01802674 Ry

     iteration #  3     ecut=    50.00 Ry     beta= 0.10
     Davidson diagonalization with overlap
     ethr =  1.50E-04,  avg # of iterations =  1.0

     total cpu time spent up to now is       59.2 secs

     total energy              =    -158.01125799 Ry
     Harris-Foulkes estimate   =    -158.01125343 Ry
     estimated scf accuracy    <       0.00004809 Ry

     iteration #  4     ecut=    50.00 Ry     beta= 0.10
     Davidson diagonalization with overlap
     c_bands:  1 eigenvalues not converged
     c_bands:  1 eigenvalues not converged
     c_bands:  1 eigenvalues not converged
     ethr =  4.01E-07,  avg # of iterations =  4.8

     total cpu time spent up to now is       71.5 secs

     total energy              =    -158.01146112 Ry
     Harris-Foulkes estimate   =    -158.01133886 Ry
     estimated scf accuracy    <       0.00003657 Ry

     iteration #  5     ecut=    50.00 Ry     beta= 0.10
     Davidson diagonalization with overlap
     ethr =  3.05E-07,  avg # of iterations =  2.2

     total cpu time spent up to now is       80.0 secs

     total energy              =    -158.01132453 Ry
     Harris-Foulkes estimate   =    -158.01146892 Ry
     estimated scf accuracy    <       0.00035648 Ry

     iteration #  6     ecut=    50.00 Ry     beta= 0.10
     Davidson diagonalization with overlap
     ethr =  3.05E-07,  avg # of iterations =  2.2

     total cpu time spent up to now is       88.7 secs

     total energy              =    -158.01132371 Ry
     Harris-Foulkes estimate   =    -158.01133462 Ry
     estimated scf accuracy    <       0.00002368 Ry

     iteration #  7     ecut=    50.00 Ry     beta= 0.10
     Davidson diagonalization with overlap
     ethr =  1.97E-07,  avg # of iterations =  1.0

     total cpu time spent up to now is       95.6 secs

     End of self-consistent calculation

     Number of k-points >= 100: set verbosity='high' to print the bands.

     the Fermi energy is     7.9311 ev

!    total energy              =    -158.01132466 Ry
     Harris-Foulkes estimate   =    -158.01132478 Ry
     estimated scf accuracy    <       0.00000034 Ry

     total all-electron energy =     -1942.582447 Ry

     The total energy is the sum of the following terms:

     one-electron contribution =      12.67233261 Ry
     hartree contribution      =       0.02459598 Ry
     xc contribution           =     -10.36816997 Ry
     ewald contribution        =     -21.63004724 Ry
     one-center paw contrib.   =    -138.71051031 Ry
     smearing contrib. (-TS)   =       0.00047428 Ry

     convergence has been achieved in   7 iterations

     Forces acting on atoms (cartesian axes, Ry/au):

     atom    1 type  1   force =     0.00000000    0.00000000    0.00000000
     atom    2 type  1   force =     0.00000000    0.00000000    0.00000000
     atom    3 type  1   force =     0.00000000    0.00000000    0.00000000
     atom    4 type  1   force =     0.00000000    0.00000000    0.00000000

     Total force =     0.000000     Total SCF correction =     0.000000


     Computing stress (Cartesian axis) and pressure

          total   stress  (Ry/bohr**3)                   (kbar)     P=    0.35
   0.00000233   0.00000000   0.00000000          0.34      0.00      0.00
   0.00000000  -0.00002246   0.00000000          0.00     -3.30      0.00
   0.00000000   0.00000000   0.00002723          0.00      0.00      4.01


     Writing output data file acOmeCNSWnRUQUXC.save/

     init_run     :      7.91s CPU      8.04s WALL (       1 calls)
     electrons    :     86.42s CPU     87.15s WALL (       1 calls)
     forces       :      1.11s CPU      1.12s WALL (       1 calls)
     stress       :      2.43s CPU      2.44s WALL (       1 calls)

     Called by init_run:
     wfcinit      :      7.29s CPU      7.39s WALL (       1 calls)
     potinit      :      0.23s CPU      0.25s WALL (       1 calls)
     hinit0       :      0.36s CPU      0.36s WALL (       1 calls)

     Called by electrons:
     c_bands      :     73.38s CPU     74.00s WALL (       8 calls)
     sum_band     :     11.81s CPU     11.91s WALL (       8 calls)
     v_of_rho     :      0.19s CPU      0.19s WALL (       8 calls)
     newd         :      0.12s CPU      0.12s WALL (       8 calls)
     PAW_pot      :      1.10s CPU      1.13s WALL (       8 calls)
     mix_rho      :      0.02s CPU      0.02s WALL (       8 calls)

     Called by c_bands:
     init_us_2    :      1.98s CPU      2.00s WALL (    4104 calls)
     cegterg      :     70.42s CPU     70.94s WALL (    1728 calls)

     Called by sum_band:
     sum_band:bec :      0.01s CPU      0.01s WALL (    1728 calls)
     addusdens    :      0.09s CPU      0.09s WALL (       8 calls)

     Called by *egterg:
     h_psi        :     59.28s CPU     59.76s WALL (    6012 calls)
     s_psi        :      4.84s CPU      4.88s WALL (    6012 calls)
     g_psi        :      0.29s CPU      0.29s WALL (    4068 calls)
     cdiaghg      :      0.85s CPU      0.86s WALL (    5580 calls)

     Called by h_psi:
     h_psi:pot    :     59.04s CPU     59.51s WALL (    6012 calls)
     h_psi:calbec :      6.09s CPU      6.14s WALL (    6012 calls)
     vloc_psi     :     48.11s CPU     48.51s WALL (    6012 calls)
     add_vuspsi   :      4.81s CPU      4.85s WALL (    6012 calls)

     General routines
     calbec       :      9.17s CPU      9.23s WALL (    8820 calls)
     fft          :      0.09s CPU      0.09s WALL (     114 calls)
     ffts         :      0.01s CPU      0.01s WALL (       8 calls)
     fftw         :     51.97s CPU     52.42s WALL (  115296 calls)

     Parallel routines

     PWSCF        :   1m38.34s CPU   1m39.30s WALL


   This run was terminated on:  13:35: 3  14May2021            

=------------------------------------------------------------------------------=
   JOB DONE.
=------------------------------------------------------------------------------=
