
     Program PWSCF v.6.4.1 starts on 14May2021 at 13:27:54 

     This program is part of the open-source Quantum ESPRESSO suite
     for quantum simulation of materials; please cite
         "P. Giannozzi et al., J. Phys.:Condens. Matter 21 395502 (2009);
         "P. Giannozzi et al., J. Phys.:Condens. Matter 29 465901 (2017);
          URL http://www.quantum-espresso.org", 
     in publications or presentations arising from this work. More details at
     http://www.quantum-espresso.org/quote

     Parallel version (MPI), running on     1 processors

     MPI processes distributed on     1 nodes
     Reading input from /cloud/Code/python/qeeos/examples/aluminium/wd/ec/ec_9_005.in
Warning: card &IONS ignored
Warning: card ION_DYNAMICS = 'BFGS', ignored
Warning: card / ignored
Warning: card &CELL ignored
Warning: card CELL_DYNAMICS = 'BFGS', ignored
Warning: card CELL_FACTOR = 2.0, ignored
Warning: card PRESS = 0.0, ignored
Warning: card / ignored

     Current dimensions of program PWSCF are:
     Max number of different atomic species (ntypx) = 10
     Max number of k-points (npk) =  40000
     Max angular momentum in pseudopotentials (lmaxx) =  3
               file Al.pbe-nl-kjpaw_psl.1.0.0.UPF: wavefunction(s)  3S 3P renormalized

     Subspace diagonalization in iterative solution of the eigenvalue problem:
     a serial algorithm will be used

     Found symmetry operation: I + ( -0.5000 -0.5000  0.0000)
     This is a supercell, fractional translations are disabled
     Message from routine setup:
     DEPRECATED: symmetry with ibrav=0, use correct ibrav instead

     G-vector sticks info
     --------------------
     sticks:   dense  smooth     PW     G-vecs:    dense   smooth      PW
     Sum         933     933    285                21247    21247    3567



     bravais-lattice index     =            0
     lattice parameter (alat)  =       7.6308  a.u.
     unit-cell volume          =     444.3373 (a.u.)^3
     number of atoms/cell      =            4
     number of atomic types    =            1
     number of electrons       =        12.00
     number of Kohn-Sham states=           10
     kinetic-energy cutoff     =      50.0000  Ry
     charge density cutoff     =     200.0000  Ry
     convergence threshold     =      1.0E-06
     mixing beta               =       0.1000
     number of iterations used =           10  plain     mixing
     Exchange-correlation      = SLA PW PBX PBC ( 1  4  3  4 0 0)

     celldm(1)=   7.630815  celldm(2)=   0.000000  celldm(3)=   0.000000
     celldm(4)=   0.000000  celldm(5)=   0.000000  celldm(6)=   0.000000

     crystal axes: (cart. coord. in units of alat)
               a(1) = (   1.000002   0.000000   0.000000 )  
               a(2) = (   0.000000   1.002502   0.000000 )  
               a(3) = (   0.000000   0.000000   0.997502 )  

     reciprocal axes: (cart. coord. in units 2 pi/alat)
               b(1) = (  0.999998  0.000000  0.000000 )  
               b(2) = (  0.000000  0.997504  0.000000 )  
               b(3) = (  0.000000  0.000000  1.002504 )  


     PseudoPot. # 1 for Al read from file:
     /opt/pp/Al.pbe-nl-kjpaw_psl.1.0.0.UPF
     MD5 check sum: 1b67f78b73fe58c7924490f171ce8a1e
     Pseudo is Projector augmented-wave + core cor, Zval =  3.0
     Generated using "atomic" code by A. Dal Corso v.6.3
     Shape of augmentation charge: PSQ
     Using radial grid of 1135 points,  4 beta functions with: 
                l(1) =   0
                l(2) =   0
                l(3) =   1
                l(4) =   1
     Q(r) pseudized with 0 coefficients 


     atomic species   valence    mass     pseudopotential
        Al             3.00    26.98200     Al( 1.00)

      8 Sym. Ops., with inversion, found



   Cartesian axes

     site n.     atom                  positions (alat units)
         1           Al  tau(   1) = (   0.0000000   0.0000000   0.0000000  )
         2           Al  tau(   2) = (   0.5000011   0.5012511   0.0000000  )
         3           Al  tau(   3) = (   0.5000011   0.0000000   0.4987510  )
         4           Al  tau(   4) = (   0.0000000   0.5012511   0.4987510  )

     number of k points=   216  Marzari-Vanderbilt smearing, width (Ry)=  0.0400

     Number of k-points >= 100: set verbosity='high' to print them.

     Dense  grid:    21247 G-vectors     FFT dimensions: (  36,  36,  36)

     Estimated max dynamical RAM per process >     120.22 MB

     Initial potential from superposition of free atoms

     starting charge   11.99084, renormalised to   12.00000
     Starting wfcs are   16 randomized atomic wfcs
     Checking if some PAW data can be deallocated... 

     total cpu time spent up to now is        8.5 secs

     Self-consistent Calculation

     iteration #  1     ecut=    50.00 Ry     beta= 0.10
     Davidson diagonalization with overlap
     ethr =  1.00E-02,  avg # of iterations =  3.3

     Threshold (ethr) on eigenvalues was too large:
     Diagonalizing with lowered threshold

     Davidson diagonalization with overlap
     ethr =  1.95E-04,  avg # of iterations =  3.4

     total cpu time spent up to now is       39.2 secs

     total energy              =    -158.01601015 Ry
     Harris-Foulkes estimate   =    -158.01720670 Ry
     estimated scf accuracy    <       0.02259118 Ry

     iteration #  2     ecut=    50.00 Ry     beta= 0.10
     Davidson diagonalization with overlap
     ethr =  1.88E-04,  avg # of iterations =  1.0

     total cpu time spent up to now is       49.2 secs

     total energy              =    -158.01093688 Ry
     Harris-Foulkes estimate   =    -158.01611571 Ry
     estimated scf accuracy    <       0.01803156 Ry

     iteration #  3     ecut=    50.00 Ry     beta= 0.10
     Davidson diagonalization with overlap
     ethr =  1.50E-04,  avg # of iterations =  1.0

     total cpu time spent up to now is       58.7 secs

     total energy              =    -158.01129022 Ry
     Harris-Foulkes estimate   =    -158.01128562 Ry
     estimated scf accuracy    <       0.00004645 Ry

     iteration #  4     ecut=    50.00 Ry     beta= 0.10
     Davidson diagonalization with overlap
     c_bands:  1 eigenvalues not converged
     c_bands:  1 eigenvalues not converged
     c_bands:  1 eigenvalues not converged
     ethr =  3.87E-07,  avg # of iterations =  4.8

     total cpu time spent up to now is       78.2 secs

     total energy              =    -158.01149920 Ry
     Harris-Foulkes estimate   =    -158.01137139 Ry
     estimated scf accuracy    <       0.00003634 Ry

     iteration #  5     ecut=    50.00 Ry     beta= 0.10
     Davidson diagonalization with overlap
     ethr =  3.03E-07,  avg # of iterations =  2.2

     total cpu time spent up to now is       92.2 secs

     total energy              =    -158.01135234 Ry
     Harris-Foulkes estimate   =    -158.01150750 Ry
     estimated scf accuracy    <       0.00037169 Ry

     iteration #  6     ecut=    50.00 Ry     beta= 0.10
     Davidson diagonalization with overlap
     ethr =  3.03E-07,  avg # of iterations =  2.2

     total cpu time spent up to now is      106.6 secs

     total energy              =    -158.01135671 Ry
     Harris-Foulkes estimate   =    -158.01136421 Ry
     estimated scf accuracy    <       0.00001618 Ry

     iteration #  7     ecut=    50.00 Ry     beta= 0.10
     Davidson diagonalization with overlap
     ethr =  1.35E-07,  avg # of iterations =  1.0

     total cpu time spent up to now is      117.8 secs

     End of self-consistent calculation

     Number of k-points >= 100: set verbosity='high' to print the bands.

     the Fermi energy is     7.9311 ev

!    total energy              =    -158.01135733 Ry
     Harris-Foulkes estimate   =    -158.01135749 Ry
     estimated scf accuracy    <       0.00000041 Ry

     total all-electron energy =     -1942.582479 Ry

     The total energy is the sum of the following terms:

     one-electron contribution =      12.67223253 Ry
     hartree contribution      =       0.02460137 Ry
     xc contribution           =     -10.36815837 Ry
     ewald contribution        =     -21.63006012 Ry
     one-center paw contrib.   =    -138.71046908 Ry
     smearing contrib. (-TS)   =       0.00049635 Ry

     convergence has been achieved in   7 iterations

     Forces acting on atoms (cartesian axes, Ry/au):

     atom    1 type  1   force =     0.00000000    0.00000000    0.00000000
     atom    2 type  1   force =     0.00000000    0.00000000    0.00000000
     atom    3 type  1   force =     0.00000000    0.00000000    0.00000000
     atom    4 type  1   force =     0.00000000    0.00000000    0.00000000

     Total force =     0.000000     Total SCF correction =     0.000000


     Computing stress (Cartesian axis) and pressure

          total   stress  (Ry/bohr**3)                   (kbar)     P=    0.27
   0.00000182   0.00000000   0.00000000          0.27      0.00      0.00
   0.00000000  -0.00001243   0.00000000          0.00     -1.83      0.00
   0.00000000   0.00000000   0.00001611          0.00      0.00      2.37


     Writing output data file OjHFvGTLAIIXuAwO.save/

     init_run     :      7.95s CPU      8.05s WALL (       1 calls)
     electrons    :    108.26s CPU    109.29s WALL (       1 calls)
     forces       :      1.78s CPU      1.80s WALL (       1 calls)
     stress       :      3.94s CPU      3.96s WALL (       1 calls)

     Called by init_run:
     wfcinit      :      7.32s CPU      7.41s WALL (       1 calls)
     potinit      :      0.24s CPU      0.25s WALL (       1 calls)
     hinit0       :      0.36s CPU      0.36s WALL (       1 calls)

     Called by electrons:
     c_bands      :     92.38s CPU     93.26s WALL (       8 calls)
     sum_band     :     14.38s CPU     14.51s WALL (       8 calls)
     v_of_rho     :      0.21s CPU      0.21s WALL (       8 calls)
     newd         :      0.13s CPU      0.14s WALL (       8 calls)
     PAW_pot      :      1.33s CPU      1.35s WALL (       8 calls)
     mix_rho      :      0.02s CPU      0.02s WALL (       8 calls)

     Called by c_bands:
     init_us_2    :      2.42s CPU      2.46s WALL (    4104 calls)
     cegterg      :     88.73s CPU     89.44s WALL (    1728 calls)

     Called by sum_band:
     sum_band:bec :      0.02s CPU      0.02s WALL (    1728 calls)
     addusdens    :      0.11s CPU      0.11s WALL (       8 calls)

     Called by *egterg:
     h_psi        :     72.83s CPU     73.43s WALL (    6044 calls)
     s_psi        :      6.10s CPU      6.15s WALL (    6044 calls)
     g_psi        :      0.32s CPU      0.33s WALL (    4100 calls)
     cdiaghg      :      1.05s CPU      1.06s WALL (    5612 calls)

     Called by h_psi:
     h_psi:pot    :     72.51s CPU     73.11s WALL (    6044 calls)
     h_psi:calbec :      7.75s CPU      7.80s WALL (    6044 calls)
     vloc_psi     :     58.64s CPU     59.14s WALL (    6044 calls)
     add_vuspsi   :      6.09s CPU      6.14s WALL (    6044 calls)

     General routines
     calbec       :     11.98s CPU     12.09s WALL (    8852 calls)
     fft          :      0.11s CPU      0.11s WALL (     114 calls)
     ffts         :      0.01s CPU      0.01s WALL (       8 calls)
     fftw         :     62.82s CPU     63.40s WALL (  115440 calls)

     Parallel routines

     PWSCF        :   2m 2.42s CPU   2m 3.71s WALL


   This run was terminated on:  13:29:58  14May2021            

=------------------------------------------------------------------------------=
   JOB DONE.
=------------------------------------------------------------------------------=
