
     Program PWSCF v.6.4.1 starts on  9Oct2020 at  2: 6:27 

     This program is part of the open-source Quantum ESPRESSO suite
     for quantum simulation of materials; please cite
         "P. Giannozzi et al., J. Phys.:Condens. Matter 21 395502 (2009);
         "P. Giannozzi et al., J. Phys.:Condens. Matter 29 465901 (2017);
          URL http://www.quantum-espresso.org", 
     in publications or presentations arising from this work. More details at
     http://www.quantum-espresso.org/quote

     Parallel version (MPI), running on     1 processors

     MPI processes distributed on     1 nodes
     Reading input from wd/ec/ec_1_001.in
Warning: card &IONS ignored
Warning: card ION_DYNAMICS = 'BFGS', ignored
Warning: card / ignored
Warning: card &CELL ignored
Warning: card CELL_DYNAMICS = 'BFGS', ignored
Warning: card CELL_FACTOR = 2.0, ignored
Warning: card PRESS = 0.0, ignored
Warning: card / ignored

     Current dimensions of program PWSCF are:
     Max number of different atomic species (ntypx) = 10
     Max number of k-points (npk) =  40000
     Max angular momentum in pseudopotentials (lmaxx) =  3
               file Al.pbe-nl-kjpaw_psl.1.0.0.UPF: wavefunction(s)  3S 3P renormalized

     Subspace diagonalization in iterative solution of the eigenvalue problem:
     a serial algorithm will be used

     Found symmetry operation: I + ( -0.5000 -0.5000  0.0000)
     This is a supercell, fractional translations are disabled
     Message from routine setup:
     DEPRECATED: symmetry with ibrav=0, use correct ibrav instead

     G-vector sticks info
     --------------------
     sticks:   dense  smooth     PW     G-vecs:    dense   smooth      PW
     Sum         277     277    121                 3431     3431    1021



     bravais-lattice index     =            0
     lattice parameter (alat)  =       7.6305  a.u.
     unit-cell volume          =     444.2769 (a.u.)^3
     number of atoms/cell      =            4
     number of atomic types    =            1
     number of electrons       =        12.00
     number of Kohn-Sham states=           10
     kinetic-energy cutoff     =      20.0000  Ry
     charge density cutoff     =      60.0000  Ry
     convergence threshold     =      1.0E-06
     mixing beta               =       0.1000
     number of iterations used =           10  TF        mixing
     Exchange-correlation      = SLA PW PBX PBC ( 1  4  3  4 0 0)

     celldm(1)=   7.630469  celldm(2)=   0.000000  celldm(3)=   0.000000
     celldm(4)=   0.000000  celldm(5)=   0.000000  celldm(6)=   0.000000

     crystal axes: (cart. coord. in units of alat)
               a(1) = (   1.000000   0.000000   0.000000 )  
               a(2) = (   0.000000   1.000000   0.000000 )  
               a(3) = (   0.000000   0.000000   1.000000 )  

     reciprocal axes: (cart. coord. in units 2 pi/alat)
               b(1) = (  1.000000  0.000000  0.000000 )  
               b(2) = (  0.000000  1.000000  0.000000 )  
               b(3) = (  0.000000  0.000000  1.000000 )  


     PseudoPot. # 1 for Al read from file:
     /opt/pp/Al.pbe-nl-kjpaw_psl.1.0.0.UPF
     MD5 check sum: 1b67f78b73fe58c7924490f171ce8a1e
     Pseudo is Projector augmented-wave + core cor, Zval =  3.0
     Generated using "atomic" code by A. Dal Corso v.6.3
     Shape of augmentation charge: PSQ
     Using radial grid of 1135 points,  4 beta functions with: 
                l(1) =   0
                l(2) =   0
                l(3) =   1
                l(4) =   1
     Q(r) pseudized with 0 coefficients 


     atomic species   valence    mass     pseudopotential
        Al             3.00    26.98200     Al( 1.00)

     48 Sym. Ops., with inversion, found



   Cartesian axes

     site n.     atom                  positions (alat units)
         1           Al  tau(   1) = (   0.0000000   0.0000000   0.0000000  )
         2           Al  tau(   2) = (   0.5000002   0.5000002   0.0000000  )
         3           Al  tau(   3) = (   0.5000002   0.0000000   0.4999995  )
         4           Al  tau(   4) = (   0.0000000   0.5000002   0.4999995  )

     number of k points=     4  Marzari-Vanderbilt smearing, width (Ry)=  0.0400
                       cart. coord. in units 2pi/alat
        k(    1) = (   0.1666667   0.1666667   0.1666667), wk =   0.5925926
        k(    2) = (   0.1666667   0.1666667  -0.5000000), wk =   0.8888889
        k(    3) = (   0.1666667  -0.5000000  -0.5000000), wk =   0.4444444
        k(    4) = (  -0.5000000  -0.5000000  -0.5000000), wk =   0.0740741

     Dense  grid:     3431 G-vectors     FFT dimensions: (  20,  20,  20)

     Estimated max dynamical RAM per process >       6.05 MB

     Initial potential from superposition of free atoms

     starting charge   11.99084, renormalised to   12.00000
     Starting wfcs are   16 randomized atomic wfcs
     Checking if some PAW data can be deallocated... 

     total cpu time spent up to now is        0.7 secs

     Self-consistent Calculation

     iteration #  1     ecut=    20.00 Ry     beta= 0.10
     Davidson diagonalization with overlap
     ethr =  1.00E-02,  avg # of iterations =  2.8

     Threshold (ethr) on eigenvalues was too large:
     Diagonalizing with lowered threshold

     Davidson diagonalization with overlap
     ethr =  1.88E-04,  avg # of iterations =  2.2

     total cpu time spent up to now is        0.9 secs

     total energy              =    -158.05041316 Ry
     Harris-Foulkes estimate   =    -158.05106467 Ry
     estimated scf accuracy    <       0.02179915 Ry

     iteration #  2     ecut=    20.00 Ry     beta= 0.10
     Davidson diagonalization with overlap
     ethr =  1.82E-04,  avg # of iterations =  1.0

     total cpu time spent up to now is        1.0 secs

     total energy              =    -158.04523264 Ry
     Harris-Foulkes estimate   =    -158.05052508 Ry
     estimated scf accuracy    <       0.01880709 Ry

     iteration #  3     ecut=    20.00 Ry     beta= 0.10
     Davidson diagonalization with overlap
     ethr =  1.57E-04,  avg # of iterations =  1.0

     total cpu time spent up to now is        1.2 secs

     total energy              =    -158.04542404 Ry
     Harris-Foulkes estimate   =    -158.04546309 Ry
     estimated scf accuracy    <       0.00007815 Ry

     iteration #  4     ecut=    20.00 Ry     beta= 0.10
     Davidson diagonalization with overlap
     ethr =  6.51E-07,  avg # of iterations =  4.2

     total cpu time spent up to now is        1.4 secs

     total energy              =    -158.04556045 Ry
     Harris-Foulkes estimate   =    -158.04547222 Ry
     estimated scf accuracy    <       0.00004719 Ry

     iteration #  5     ecut=    20.00 Ry     beta= 0.10
     Davidson diagonalization with overlap
     ethr =  3.93E-07,  avg # of iterations =  1.0

     total cpu time spent up to now is        1.6 secs

     total energy              =    -158.04552053 Ry
     Harris-Foulkes estimate   =    -158.04556201 Ry
     estimated scf accuracy    <       0.00009206 Ry

     iteration #  6     ecut=    20.00 Ry     beta= 0.10
     Davidson diagonalization with overlap
     ethr =  3.93E-07,  avg # of iterations =  1.2

     total cpu time spent up to now is        1.7 secs

     End of self-consistent calculation

          k = 0.1667 0.1667 0.1667 (   687 PWs)   bands (ev):

    -2.4689   3.4102   3.4102   3.4102   8.9774   8.9774   8.9775   9.4566
     9.4566   9.4566

          k = 0.1667 0.1667-0.5000 (   658 PWs)   bands (ev):

    -0.4744  -0.4743   5.1908   5.1908   5.4695   5.4696  10.9568  10.9569
    10.9583  10.9584

          k = 0.1667-0.5000-0.5000 (   664 PWs)   bands (ev):

     1.4929   1.4930   1.4930   1.4932   7.2373   7.2374   7.2374   7.2375
    13.0684  13.0685

          k =-0.5000-0.5000-0.5000 (   672 PWs)   bands (ev):

     3.3266   3.3268   3.3268   3.3268   3.5557   3.5557   3.5557   3.5560
    19.3605  19.3606

     the Fermi energy is     8.5734 ev

!    total energy              =    -158.04552299 Ry
     Harris-Foulkes estimate   =    -158.04552374 Ry
     estimated scf accuracy    <       0.00000098 Ry

     total all-electron energy =     -1942.616645 Ry

     The total energy is the sum of the following terms:

     one-electron contribution =      12.64915456 Ry
     hartree contribution      =       0.02534138 Ry
     xc contribution           =     -10.37002341 Ry
     ewald contribution        =     -21.63104700 Ry
     one-center paw contrib.   =    -138.71596401 Ry
     smearing contrib. (-TS)   =      -0.00298451 Ry

     convergence has been achieved in   6 iterations

     Forces acting on atoms (cartesian axes, Ry/au):

     atom    1 type  1   force =     0.00000000    0.00000000    0.00000000
     atom    2 type  1   force =     0.00000000    0.00000000    0.00000000
     atom    3 type  1   force =     0.00000000    0.00000000    0.00000000
     atom    4 type  1   force =     0.00000000    0.00000000    0.00000000

     Total force =     0.000000     Total SCF correction =     0.000000


     Computing stress (Cartesian axis) and pressure

          total   stress  (Ry/bohr**3)                   (kbar)     P=   -0.37
  -0.00000251   0.00000000   0.00000000         -0.37      0.00      0.00
   0.00000000  -0.00000251   0.00000000          0.00     -0.37      0.00
   0.00000000   0.00000000  -0.00000251          0.00      0.00     -0.37


     Writing output data file ipuvFIbjGFLoKRSm.save/

     init_run     :      0.26s CPU      0.28s WALL (       1 calls)
     electrons    :      1.08s CPU      1.09s WALL (       1 calls)
     forces       :      0.02s CPU      0.02s WALL (       1 calls)
     stress       :      0.03s CPU      0.03s WALL (       1 calls)

     Called by init_run:
     wfcinit      :      0.01s CPU      0.02s WALL (       1 calls)
     potinit      :      0.14s CPU      0.15s WALL (       1 calls)
     hinit0       :      0.10s CPU      0.11s WALL (       1 calls)

     Called by electrons:
     c_bands      :      0.16s CPU      0.17s WALL (       7 calls)
     sum_band     :      0.04s CPU      0.04s WALL (       7 calls)
     v_of_rho     :      0.02s CPU      0.02s WALL (       7 calls)
     newd         :      0.01s CPU      0.01s WALL (       7 calls)
     PAW_pot      :      0.98s CPU      0.99s WALL (       7 calls)
     mix_rho      :      0.00s CPU      0.00s WALL (       7 calls)

     Called by c_bands:
     init_us_2    :      0.01s CPU      0.01s WALL (      68 calls)
     cegterg      :      0.15s CPU      0.15s WALL (      28 calls)

     Called by sum_band:
     sum_band:bec :      0.00s CPU      0.00s WALL (      28 calls)
     addusdens    :      0.01s CPU      0.01s WALL (       7 calls)

     Called by *egterg:
     h_psi        :      0.09s CPU      0.09s WALL (      86 calls)
     s_psi        :      0.02s CPU      0.02s WALL (      86 calls)
     g_psi        :      0.00s CPU      0.00s WALL (      54 calls)
     cdiaghg      :      0.01s CPU      0.01s WALL (      78 calls)

     Called by h_psi:
     h_psi:pot    :      0.09s CPU      0.09s WALL (      86 calls)
     h_psi:calbec :      0.02s CPU      0.02s WALL (      86 calls)
     vloc_psi     :      0.05s CPU      0.05s WALL (      86 calls)
     add_vuspsi   :      0.02s CPU      0.02s WALL (      86 calls)

     General routines
     calbec       :      0.04s CPU      0.04s WALL (     134 calls)
     fft          :      0.00s CPU      0.01s WALL (     103 calls)
     ffts         :      0.00s CPU      0.00s WALL (       7 calls)
     fftw         :      0.04s CPU      0.04s WALL (    1770 calls)

     Parallel routines

     PWSCF        :      1.74s CPU      1.81s WALL


   This run was terminated on:   2: 6:29   9Oct2020            

=------------------------------------------------------------------------------=
   JOB DONE.
=------------------------------------------------------------------------------=
