
     Program PWSCF v.6.4.1 starts on  9Oct2020 at  2: 6:30 

     This program is part of the open-source Quantum ESPRESSO suite
     for quantum simulation of materials; please cite
         "P. Giannozzi et al., J. Phys.:Condens. Matter 21 395502 (2009);
         "P. Giannozzi et al., J. Phys.:Condens. Matter 29 465901 (2017);
          URL http://www.quantum-espresso.org", 
     in publications or presentations arising from this work. More details at
     http://www.quantum-espresso.org/quote

     Parallel version (MPI), running on     1 processors

     MPI processes distributed on     1 nodes
     Reading input from wd/ec/ec_1_002.in
Warning: card &IONS ignored
Warning: card ION_DYNAMICS = 'BFGS', ignored
Warning: card / ignored
Warning: card &CELL ignored
Warning: card CELL_DYNAMICS = 'BFGS', ignored
Warning: card CELL_FACTOR = 2.0, ignored
Warning: card PRESS = 0.0, ignored
Warning: card / ignored

     Current dimensions of program PWSCF are:
     Max number of different atomic species (ntypx) = 10
     Max number of k-points (npk) =  40000
     Max angular momentum in pseudopotentials (lmaxx) =  3
               file Al.pbe-nl-kjpaw_psl.1.0.0.UPF: wavefunction(s)  3S 3P renormalized

     Subspace diagonalization in iterative solution of the eigenvalue problem:
     a serial algorithm will be used

     Found symmetry operation: I + ( -0.5000 -0.5000  0.0000)
     This is a supercell, fractional translations are disabled
     Message from routine setup:
     DEPRECATED: symmetry with ibrav=0, use correct ibrav instead

     G-vector sticks info
     --------------------
     sticks:   dense  smooth     PW     G-vecs:    dense   smooth      PW
     Sum         277     277    121                 3431     3431    1021



     bravais-lattice index     =            0
     lattice parameter (alat)  =       7.6305  a.u.
     unit-cell volume          =     444.8692 (a.u.)^3
     number of atoms/cell      =            4
     number of atomic types    =            1
     number of electrons       =        12.00
     number of Kohn-Sham states=           10
     kinetic-energy cutoff     =      20.0000  Ry
     charge density cutoff     =      60.0000  Ry
     convergence threshold     =      1.0E-06
     mixing beta               =       0.1000
     number of iterations used =           10  TF        mixing
     Exchange-correlation      = SLA PW PBX PBC ( 1  4  3  4 0 0)

     celldm(1)=   7.630469  celldm(2)=   0.000000  celldm(3)=   0.000000
     celldm(4)=   0.000000  celldm(5)=   0.000000  celldm(6)=   0.000000

     crystal axes: (cart. coord. in units of alat)
               a(1) = (   1.001333   0.000000   0.000000 )  
               a(2) = (   0.000000   1.000000   0.000000 )  
               a(3) = (   0.000000   0.000000   1.000000 )  

     reciprocal axes: (cart. coord. in units 2 pi/alat)
               b(1) = (  0.998668  0.000000  0.000000 )  
               b(2) = (  0.000000  1.000000  0.000000 )  
               b(3) = (  0.000000  0.000000  1.000000 )  


     PseudoPot. # 1 for Al read from file:
     /opt/pp/Al.pbe-nl-kjpaw_psl.1.0.0.UPF
     MD5 check sum: 1b67f78b73fe58c7924490f171ce8a1e
     Pseudo is Projector augmented-wave + core cor, Zval =  3.0
     Generated using "atomic" code by A. Dal Corso v.6.3
     Shape of augmentation charge: PSQ
     Using radial grid of 1135 points,  4 beta functions with: 
                l(1) =   0
                l(2) =   0
                l(3) =   1
                l(4) =   1
     Q(r) pseudized with 0 coefficients 


     atomic species   valence    mass     pseudopotential
        Al             3.00    26.98200     Al( 1.00)

     16 Sym. Ops., with inversion, found



   Cartesian axes

     site n.     atom                  positions (alat units)
         1           Al  tau(   1) = (   0.0000000   0.0000000   0.0000000  )
         2           Al  tau(   2) = (   0.5006669   0.5000002   0.0000000  )
         3           Al  tau(   3) = (   0.5006669   0.0000000   0.4999995  )
         4           Al  tau(   4) = (   0.0000000   0.5000002   0.4999995  )

     number of k points=     6  Marzari-Vanderbilt smearing, width (Ry)=  0.0400
                       cart. coord. in units 2pi/alat
        k(    1) = (   0.1664447   0.1666667   0.1666667), wk =   0.5925926
        k(    2) = (   0.1664447   0.1666667  -0.5000000), wk =   0.5925926
        k(    3) = (   0.1664447  -0.5000000  -0.5000000), wk =   0.1481481
        k(    4) = (  -0.4993342   0.1666667   0.1666667), wk =   0.2962963
        k(    5) = (  -0.4993342   0.1666667  -0.5000000), wk =   0.2962963
        k(    6) = (  -0.4993342  -0.5000000  -0.5000000), wk =   0.0740741

     Dense  grid:     3431 G-vectors     FFT dimensions: (  20,  20,  20)

     Estimated max dynamical RAM per process >       6.25 MB

     Initial potential from superposition of free atoms

     starting charge   11.99084, renormalised to   12.00000
     Starting wfcs are   16 randomized atomic wfcs
     Checking if some PAW data can be deallocated... 

     total cpu time spent up to now is        0.6 secs

     Self-consistent Calculation

     iteration #  1     ecut=    20.00 Ry     beta= 0.10
     Davidson diagonalization with overlap
     ethr =  1.00E-02,  avg # of iterations =  2.8

     Threshold (ethr) on eigenvalues was too large:
     Diagonalizing with lowered threshold

     Davidson diagonalization with overlap
     ethr =  1.88E-04,  avg # of iterations =  2.3

     total cpu time spent up to now is        0.9 secs

     total energy              =    -158.05043083 Ry
     Harris-Foulkes estimate   =    -158.05108718 Ry
     estimated scf accuracy    <       0.02181180 Ry

     iteration #  2     ecut=    20.00 Ry     beta= 0.10
     Davidson diagonalization with overlap
     ethr =  1.82E-04,  avg # of iterations =  1.0

     total cpu time spent up to now is        1.1 secs

     total energy              =    -158.04523173 Ry
     Harris-Foulkes estimate   =    -158.05054133 Ry
     estimated scf accuracy    <       0.01881579 Ry

     iteration #  3     ecut=    20.00 Ry     beta= 0.10
     Davidson diagonalization with overlap
     ethr =  1.57E-04,  avg # of iterations =  1.0

     total cpu time spent up to now is        1.3 secs

     total energy              =    -158.04542197 Ry
     Harris-Foulkes estimate   =    -158.04546315 Ry
     estimated scf accuracy    <       0.00008071 Ry

     iteration #  4     ecut=    20.00 Ry     beta= 0.10
     Davidson diagonalization with overlap
     ethr =  6.73E-07,  avg # of iterations =  4.5

     total cpu time spent up to now is        1.5 secs

     total energy              =    -158.04554282 Ry
     Harris-Foulkes estimate   =    -158.04547166 Ry
     estimated scf accuracy    <       0.00004876 Ry

     iteration #  5     ecut=    20.00 Ry     beta= 0.10
     Davidson diagonalization with overlap
     ethr =  4.06E-07,  avg # of iterations =  1.0

     total cpu time spent up to now is        1.7 secs

     total energy              =    -158.04551399 Ry
     Harris-Foulkes estimate   =    -158.04554390 Ry
     estimated scf accuracy    <       0.00005940 Ry

     iteration #  6     ecut=    20.00 Ry     beta= 0.10
     Davidson diagonalization with overlap
     ethr =  4.06E-07,  avg # of iterations =  2.0

     total cpu time spent up to now is        1.8 secs

     End of self-consistent calculation

          k = 0.1664 0.1667 0.1667 (   687 PWs)   bands (ev):

    -2.4742   3.3901   3.4051   3.4052   8.9629   8.9632   8.9662   9.4264
     9.4463   9.4464

          k = 0.1664 0.1667-0.5000 (   658 PWs)   bands (ev):

    -0.4798  -0.4794   5.1797   5.1800   5.4553   5.4559  10.9384  10.9386
    10.9388  10.9393

          k = 0.1664-0.5000-0.5000 (   664 PWs)   bands (ev):

     1.4874   1.4879   1.4879   1.4882   7.2171   7.2178   7.2178   7.2180
    13.0320  13.0323

          k =-0.4993 0.1667 0.1667 (   658 PWs)   bands (ev):

    -0.4851  -0.4846   5.1823   5.1825   5.4575   5.4582  10.9483  10.9488
    10.9494  10.9495

          k =-0.4993 0.1667-0.5000 (   664 PWs)   bands (ev):

     1.4822   1.4827   1.4828   1.4831   7.2267   7.2274   7.2274   7.2277
    13.0580  13.0585

          k =-0.4993-0.5000-0.5000 (   672 PWs)   bands (ev):

     3.3181   3.3181   3.3181   3.3186   3.5427   3.5439   3.5439   3.5439
    19.3181  19.3209

     the Fermi energy is     8.5599 ev

!    total energy              =    -158.04551791 Ry
     Harris-Foulkes estimate   =    -158.04551883 Ry
     estimated scf accuracy    <       0.00000055 Ry

     total all-electron energy =     -1942.616640 Ry

     The total energy is the sum of the following terms:

     one-electron contribution =      12.63646684 Ry
     hartree contribution      =       0.02530189 Ry
     xc contribution           =     -10.36721950 Ry
     ewald contribution        =     -21.62144115 Ry
     one-center paw contrib.   =    -138.71564142 Ry
     smearing contrib. (-TS)   =      -0.00298457 Ry

     convergence has been achieved in   6 iterations

     Forces acting on atoms (cartesian axes, Ry/au):

     atom    1 type  1   force =     0.00000000    0.00000000    0.00000000
     atom    2 type  1   force =     0.00000000    0.00000000    0.00000000
     atom    3 type  1   force =     0.00000000    0.00000000    0.00000000
     atom    4 type  1   force =     0.00000000    0.00000000    0.00000000

     Total force =     0.000000     Total SCF correction =     0.000000


     Computing stress (Cartesian axis) and pressure

          total   stress  (Ry/bohr**3)                   (kbar)     P=   -1.25
  -0.00002114   0.00000000   0.00000000         -3.11      0.00      0.00
   0.00000000  -0.00000213   0.00000000          0.00     -0.31      0.00
   0.00000000   0.00000000  -0.00000213          0.00      0.00     -0.31


     Writing output data file fsNhSblrcLRfOczr.save/

     init_run     :      0.29s CPU      0.29s WALL (       1 calls)
     electrons    :      1.19s CPU      1.20s WALL (       1 calls)
     forces       :      0.03s CPU      0.03s WALL (       1 calls)
     stress       :      0.05s CPU      0.05s WALL (       1 calls)

     Called by init_run:
     wfcinit      :      0.02s CPU      0.02s WALL (       1 calls)
     potinit      :      0.15s CPU      0.16s WALL (       1 calls)
     hinit0       :      0.10s CPU      0.10s WALL (       1 calls)

     Called by electrons:
     c_bands      :      0.24s CPU      0.25s WALL (       7 calls)
     sum_band     :      0.04s CPU      0.04s WALL (       7 calls)
     v_of_rho     :      0.02s CPU      0.02s WALL (       7 calls)
     newd         :      0.02s CPU      0.02s WALL (       7 calls)
     PAW_pot      :      1.01s CPU      1.02s WALL (       7 calls)
     mix_rho      :      0.00s CPU      0.00s WALL (       7 calls)

     Called by c_bands:
     init_us_2    :      0.01s CPU      0.01s WALL (     102 calls)
     cegterg      :      0.23s CPU      0.23s WALL (      42 calls)

     Called by sum_band:
     sum_band:bec :      0.00s CPU      0.00s WALL (      42 calls)
     addusdens    :      0.01s CPU      0.01s WALL (       7 calls)

     Called by *egterg:
     h_psi        :      0.13s CPU      0.14s WALL (     136 calls)
     s_psi        :      0.03s CPU      0.03s WALL (     136 calls)
     g_psi        :      0.00s CPU      0.00s WALL (      88 calls)
     cdiaghg      :      0.02s CPU      0.02s WALL (     124 calls)

     Called by h_psi:
     h_psi:pot    :      0.13s CPU      0.13s WALL (     136 calls)
     h_psi:calbec :      0.03s CPU      0.03s WALL (     136 calls)
     vloc_psi     :      0.07s CPU      0.07s WALL (     136 calls)
     add_vuspsi   :      0.03s CPU      0.03s WALL (     136 calls)

     General routines
     calbec       :      0.05s CPU      0.05s WALL (     208 calls)
     fft          :      0.00s CPU      0.00s WALL (     103 calls)
     ffts         :      0.00s CPU      0.00s WALL (       7 calls)
     fftw         :      0.06s CPU      0.06s WALL (    2700 calls)

     Parallel routines

     PWSCF        :      1.91s CPU      1.92s WALL


   This run was terminated on:   2: 6:32   9Oct2020            

=------------------------------------------------------------------------------=
   JOB DONE.
=------------------------------------------------------------------------------=
