
     Program PWSCF v.6.4.1 starts on  9Oct2020 at  2: 6:46 

     This program is part of the open-source Quantum ESPRESSO suite
     for quantum simulation of materials; please cite
         "P. Giannozzi et al., J. Phys.:Condens. Matter 21 395502 (2009);
         "P. Giannozzi et al., J. Phys.:Condens. Matter 29 465901 (2017);
          URL http://www.quantum-espresso.org", 
     in publications or presentations arising from this work. More details at
     http://www.quantum-espresso.org/quote

     Parallel version (MPI), running on     1 processors

     MPI processes distributed on     1 nodes
     Reading input from wd/ec/ec_2_003.in
Warning: card &IONS ignored
Warning: card ION_DYNAMICS = 'BFGS', ignored
Warning: card / ignored
Warning: card &CELL ignored
Warning: card CELL_DYNAMICS = 'BFGS', ignored
Warning: card CELL_FACTOR = 2.0, ignored
Warning: card PRESS = 0.0, ignored
Warning: card / ignored

     Current dimensions of program PWSCF are:
     Max number of different atomic species (ntypx) = 10
     Max number of k-points (npk) =  40000
     Max angular momentum in pseudopotentials (lmaxx) =  3
               file Al.pbe-nl-kjpaw_psl.1.0.0.UPF: wavefunction(s)  3S 3P renormalized

     Subspace diagonalization in iterative solution of the eigenvalue problem:
     a serial algorithm will be used

     Found symmetry operation: I + ( -0.5000 -0.5000  0.0000)
     This is a supercell, fractional translations are disabled
     Message from routine setup:
     DEPRECATED: symmetry with ibrav=0, use correct ibrav instead

     G-vector sticks info
     --------------------
     sticks:   dense  smooth     PW     G-vecs:    dense   smooth      PW
     Sum         277     277    121                 3431     3431    1021



     bravais-lattice index     =            0
     lattice parameter (alat)  =       7.6305  a.u.
     unit-cell volume          =     445.4616 (a.u.)^3
     number of atoms/cell      =            4
     number of atomic types    =            1
     number of electrons       =        12.00
     number of Kohn-Sham states=           10
     kinetic-energy cutoff     =      20.0000  Ry
     charge density cutoff     =      60.0000  Ry
     convergence threshold     =      1.0E-06
     mixing beta               =       0.1000
     number of iterations used =           10  TF        mixing
     Exchange-correlation      = SLA PW PBX PBC ( 1  4  3  4 0 0)

     celldm(1)=   7.630469  celldm(2)=   0.000000  celldm(3)=   0.000000
     celldm(4)=   0.000000  celldm(5)=   0.000000  celldm(6)=   0.000000

     crystal axes: (cart. coord. in units of alat)
               a(1) = (   1.000000   0.000000   0.000000 )  
               a(2) = (   0.000000   1.002667   0.000000 )  
               a(3) = (   0.000000   0.000000   1.000000 )  

     reciprocal axes: (cart. coord. in units 2 pi/alat)
               b(1) = (  1.000000  0.000000  0.000000 )  
               b(2) = (  0.000000  0.997340  0.000000 )  
               b(3) = (  0.000000  0.000000  1.000000 )  


     PseudoPot. # 1 for Al read from file:
     /opt/pp/Al.pbe-nl-kjpaw_psl.1.0.0.UPF
     MD5 check sum: 1b67f78b73fe58c7924490f171ce8a1e
     Pseudo is Projector augmented-wave + core cor, Zval =  3.0
     Generated using "atomic" code by A. Dal Corso v.6.3
     Shape of augmentation charge: PSQ
     Using radial grid of 1135 points,  4 beta functions with: 
                l(1) =   0
                l(2) =   0
                l(3) =   1
                l(4) =   1
     Q(r) pseudized with 0 coefficients 


     atomic species   valence    mass     pseudopotential
        Al             3.00    26.98200     Al( 1.00)

     16 Sym. Ops., with inversion, found



   Cartesian axes

     site n.     atom                  positions (alat units)
         1           Al  tau(   1) = (   0.0000000   0.0000000   0.0000000  )
         2           Al  tau(   2) = (   0.5000002   0.5013335   0.0000000  )
         3           Al  tau(   3) = (   0.5000002   0.0000000   0.4999995  )
         4           Al  tau(   4) = (   0.0000000   0.5013335   0.4999995  )

     number of k points=     6  Marzari-Vanderbilt smearing, width (Ry)=  0.0400
                       cart. coord. in units 2pi/alat
        k(    1) = (   0.1666667   0.1662234   0.1666667), wk =   0.5925926
        k(    2) = (   0.1666667   0.1662234  -0.5000000), wk =   0.5925926
        k(    3) = (   0.1666667  -0.4986702   0.1666667), wk =   0.2962963
        k(    4) = (   0.1666667  -0.4986702  -0.5000000), wk =   0.2962963
        k(    5) = (  -0.5000000   0.1662234  -0.5000000), wk =   0.1481481
        k(    6) = (  -0.5000000  -0.4986702  -0.5000000), wk =   0.0740741

     Dense  grid:     3431 G-vectors     FFT dimensions: (  20,  20,  20)

     Estimated max dynamical RAM per process >       6.25 MB

     Initial potential from superposition of free atoms

     starting charge   11.99084, renormalised to   12.00000
     Starting wfcs are   16 randomized atomic wfcs
     Checking if some PAW data can be deallocated... 

     total cpu time spent up to now is        0.6 secs

     Self-consistent Calculation

     iteration #  1     ecut=    20.00 Ry     beta= 0.10
     Davidson diagonalization with overlap
     ethr =  1.00E-02,  avg # of iterations =  2.8

     Threshold (ethr) on eigenvalues was too large:
     Diagonalizing with lowered threshold

     Davidson diagonalization with overlap
     ethr =  1.88E-04,  avg # of iterations =  2.3

     total cpu time spent up to now is        0.8 secs

     total energy              =    -158.05040603 Ry
     Harris-Foulkes estimate   =    -158.05105983 Ry
     estimated scf accuracy    <       0.02182398 Ry

     iteration #  2     ecut=    20.00 Ry     beta= 0.10
     Davidson diagonalization with overlap
     ethr =  1.82E-04,  avg # of iterations =  1.0

     total cpu time spent up to now is        1.0 secs

     total energy              =    -158.04520739 Ry
     Harris-Foulkes estimate   =    -158.05051559 Ry
     estimated scf accuracy    <       0.01883099 Ry

     iteration #  3     ecut=    20.00 Ry     beta= 0.10
     Davidson diagonalization with overlap
     ethr =  1.57E-04,  avg # of iterations =  1.0

     total cpu time spent up to now is        1.2 secs

     total energy              =    -158.04539925 Ry
     Harris-Foulkes estimate   =    -158.04543870 Ry
     estimated scf accuracy    <       0.00007855 Ry

     iteration #  4     ecut=    20.00 Ry     beta= 0.10
     Davidson diagonalization with overlap
     ethr =  6.55E-07,  avg # of iterations =  4.2

     total cpu time spent up to now is        1.4 secs

     total energy              =    -158.04553626 Ry
     Harris-Foulkes estimate   =    -158.04545038 Ry
     estimated scf accuracy    <       0.00004739 Ry

     iteration #  5     ecut=    20.00 Ry     beta= 0.10
     Davidson diagonalization with overlap
     ethr =  3.95E-07,  avg # of iterations =  1.2

     total cpu time spent up to now is        1.6 secs

     total energy              =    -158.04549737 Ry
     Harris-Foulkes estimate   =    -158.04553752 Ry
     estimated scf accuracy    <       0.00008334 Ry

     iteration #  6     ecut=    20.00 Ry     beta= 0.10
     Davidson diagonalization with overlap
     ethr =  3.95E-07,  avg # of iterations =  1.2

     total cpu time spent up to now is        1.7 secs

     End of self-consistent calculation

          k = 0.1667 0.1662 0.1667 (   687 PWs)   bands (ev):

    -2.4794   3.3702   3.4002   3.4003   8.9486   8.9487   8.9544   9.3973
     9.4366   9.4367

          k = 0.1667 0.1662-0.5000 (   658 PWs)   bands (ev):

    -0.4847  -0.4847   5.1685   5.1685   5.4424   5.4425  10.9193  10.9194
    10.9200  10.9201

          k = 0.1667-0.4987 0.1667 (   658 PWs)   bands (ev):

    -0.4953  -0.4951   5.1740   5.1741   5.4463   5.4466  10.9388  10.9390
    10.9421  11.5053

          k = 0.1667-0.4987-0.5000 (   664 PWs)   bands (ev):

     1.4724   1.4725   1.4726   1.4727   7.2173   7.2173   7.2175   7.2176
    13.0483  13.0484

          k =-0.5000 0.1662-0.5000 (   664 PWs)   bands (ev):

     1.4828   1.4828   1.4828   1.4829   7.1981   7.1981   7.1982   7.1983
    12.9962  12.9962

          k =-0.5000-0.4987-0.5000 (   672 PWs)   bands (ev):

     3.3098   3.3099   3.3099   3.3099   3.5316   3.5316   3.5318   3.5320
    19.2719  19.2751

     the Fermi energy is     8.5460 ev

!    total energy              =    -158.04550028 Ry
     Harris-Foulkes estimate   =    -158.04550102 Ry
     estimated scf accuracy    <       0.00000080 Ry

     total all-electron energy =     -1942.616622 Ry

     The total energy is the sum of the following terms:

     one-electron contribution =      12.62334540 Ry
     hartree contribution      =       0.02527148 Ry
     xc contribution           =     -10.36429236 Ry
     ewald contribution        =     -21.61185112 Ry
     one-center paw contrib.   =    -138.71500118 Ry
     smearing contrib. (-TS)   =      -0.00297249 Ry

     convergence has been achieved in   6 iterations

     Forces acting on atoms (cartesian axes, Ry/au):

     atom    1 type  1   force =     0.00000000    0.00000000    0.00000000
     atom    2 type  1   force =     0.00000000    0.00000000    0.00000000
     atom    3 type  1   force =     0.00000000    0.00000000    0.00000000
     atom    4 type  1   force =     0.00000000    0.00000000    0.00000000

     Total force =     0.000000     Total SCF correction =     0.000000


     Computing stress (Cartesian axis) and pressure

          total   stress  (Ry/bohr**3)                   (kbar)     P=   -2.58
  -0.00000494   0.00000000   0.00000000         -0.73      0.00      0.00
   0.00000000  -0.00004265   0.00000000          0.00     -6.27      0.00
   0.00000000   0.00000000  -0.00000494          0.00      0.00     -0.73


     Writing output data file lBypKllfryVJRqli.save/

     init_run     :      0.26s CPU      0.27s WALL (       1 calls)
     electrons    :      1.13s CPU      1.13s WALL (       1 calls)
     forces       :      0.02s CPU      0.02s WALL (       1 calls)
     stress       :      0.06s CPU      0.06s WALL (       1 calls)

     Called by init_run:
     wfcinit      :      0.02s CPU      0.02s WALL (       1 calls)
     potinit      :      0.14s CPU      0.14s WALL (       1 calls)
     hinit0       :      0.10s CPU      0.10s WALL (       1 calls)

     Called by electrons:
     c_bands      :      0.23s CPU      0.23s WALL (       7 calls)
     sum_band     :      0.04s CPU      0.04s WALL (       7 calls)
     v_of_rho     :      0.02s CPU      0.02s WALL (       7 calls)
     newd         :      0.01s CPU      0.01s WALL (       7 calls)
     PAW_pot      :      0.96s CPU      0.96s WALL (       7 calls)
     mix_rho      :      0.00s CPU      0.00s WALL (       7 calls)

     Called by c_bands:
     init_us_2    :      0.01s CPU      0.01s WALL (     102 calls)
     cegterg      :      0.21s CPU      0.21s WALL (      42 calls)

     Called by sum_band:
     sum_band:bec :      0.00s CPU      0.00s WALL (      42 calls)
     addusdens    :      0.01s CPU      0.01s WALL (       7 calls)

     Called by *egterg:
     h_psi        :      0.12s CPU      0.12s WALL (     130 calls)
     s_psi        :      0.03s CPU      0.03s WALL (     130 calls)
     g_psi        :      0.00s CPU      0.00s WALL (      82 calls)
     cdiaghg      :      0.02s CPU      0.02s WALL (     118 calls)

     Called by h_psi:
     h_psi:pot    :      0.12s CPU      0.12s WALL (     130 calls)
     h_psi:calbec :      0.03s CPU      0.03s WALL (     130 calls)
     vloc_psi     :      0.06s CPU      0.06s WALL (     130 calls)
     add_vuspsi   :      0.03s CPU      0.03s WALL (     130 calls)

     General routines
     calbec       :      0.05s CPU      0.05s WALL (     202 calls)
     fft          :      0.00s CPU      0.00s WALL (     103 calls)
     ffts         :      0.00s CPU      0.00s WALL (       7 calls)
     fftw         :      0.06s CPU      0.06s WALL (    2658 calls)

     Parallel routines

     PWSCF        :      1.80s CPU      1.82s WALL


   This run was terminated on:   2: 6:47   9Oct2020            

=------------------------------------------------------------------------------=
   JOB DONE.
=------------------------------------------------------------------------------=
