
     Program PWSCF v.6.4.1 starts on  9Oct2020 at  2: 7:26 

     This program is part of the open-source Quantum ESPRESSO suite
     for quantum simulation of materials; please cite
         "P. Giannozzi et al., J. Phys.:Condens. Matter 21 395502 (2009);
         "P. Giannozzi et al., J. Phys.:Condens. Matter 29 465901 (2017);
          URL http://www.quantum-espresso.org", 
     in publications or presentations arising from this work. More details at
     http://www.quantum-espresso.org/quote

     Parallel version (MPI), running on     1 processors

     MPI processes distributed on     1 nodes
     Reading input from wd/ec/ec_5_004.in
Warning: card &IONS ignored
Warning: card ION_DYNAMICS = 'BFGS', ignored
Warning: card / ignored
Warning: card &CELL ignored
Warning: card CELL_DYNAMICS = 'BFGS', ignored
Warning: card CELL_FACTOR = 2.0, ignored
Warning: card PRESS = 0.0, ignored
Warning: card / ignored

     Current dimensions of program PWSCF are:
     Max number of different atomic species (ntypx) = 10
     Max number of k-points (npk) =  40000
     Max angular momentum in pseudopotentials (lmaxx) =  3
               file Al.pbe-nl-kjpaw_psl.1.0.0.UPF: wavefunction(s)  3S 3P renormalized

     Subspace diagonalization in iterative solution of the eigenvalue problem:
     a serial algorithm will be used

     Found symmetry operation: I + ( -0.5000 -0.5000  0.0000)
     This is a supercell, fractional translations are disabled
     Message from routine setup:
     DEPRECATED: symmetry with ibrav=0, use correct ibrav instead

     G-vector sticks info
     --------------------
     sticks:   dense  smooth     PW     G-vecs:    dense   smooth      PW
     Sum         277     277    121                 3439     3439    1021



     bravais-lattice index     =            0
     lattice parameter (alat)  =       7.6305  a.u.
     unit-cell volume          =     444.2769 (a.u.)^3
     number of atoms/cell      =            4
     number of atomic types    =            1
     number of electrons       =        12.00
     number of Kohn-Sham states=           10
     kinetic-energy cutoff     =      20.0000  Ry
     charge density cutoff     =      60.0000  Ry
     convergence threshold     =      1.0E-06
     mixing beta               =       0.1000
     number of iterations used =           10  TF        mixing
     Exchange-correlation      = SLA PW PBX PBC ( 1  4  3  4 0 0)

     celldm(1)=   7.630469  celldm(2)=   0.000000  celldm(3)=   0.000000
     celldm(4)=   0.000000  celldm(5)=   0.000000  celldm(6)=   0.000000

     crystal axes: (cart. coord. in units of alat)
               a(1) = (   1.000005   0.000000   0.004000 )  
               a(2) = (   0.000000   1.000005   0.000000 )  
               a(3) = (   0.004000   0.000000   1.000005 )  

     reciprocal axes: (cart. coord. in units 2 pi/alat)
               b(1) = (  1.000011  0.000000 -0.004000 )  
               b(2) = (  0.000000  0.999995  0.000000 )  
               b(3) = ( -0.004000  0.000000  1.000011 )  


     PseudoPot. # 1 for Al read from file:
     /opt/pp/Al.pbe-nl-kjpaw_psl.1.0.0.UPF
     MD5 check sum: 1b67f78b73fe58c7924490f171ce8a1e
     Pseudo is Projector augmented-wave + core cor, Zval =  3.0
     Generated using "atomic" code by A. Dal Corso v.6.3
     Shape of augmentation charge: PSQ
     Using radial grid of 1135 points,  4 beta functions with: 
                l(1) =   0
                l(2) =   0
                l(3) =   1
                l(4) =   1
     Q(r) pseudized with 0 coefficients 


     atomic species   valence    mass     pseudopotential
        Al             3.00    26.98200     Al( 1.00)

      8 Sym. Ops., with inversion, found



   Cartesian axes

     site n.     atom                  positions (alat units)
         1           Al  tau(   1) = (   0.0000000   0.0000000   0.0000000  )
         2           Al  tau(   2) = (   0.5000029   0.5000029   0.0020000  )
         3           Al  tau(   3) = (   0.5020029   0.0000000   0.5020022  )
         4           Al  tau(   4) = (   0.0020000   0.5000029   0.5000022  )

     number of k points=     8  Marzari-Vanderbilt smearing, width (Ry)=  0.0400
                       cart. coord. in units 2pi/alat
        k(    1) = (   0.1660018   0.1666658   0.1660018), wk =   0.2962963
        k(    2) = (   0.1686685   0.1666658  -0.5006720), wk =   0.5925926
        k(    3) = (   0.1673351   0.1666658  -0.1673351), wk =   0.2962963
        k(    4) = (   0.1660018  -0.4999973   0.1660018), wk =   0.1481481
        k(    5) = (   0.1686685  -0.4999973  -0.5006720), wk =   0.2962963
        k(    6) = (   0.1673351  -0.4999973  -0.1673351), wk =   0.1481481
        k(    7) = (  -0.4980053   0.1666658  -0.4980053), wk =   0.1481481
        k(    8) = (  -0.4980053  -0.4999973  -0.4980053), wk =   0.0740741

     Dense  grid:     3439 G-vectors     FFT dimensions: (  20,  20,  20)

     Estimated max dynamical RAM per process >       6.47 MB

     Initial potential from superposition of free atoms

     starting charge   11.99084, renormalised to   12.00000
     Starting wfcs are   16 randomized atomic wfcs
     Checking if some PAW data can be deallocated... 

     total cpu time spent up to now is        0.7 secs

     Self-consistent Calculation

     iteration #  1     ecut=    20.00 Ry     beta= 0.10
     Davidson diagonalization with overlap
     ethr =  1.00E-02,  avg # of iterations =  2.9

     Threshold (ethr) on eigenvalues was too large:
     Diagonalizing with lowered threshold

     Davidson diagonalization with overlap
     ethr =  1.87E-04,  avg # of iterations =  2.2

     total cpu time spent up to now is        0.9 secs

     total energy              =    -158.05034408 Ry
     Harris-Foulkes estimate   =    -158.05100166 Ry
     estimated scf accuracy    <       0.02179831 Ry

     iteration #  2     ecut=    20.00 Ry     beta= 0.10
     Davidson diagonalization with overlap
     ethr =  1.82E-04,  avg # of iterations =  1.0

     total cpu time spent up to now is        1.1 secs

     total energy              =    -158.04514682 Ry
     Harris-Foulkes estimate   =    -158.05045554 Ry
     estimated scf accuracy    <       0.01880414 Ry

     iteration #  3     ecut=    20.00 Ry     beta= 0.10
     Davidson diagonalization with overlap
     ethr =  1.57E-04,  avg # of iterations =  1.0

     total cpu time spent up to now is        1.3 secs

     total energy              =    -158.04533309 Ry
     Harris-Foulkes estimate   =    -158.04537439 Ry
     estimated scf accuracy    <       0.00008001 Ry

     iteration #  4     ecut=    20.00 Ry     beta= 0.10
     Davidson diagonalization with overlap
     ethr =  6.67E-07,  avg # of iterations =  6.6

     total cpu time spent up to now is        1.6 secs

     total energy              =    -158.04547278 Ry
     Harris-Foulkes estimate   =    -158.04538363 Ry
     estimated scf accuracy    <       0.00004710 Ry

     iteration #  5     ecut=    20.00 Ry     beta= 0.10
     Davidson diagonalization with overlap
     ethr =  3.92E-07,  avg # of iterations =  1.0

     total cpu time spent up to now is        1.8 secs

     total energy              =    -158.04542762 Ry
     Harris-Foulkes estimate   =    -158.04547434 Ry
     estimated scf accuracy    <       0.00010661 Ry

     iteration #  6     ecut=    20.00 Ry     beta= 0.10
     Davidson diagonalization with overlap
     ethr =  3.92E-07,  avg # of iterations =  1.1

     total cpu time spent up to now is        2.0 secs

     total energy              =    -158.04543067 Ry
     Harris-Foulkes estimate   =    -158.04543081 Ry
     estimated scf accuracy    <       0.00000130 Ry

     iteration #  7     ecut=    20.00 Ry     beta= 0.10
     Davidson diagonalization with overlap
     ethr =  1.09E-08,  avg # of iterations =  3.4

     total cpu time spent up to now is        2.2 secs

     End of self-consistent calculation

          k = 0.1660 0.1667 0.1660 (   679 PWs)   bands (ev):

    -2.4730   3.4064   3.4288   3.4288   8.9201   8.9961   8.9962   9.4184
     9.4313   9.4313

          k = 0.1687 0.1667-0.5007 (   662 PWs)   bands (ev):

    -0.4864  -0.4625   5.1689   5.2091   5.4235   5.5189  10.9026  10.9350
    10.9715  11.0139

          k = 0.1673 0.1667-0.1673 (   682 PWs)   bands (ev):

    -2.4648   3.3918   3.3920   3.4138   8.9584   8.9586   9.0259   9.4834
     9.4835   9.5039

          k = 0.1660-0.5000 0.1660 (   664 PWs)   bands (ev):

    -0.4785  -0.4783   5.1944   5.1946   5.5049   5.5052  10.8692  10.8694
    10.9183  10.9184

          k = 0.1687-0.5000-0.5007 (   664 PWs)   bands (ev):

     1.4814   1.4816   1.5045   1.5047   7.1814   7.1816   7.2935   7.2938
    12.9917  12.9919

          k = 0.1673-0.5000-0.1673 (   658 PWs)   bands (ev):

    -0.4706  -0.4703   5.1873   5.1873   5.4341   5.4345  10.9957  10.9957
    11.0467  11.0471

          k =-0.4980 0.1667-0.4980 (   664 PWs)   bands (ev):

     1.4583   1.4584   1.5278   1.5279   7.2021   7.2022   7.2728   7.2729
    13.0331  13.0348

          k =-0.4980-0.5000-0.4980 (   672 PWs)   bands (ev):

     3.3061   3.3061   3.3474   3.3476   3.5059   3.5063   3.6055   3.6058
    19.2635  19.2644

     the Fermi energy is     8.5671 ev

!    total energy              =    -158.04543072 Ry
     Harris-Foulkes estimate   =    -158.04543136 Ry
     estimated scf accuracy    <       0.00000069 Ry

     total all-electron energy =     -1942.616553 Ry

     The total energy is the sum of the following terms:

     one-electron contribution =      12.64926003 Ry
     hartree contribution      =       0.02538194 Ry
     xc contribution           =     -10.37015238 Ry
     ewald contribution        =     -21.63090382 Ry
     one-center paw contrib.   =    -138.71625866 Ry
     smearing contrib. (-TS)   =      -0.00275782 Ry

     convergence has been achieved in   7 iterations

     Forces acting on atoms (cartesian axes, Ry/au):

     atom    1 type  1   force =     0.00000000    0.00000000    0.00000000
     atom    2 type  1   force =     0.00000000    0.00000000    0.00000000
     atom    3 type  1   force =     0.00000000    0.00000000    0.00000000
     atom    4 type  1   force =     0.00000000    0.00000000    0.00000000

     Total force =     0.000000     Total SCF correction =     0.000000


     Computing stress (Cartesian axis) and pressure

          total   stress  (Ry/bohr**3)                   (kbar)     P=    0.14
   0.00000281   0.00000000  -0.00007018          0.41      0.00    -10.32
   0.00000000  -0.00000284   0.00000000          0.00     -0.42      0.00
  -0.00007018   0.00000000   0.00000281        -10.32      0.00      0.41


     Writing output data file waubvXXxNLdSTGgd.save/

     init_run     :      0.30s CPU      0.31s WALL (       1 calls)
     electrons    :      1.50s CPU      1.51s WALL (       1 calls)
     forces       :      0.04s CPU      0.04s WALL (       1 calls)
     stress       :      0.08s CPU      0.08s WALL (       1 calls)

     Called by init_run:
     wfcinit      :      0.03s CPU      0.03s WALL (       1 calls)
     potinit      :      0.15s CPU      0.16s WALL (       1 calls)
     hinit0       :      0.11s CPU      0.11s WALL (       1 calls)

     Called by electrons:
     c_bands      :      0.39s CPU      0.40s WALL (       8 calls)
     sum_band     :      0.07s CPU      0.07s WALL (       8 calls)
     v_of_rho     :      0.03s CPU      0.03s WALL (       8 calls)
     newd         :      0.01s CPU      0.02s WALL (       8 calls)
     PAW_pot      :      1.14s CPU      1.15s WALL (       8 calls)
     mix_rho      :      0.00s CPU      0.00s WALL (       8 calls)

     Called by c_bands:
     init_us_2    :      0.02s CPU      0.02s WALL (     152 calls)
     cegterg      :      0.36s CPU      0.37s WALL (      64 calls)

     Called by sum_band:
     sum_band:bec :      0.00s CPU      0.00s WALL (      64 calls)
     addusdens    :      0.02s CPU      0.02s WALL (       8 calls)

     Called by *egterg:
     h_psi        :      0.20s CPU      0.21s WALL (     226 calls)
     s_psi        :      0.04s CPU      0.04s WALL (     226 calls)
     g_psi        :      0.00s CPU      0.00s WALL (     154 calls)
     cdiaghg      :      0.03s CPU      0.03s WALL (     210 calls)

     Called by h_psi:
     h_psi:pot    :      0.20s CPU      0.21s WALL (     226 calls)
     h_psi:calbec :      0.05s CPU      0.05s WALL (     226 calls)
     vloc_psi     :      0.11s CPU      0.11s WALL (     226 calls)
     add_vuspsi   :      0.04s CPU      0.04s WALL (     226 calls)

     General routines
     calbec       :      0.09s CPU      0.09s WALL (     330 calls)
     fft          :      0.00s CPU      0.00s WALL (     114 calls)
     ffts         :      0.00s CPU      0.00s WALL (       8 calls)
     fftw         :      0.10s CPU      0.10s WALL (    4148 calls)

     Parallel routines

     PWSCF        :      2.26s CPU      2.29s WALL


   This run was terminated on:   2: 7:29   9Oct2020            

=------------------------------------------------------------------------------=
   JOB DONE.
=------------------------------------------------------------------------------=
