
     Program PWSCF v.6.4.1 starts on  9Oct2020 at  2: 7:22 

     This program is part of the open-source Quantum ESPRESSO suite
     for quantum simulation of materials; please cite
         "P. Giannozzi et al., J. Phys.:Condens. Matter 21 395502 (2009);
         "P. Giannozzi et al., J. Phys.:Condens. Matter 29 465901 (2017);
          URL http://www.quantum-espresso.org", 
     in publications or presentations arising from this work. More details at
     http://www.quantum-espresso.org/quote

     Parallel version (MPI), running on     1 processors

     MPI processes distributed on     1 nodes
     Reading input from wd/ec/ec_5_003.in
Warning: card &IONS ignored
Warning: card ION_DYNAMICS = 'BFGS', ignored
Warning: card / ignored
Warning: card &CELL ignored
Warning: card CELL_DYNAMICS = 'BFGS', ignored
Warning: card CELL_FACTOR = 2.0, ignored
Warning: card PRESS = 0.0, ignored
Warning: card / ignored

     Current dimensions of program PWSCF are:
     Max number of different atomic species (ntypx) = 10
     Max number of k-points (npk) =  40000
     Max angular momentum in pseudopotentials (lmaxx) =  3
               file Al.pbe-nl-kjpaw_psl.1.0.0.UPF: wavefunction(s)  3S 3P renormalized

     Subspace diagonalization in iterative solution of the eigenvalue problem:
     a serial algorithm will be used

     Found symmetry operation: I + ( -0.5000 -0.5000  0.0000)
     This is a supercell, fractional translations are disabled
     Message from routine setup:
     DEPRECATED: symmetry with ibrav=0, use correct ibrav instead

     G-vector sticks info
     --------------------
     sticks:   dense  smooth     PW     G-vecs:    dense   smooth      PW
     Sum         277     277    121                 3431     3431    1021



     bravais-lattice index     =            0
     lattice parameter (alat)  =       7.6305  a.u.
     unit-cell volume          =     444.2769 (a.u.)^3
     number of atoms/cell      =            4
     number of atomic types    =            1
     number of electrons       =        12.00
     number of Kohn-Sham states=           10
     kinetic-energy cutoff     =      20.0000  Ry
     charge density cutoff     =      60.0000  Ry
     convergence threshold     =      1.0E-06
     mixing beta               =       0.1000
     number of iterations used =           10  TF        mixing
     Exchange-correlation      = SLA PW PBX PBC ( 1  4  3  4 0 0)

     celldm(1)=   7.630469  celldm(2)=   0.000000  celldm(3)=   0.000000
     celldm(4)=   0.000000  celldm(5)=   0.000000  celldm(6)=   0.000000

     crystal axes: (cart. coord. in units of alat)
               a(1) = (   1.000002   0.000000   0.002667 )  
               a(2) = (   0.000000   1.000002   0.000000 )  
               a(3) = (   0.002667   0.000000   1.000002 )  

     reciprocal axes: (cart. coord. in units 2 pi/alat)
               b(1) = (  1.000005  0.000000 -0.002667 )  
               b(2) = (  0.000000  0.999998  0.000000 )  
               b(3) = ( -0.002667  0.000000  1.000005 )  


     PseudoPot. # 1 for Al read from file:
     /opt/pp/Al.pbe-nl-kjpaw_psl.1.0.0.UPF
     MD5 check sum: 1b67f78b73fe58c7924490f171ce8a1e
     Pseudo is Projector augmented-wave + core cor, Zval =  3.0
     Generated using "atomic" code by A. Dal Corso v.6.3
     Shape of augmentation charge: PSQ
     Using radial grid of 1135 points,  4 beta functions with: 
                l(1) =   0
                l(2) =   0
                l(3) =   1
                l(4) =   1
     Q(r) pseudized with 0 coefficients 


     atomic species   valence    mass     pseudopotential
        Al             3.00    26.98200     Al( 1.00)

      8 Sym. Ops., with inversion, found



   Cartesian axes

     site n.     atom                  positions (alat units)
         1           Al  tau(   1) = (   0.0000000   0.0000000   0.0000000  )
         2           Al  tau(   2) = (   0.5000014   0.5000014   0.0013333  )
         3           Al  tau(   3) = (   0.5013347   0.0000000   0.5013340  )
         4           Al  tau(   4) = (   0.0013333   0.5000014   0.5000007  )

     number of k points=     8  Marzari-Vanderbilt smearing, width (Ry)=  0.0400
                       cart. coord. in units 2pi/alat
        k(    1) = (   0.1662230   0.1666663   0.1662230), wk =   0.2962963
        k(    2) = (   0.1680008   0.1666663  -0.5004468), wk =   0.5925926
        k(    3) = (   0.1671119   0.1666663  -0.1671119), wk =   0.2962963
        k(    4) = (   0.1662230  -0.4999988   0.1662230), wk =   0.1481481
        k(    5) = (   0.1680008  -0.4999988  -0.5004468), wk =   0.2962963
        k(    6) = (   0.1671119  -0.4999988  -0.1671119), wk =   0.1481481
        k(    7) = (  -0.4986690   0.1666663  -0.4986690), wk =   0.1481481
        k(    8) = (  -0.4986690  -0.4999988  -0.4986690), wk =   0.0740741

     Dense  grid:     3431 G-vectors     FFT dimensions: (  20,  20,  20)

     Estimated max dynamical RAM per process >       6.45 MB

     Initial potential from superposition of free atoms

     starting charge   11.99084, renormalised to   12.00000
     Starting wfcs are   16 randomized atomic wfcs
     Checking if some PAW data can be deallocated... 

     total cpu time spent up to now is        0.7 secs

     Self-consistent Calculation

     iteration #  1     ecut=    20.00 Ry     beta= 0.10
     Davidson diagonalization with overlap
     ethr =  1.00E-02,  avg # of iterations =  2.9

     Threshold (ethr) on eigenvalues was too large:
     Diagonalizing with lowered threshold

     Davidson diagonalization with overlap
     ethr =  1.87E-04,  avg # of iterations =  2.2

     total cpu time spent up to now is        0.9 secs

     total energy              =    -158.05038236 Ry
     Harris-Foulkes estimate   =    -158.05104016 Ry
     estimated scf accuracy    <       0.02179739 Ry

     iteration #  2     ecut=    20.00 Ry     beta= 0.10
     Davidson diagonalization with overlap
     ethr =  1.82E-04,  avg # of iterations =  1.0

     total cpu time spent up to now is        1.1 secs

     total energy              =    -158.04518333 Ry
     Harris-Foulkes estimate   =    -158.05049398 Ry
     estimated scf accuracy    <       0.01880433 Ry

     iteration #  3     ecut=    20.00 Ry     beta= 0.10
     Davidson diagonalization with overlap
     ethr =  1.57E-04,  avg # of iterations =  1.0

     total cpu time spent up to now is        1.3 secs

     total energy              =    -158.04537008 Ry
     Harris-Foulkes estimate   =    -158.04541111 Ry
     estimated scf accuracy    <       0.00007979 Ry

     iteration #  4     ecut=    20.00 Ry     beta= 0.10
     Davidson diagonalization with overlap
     ethr =  6.65E-07,  avg # of iterations =  6.8

     total cpu time spent up to now is        1.6 secs

     total energy              =    -158.04550950 Ry
     Harris-Foulkes estimate   =    -158.04542064 Ry
     estimated scf accuracy    <       0.00004710 Ry

     iteration #  5     ecut=    20.00 Ry     beta= 0.10
     Davidson diagonalization with overlap
     ethr =  3.93E-07,  avg # of iterations =  1.0

     total cpu time spent up to now is        1.8 secs

     total energy              =    -158.04546442 Ry
     Harris-Foulkes estimate   =    -158.04551108 Ry
     estimated scf accuracy    <       0.00010695 Ry

     iteration #  6     ecut=    20.00 Ry     beta= 0.10
     Davidson diagonalization with overlap
     ethr =  3.93E-07,  avg # of iterations =  1.1

     total cpu time spent up to now is        1.9 secs

     total energy              =    -158.04546745 Ry
     Harris-Foulkes estimate   =    -158.04546760 Ry
     estimated scf accuracy    <       0.00000129 Ry

     iteration #  7     ecut=    20.00 Ry     beta= 0.10
     Davidson diagonalization with overlap
     ethr =  1.08E-08,  avg # of iterations =  3.4

     total cpu time spent up to now is        2.2 secs

     End of self-consistent calculation

          k = 0.1662 0.1667 0.1662 (   681 PWs)   bands (ev):

    -2.4716   3.4077   3.4226   3.4226   8.9402   8.9899   8.9900   9.4301
     9.4396   9.4396

          k = 0.1680 0.1667-0.5004 (   659 PWs)   bands (ev):

    -0.4823  -0.4665   5.1768   5.2033   5.4385   5.5021  10.9213  10.9431
    10.9674  10.9953

          k = 0.1671 0.1667-0.1671 (   686 PWs)   bands (ev):

    -2.4663   3.3979   3.3980   3.4126   8.9647   8.9649   9.0108   9.4742
     9.4744   9.4871

          k = 0.1662-0.5000 0.1662 (   660 PWs)   bands (ev):

    -0.4772  -0.4769   5.1932   5.1934   5.4931   5.4933  10.8986  10.8988
    10.9314  10.9316

          k = 0.1680-0.5000-0.5004 (   664 PWs)   bands (ev):

     1.4852   1.4854   1.5006   1.5009   7.2000   7.2002   7.2747   7.2750
    13.0171  13.0173

          k = 0.1671-0.5000-0.1671 (   658 PWs)   bands (ev):

    -0.4719  -0.4717   5.1884   5.1884   5.4458   5.4462  10.9826  10.9826
    11.0172  11.0175

          k =-0.4987 0.1667-0.4987 (   664 PWs)   bands (ev):

     1.4698   1.4700   1.5162   1.5163   7.2138   7.2139   7.2609   7.2610
    13.0449  13.0495

          k =-0.4987-0.5000-0.4987 (   672 PWs)   bands (ev):

     3.3129   3.3130   3.3404   3.3407   3.5225   3.5228   3.5889   3.5892
    19.2956  19.2970

     the Fermi energy is     8.5706 ev

!    total energy              =    -158.04546751 Ry
     Harris-Foulkes estimate   =    -158.04546814 Ry
     estimated scf accuracy    <       0.00000068 Ry

     total all-electron energy =     -1942.616590 Ry

     The total energy is the sum of the following terms:

     one-electron contribution =      12.64943987 Ry
     hartree contribution      =       0.02535278 Ry
     xc contribution           =     -10.37013358 Ry
     ewald contribution        =     -21.63098337 Ry
     one-center paw contrib.   =    -138.71625860 Ry
     smearing contrib. (-TS)   =      -0.00288460 Ry

     convergence has been achieved in   7 iterations

     Forces acting on atoms (cartesian axes, Ry/au):

     atom    1 type  1   force =     0.00000000    0.00000000    0.00000000
     atom    2 type  1   force =     0.00000000    0.00000000    0.00000000
     atom    3 type  1   force =     0.00000000    0.00000000    0.00000000
     atom    4 type  1   force =     0.00000000    0.00000000    0.00000000

     Total force =     0.000000     Total SCF correction =     0.000000


     Computing stress (Cartesian axis) and pressure

          total   stress  (Ry/bohr**3)                   (kbar)     P=    0.12
   0.00000168   0.00000000  -0.00004679          0.25      0.00     -6.88
   0.00000000  -0.00000086   0.00000000          0.00     -0.13      0.00
  -0.00004679   0.00000000   0.00000168         -6.88      0.00      0.25


     Writing output data file iVitwvSzDJHkbhWj.save/

     init_run     :      0.29s CPU      0.31s WALL (       1 calls)
     electrons    :      1.49s CPU      1.49s WALL (       1 calls)
     forces       :      0.04s CPU      0.04s WALL (       1 calls)
     stress       :      0.08s CPU      0.08s WALL (       1 calls)

     Called by init_run:
     wfcinit      :      0.03s CPU      0.03s WALL (       1 calls)
     potinit      :      0.15s CPU      0.16s WALL (       1 calls)
     hinit0       :      0.11s CPU      0.11s WALL (       1 calls)

     Called by electrons:
     c_bands      :      0.38s CPU      0.38s WALL (       8 calls)
     sum_band     :      0.07s CPU      0.07s WALL (       8 calls)
     v_of_rho     :      0.03s CPU      0.03s WALL (       8 calls)
     newd         :      0.02s CPU      0.02s WALL (       8 calls)
     PAW_pot      :      1.14s CPU      1.14s WALL (       8 calls)
     mix_rho      :      0.00s CPU      0.00s WALL (       8 calls)

     Called by c_bands:
     init_us_2    :      0.02s CPU      0.02s WALL (     152 calls)
     cegterg      :      0.35s CPU      0.35s WALL (      64 calls)

     Called by sum_band:
     sum_band:bec :      0.00s CPU      0.00s WALL (      64 calls)
     addusdens    :      0.01s CPU      0.01s WALL (       8 calls)

     Called by *egterg:
     h_psi        :      0.20s CPU      0.20s WALL (     227 calls)
     s_psi        :      0.04s CPU      0.04s WALL (     227 calls)
     g_psi        :      0.00s CPU      0.00s WALL (     155 calls)
     cdiaghg      :      0.03s CPU      0.03s WALL (     211 calls)

     Called by h_psi:
     h_psi:pot    :      0.20s CPU      0.20s WALL (     227 calls)
     h_psi:calbec :      0.05s CPU      0.05s WALL (     227 calls)
     vloc_psi     :      0.10s CPU      0.11s WALL (     227 calls)
     add_vuspsi   :      0.04s CPU      0.04s WALL (     227 calls)

     General routines
     calbec       :      0.08s CPU      0.08s WALL (     331 calls)
     fft          :      0.00s CPU      0.00s WALL (     114 calls)
     ffts         :      0.00s CPU      0.00s WALL (       8 calls)
     fftw         :      0.10s CPU      0.10s WALL (    4152 calls)

     Parallel routines

     PWSCF        :      2.25s CPU      2.27s WALL


   This run was terminated on:   2: 7:24   9Oct2020            

=------------------------------------------------------------------------------=
   JOB DONE.
=------------------------------------------------------------------------------=
