
     Program PWSCF v.6.4.1 starts on  9Oct2020 at  2: 7:38 

     This program is part of the open-source Quantum ESPRESSO suite
     for quantum simulation of materials; please cite
         "P. Giannozzi et al., J. Phys.:Condens. Matter 21 395502 (2009);
         "P. Giannozzi et al., J. Phys.:Condens. Matter 29 465901 (2017);
          URL http://www.quantum-espresso.org", 
     in publications or presentations arising from this work. More details at
     http://www.quantum-espresso.org/quote

     Parallel version (MPI), running on     1 processors

     MPI processes distributed on     1 nodes
     Reading input from wd/ec/ec_6_004.in
Warning: card &IONS ignored
Warning: card ION_DYNAMICS = 'BFGS', ignored
Warning: card / ignored
Warning: card &CELL ignored
Warning: card CELL_DYNAMICS = 'BFGS', ignored
Warning: card CELL_FACTOR = 2.0, ignored
Warning: card PRESS = 0.0, ignored
Warning: card / ignored

     Current dimensions of program PWSCF are:
     Max number of different atomic species (ntypx) = 10
     Max number of k-points (npk) =  40000
     Max angular momentum in pseudopotentials (lmaxx) =  3
               file Al.pbe-nl-kjpaw_psl.1.0.0.UPF: wavefunction(s)  3S 3P renormalized

     Subspace diagonalization in iterative solution of the eigenvalue problem:
     a serial algorithm will be used

     Found symmetry operation: I + ( -0.5000 -0.5000  0.0000)
     This is a supercell, fractional translations are disabled
     Message from routine setup:
     DEPRECATED: symmetry with ibrav=0, use correct ibrav instead

     G-vector sticks info
     --------------------
     sticks:   dense  smooth     PW     G-vecs:    dense   smooth      PW
     Sum         281     281    121                 3439     3439    1021



     bravais-lattice index     =            0
     lattice parameter (alat)  =       7.6305  a.u.
     unit-cell volume          =     444.2769 (a.u.)^3
     number of atoms/cell      =            4
     number of atomic types    =            1
     number of electrons       =        12.00
     number of Kohn-Sham states=           10
     kinetic-energy cutoff     =      20.0000  Ry
     charge density cutoff     =      60.0000  Ry
     convergence threshold     =      1.0E-06
     mixing beta               =       0.1000
     number of iterations used =           10  TF        mixing
     Exchange-correlation      = SLA PW PBX PBC ( 1  4  3  4 0 0)

     celldm(1)=   7.630469  celldm(2)=   0.000000  celldm(3)=   0.000000
     celldm(4)=   0.000000  celldm(5)=   0.000000  celldm(6)=   0.000000

     crystal axes: (cart. coord. in units of alat)
               a(1) = (   1.000005   0.004000   0.000000 )  
               a(2) = (   0.004000   1.000005   0.000000 )  
               a(3) = (   0.000000   0.000000   1.000005 )  

     reciprocal axes: (cart. coord. in units 2 pi/alat)
               b(1) = (  1.000011 -0.004000  0.000000 )  
               b(2) = ( -0.004000  1.000011  0.000000 )  
               b(3) = (  0.000000  0.000000  0.999995 )  


     PseudoPot. # 1 for Al read from file:
     /opt/pp/Al.pbe-nl-kjpaw_psl.1.0.0.UPF
     MD5 check sum: 1b67f78b73fe58c7924490f171ce8a1e
     Pseudo is Projector augmented-wave + core cor, Zval =  3.0
     Generated using "atomic" code by A. Dal Corso v.6.3
     Shape of augmentation charge: PSQ
     Using radial grid of 1135 points,  4 beta functions with: 
                l(1) =   0
                l(2) =   0
                l(3) =   1
                l(4) =   1
     Q(r) pseudized with 0 coefficients 


     atomic species   valence    mass     pseudopotential
        Al             3.00    26.98200     Al( 1.00)

      8 Sym. Ops., with inversion, found



   Cartesian axes

     site n.     atom                  positions (alat units)
         1           Al  tau(   1) = (   0.0000000   0.0000000   0.0000000  )
         2           Al  tau(   2) = (   0.5020029   0.5020029   0.0000000  )
         3           Al  tau(   3) = (   0.5000029   0.0020000   0.5000022  )
         4           Al  tau(   4) = (   0.0020000   0.5000029   0.5000022  )

     number of k points=     8  Marzari-Vanderbilt smearing, width (Ry)=  0.0400
                       cart. coord. in units 2pi/alat
        k(    1) = (   0.1660018   0.1660018   0.1666658), wk =   0.2962963
        k(    2) = (   0.1660018   0.1660018  -0.4999973), wk =   0.1481481
        k(    3) = (   0.1686685  -0.5006720   0.1666658), wk =   0.5925926
        k(    4) = (   0.1686685  -0.5006720  -0.4999973), wk =   0.2962963
        k(    5) = (   0.1673351  -0.1673351   0.1666658), wk =   0.2962963
        k(    6) = (   0.1673351  -0.1673351  -0.4999973), wk =   0.1481481
        k(    7) = (  -0.4980053  -0.4980053   0.1666658), wk =   0.1481481
        k(    8) = (  -0.4980053  -0.4980053  -0.4999973), wk =   0.0740741

     Dense  grid:     3439 G-vectors     FFT dimensions: (  20,  20,  20)

     Estimated max dynamical RAM per process >       6.47 MB

     Initial potential from superposition of free atoms

     starting charge   11.99084, renormalised to   12.00000
     Starting wfcs are   16 randomized atomic wfcs
     Checking if some PAW data can be deallocated... 

     total cpu time spent up to now is        0.7 secs

     Self-consistent Calculation

     iteration #  1     ecut=    20.00 Ry     beta= 0.10
     Davidson diagonalization with overlap
     ethr =  1.00E-02,  avg # of iterations =  2.9

     Threshold (ethr) on eigenvalues was too large:
     Diagonalizing with lowered threshold

     Davidson diagonalization with overlap
     ethr =  1.87E-04,  avg # of iterations =  2.2

     total cpu time spent up to now is        0.9 secs

     total energy              =    -158.05035408 Ry
     Harris-Foulkes estimate   =    -158.05101257 Ry
     estimated scf accuracy    <       0.02179827 Ry

     iteration #  2     ecut=    20.00 Ry     beta= 0.10
     Davidson diagonalization with overlap
     ethr =  1.82E-04,  avg # of iterations =  1.0

     total cpu time spent up to now is        1.1 secs

     total energy              =    -158.04514046 Ry
     Harris-Foulkes estimate   =    -158.05046124 Ry
     estimated scf accuracy    <       0.01880948 Ry

     iteration #  3     ecut=    20.00 Ry     beta= 0.10
     Davidson diagonalization with overlap
     ethr =  1.57E-04,  avg # of iterations =  1.0

     total cpu time spent up to now is        1.3 secs

     total energy              =    -158.04533377 Ry
     Harris-Foulkes estimate   =    -158.04537134 Ry
     estimated scf accuracy    <       0.00007736 Ry

     iteration #  4     ecut=    20.00 Ry     beta= 0.10
     Davidson diagonalization with overlap
     ethr =  6.45E-07,  avg # of iterations =  5.4

     total cpu time spent up to now is        1.6 secs

     total energy              =    -158.04546602 Ry
     Harris-Foulkes estimate   =    -158.04538488 Ry
     estimated scf accuracy    <       0.00004800 Ry

     iteration #  5     ecut=    20.00 Ry     beta= 0.10
     Davidson diagonalization with overlap
     ethr =  4.00E-07,  avg # of iterations =  1.0

     total cpu time spent up to now is        1.8 secs

     total energy              =    -158.04542688 Ry
     Harris-Foulkes estimate   =    -158.04546746 Ry
     estimated scf accuracy    <       0.00008409 Ry

     iteration #  6     ecut=    20.00 Ry     beta= 0.10
     Davidson diagonalization with overlap
     ethr =  4.00E-07,  avg # of iterations =  1.4

     total cpu time spent up to now is        1.9 secs

     End of self-consistent calculation

          k = 0.1660 0.1660 0.1667 (   679 PWs)   bands (ev):

    -2.4730   3.4064   3.4287   3.4288   8.9201   8.9960   8.9963   9.4183
     9.4311   9.4312

          k = 0.1660 0.1660-0.5000 (   664 PWs)   bands (ev):

    -0.4787  -0.4781   5.1943   5.1948   5.5046   5.5054  10.8689  10.8695
    10.9182  10.9185

          k = 0.1687-0.5007 0.1667 (   662 PWs)   bands (ev):

    -0.4864  -0.4625   5.1689   5.2091   5.4234   5.5188  10.9025  10.9350
    10.9715  11.0138

          k = 0.1687-0.5007-0.5000 (   664 PWs)   bands (ev):

     1.4812   1.4817   1.5043   1.5049   7.1811   7.1817   7.2933   7.2939
    12.9917  12.9926

          k = 0.1673-0.1673 0.1667 (   682 PWs)   bands (ev):

    -2.4648   3.3917   3.3920   3.4138   8.9583   8.9587   9.0259   9.4832
     9.4835   9.5038

          k = 0.1673-0.1673-0.5000 (   658 PWs)   bands (ev):

    -0.4708  -0.4702   5.1871   5.1875   5.4338   5.4347  10.9956  10.9958
    11.0465  11.0472

          k =-0.4980-0.4980 0.1667 (   664 PWs)   bands (ev):

     1.4582   1.4584   1.5278   1.5279   7.2019   7.2023   7.2726   7.2729
    13.0329  13.0336

          k =-0.4980-0.4980-0.5000 (   672 PWs)   bands (ev):

     3.3060   3.3063   3.3473   3.3477   3.5056   3.5064   3.6052   3.6060
    19.2631  19.2673

     the Fermi energy is     8.5671 ev

!    total energy              =    -158.04542993 Ry
     Harris-Foulkes estimate   =    -158.04543078 Ry
     estimated scf accuracy    <       0.00000066 Ry

     total all-electron energy =     -1942.616552 Ry

     The total energy is the sum of the following terms:

     one-electron contribution =      12.64897963 Ry
     hartree contribution      =       0.02539332 Ry
     xc contribution           =     -10.37009920 Ry
     ewald contribution        =     -21.63090382 Ry
     one-center paw contrib.   =    -138.71604103 Ry
     smearing contrib. (-TS)   =      -0.00275882 Ry

     convergence has been achieved in   6 iterations

     Forces acting on atoms (cartesian axes, Ry/au):

     atom    1 type  1   force =     0.00000000    0.00000000    0.00000000
     atom    2 type  1   force =     0.00000000    0.00000000    0.00000000
     atom    3 type  1   force =     0.00000000    0.00000000    0.00000000
     atom    4 type  1   force =     0.00000000    0.00000000    0.00000000

     Total force =     0.000000     Total SCF correction =     0.000000


     Computing stress (Cartesian axis) and pressure

          total   stress  (Ry/bohr**3)                   (kbar)     P=   -0.26
   0.00000010  -0.00007018   0.00000000          0.01    -10.32      0.00
  -0.00007018   0.00000010   0.00000000        -10.32      0.01      0.00
   0.00000000   0.00000000  -0.00000555          0.00      0.00     -0.82


     Writing output data file MIVpItpolyMrIxxg.save/

     init_run     :      0.31s CPU      0.31s WALL (       1 calls)
     electrons    :      1.28s CPU      1.29s WALL (       1 calls)
     forces       :      0.04s CPU      0.04s WALL (       1 calls)
     stress       :      0.08s CPU      0.08s WALL (       1 calls)

     Called by init_run:
     wfcinit      :      0.03s CPU      0.03s WALL (       1 calls)
     potinit      :      0.16s CPU      0.16s WALL (       1 calls)
     hinit0       :      0.11s CPU      0.11s WALL (       1 calls)

     Called by electrons:
     c_bands      :      0.33s CPU      0.33s WALL (       7 calls)
     sum_band     :      0.06s CPU      0.06s WALL (       7 calls)
     v_of_rho     :      0.02s CPU      0.02s WALL (       7 calls)
     newd         :      0.01s CPU      0.01s WALL (       7 calls)
     PAW_pot      :      1.00s CPU      1.01s WALL (       7 calls)
     mix_rho      :      0.00s CPU      0.00s WALL (       7 calls)

     Called by c_bands:
     init_us_2    :      0.02s CPU      0.02s WALL (     136 calls)
     cegterg      :      0.30s CPU      0.30s WALL (      56 calls)

     Called by sum_band:
     sum_band:bec :      0.00s CPU      0.00s WALL (      56 calls)
     addusdens    :      0.01s CPU      0.01s WALL (       7 calls)

     Called by *egterg:
     h_psi        :      0.18s CPU      0.18s WALL (     183 calls)
     s_psi        :      0.04s CPU      0.04s WALL (     183 calls)
     g_psi        :      0.00s CPU      0.00s WALL (     119 calls)
     cdiaghg      :      0.02s CPU      0.02s WALL (     167 calls)

     Called by h_psi:
     h_psi:pot    :      0.17s CPU      0.17s WALL (     183 calls)
     h_psi:calbec :      0.05s CPU      0.05s WALL (     183 calls)
     vloc_psi     :      0.09s CPU      0.09s WALL (     183 calls)
     add_vuspsi   :      0.04s CPU      0.04s WALL (     183 calls)

     General routines
     calbec       :      0.08s CPU      0.08s WALL (     279 calls)
     fft          :      0.00s CPU      0.00s WALL (     103 calls)
     ffts         :      0.00s CPU      0.00s WALL (       7 calls)
     fftw         :      0.08s CPU      0.08s WALL (    3586 calls)

     Parallel routines

     PWSCF        :      2.05s CPU      2.07s WALL


   This run was terminated on:   2: 7:40   9Oct2020            

=------------------------------------------------------------------------------=
   JOB DONE.
=------------------------------------------------------------------------------=
