
     Program PWSCF v.6.4.1 starts on  9Oct2020 at  2: 8:11 

     This program is part of the open-source Quantum ESPRESSO suite
     for quantum simulation of materials; please cite
         "P. Giannozzi et al., J. Phys.:Condens. Matter 21 395502 (2009);
         "P. Giannozzi et al., J. Phys.:Condens. Matter 29 465901 (2017);
          URL http://www.quantum-espresso.org", 
     in publications or presentations arising from this work. More details at
     http://www.quantum-espresso.org/quote

     Parallel version (MPI), running on     1 processors

     MPI processes distributed on     1 nodes
     Reading input from wd/ec/ec_9_003.in
Warning: card &IONS ignored
Warning: card ION_DYNAMICS = 'BFGS', ignored
Warning: card / ignored
Warning: card &CELL ignored
Warning: card CELL_DYNAMICS = 'BFGS', ignored
Warning: card CELL_FACTOR = 2.0, ignored
Warning: card PRESS = 0.0, ignored
Warning: card / ignored

     Current dimensions of program PWSCF are:
     Max number of different atomic species (ntypx) = 10
     Max number of k-points (npk) =  40000
     Max angular momentum in pseudopotentials (lmaxx) =  3
               file Al.pbe-nl-kjpaw_psl.1.0.0.UPF: wavefunction(s)  3S 3P renormalized

     Subspace diagonalization in iterative solution of the eigenvalue problem:
     a serial algorithm will be used

     Found symmetry operation: I + ( -0.5000 -0.5000  0.0000)
     This is a supercell, fractional translations are disabled
     Message from routine setup:
     DEPRECATED: symmetry with ibrav=0, use correct ibrav instead

     G-vector sticks info
     --------------------
     sticks:   dense  smooth     PW     G-vecs:    dense   smooth      PW
     Sum         277     277    121                 3431     3431    1021



     bravais-lattice index     =            0
     lattice parameter (alat)  =       7.6305  a.u.
     unit-cell volume          =     444.2769 (a.u.)^3
     number of atoms/cell      =            4
     number of atomic types    =            1
     number of electrons       =        12.00
     number of Kohn-Sham states=           10
     kinetic-energy cutoff     =      20.0000  Ry
     charge density cutoff     =      60.0000  Ry
     convergence threshold     =      1.0E-06
     mixing beta               =       0.1000
     number of iterations used =           10  TF        mixing
     Exchange-correlation      = SLA PW PBX PBC ( 1  4  3  4 0 0)

     celldm(1)=   7.630469  celldm(2)=   0.000000  celldm(3)=   0.000000
     celldm(4)=   0.000000  celldm(5)=   0.000000  celldm(6)=   0.000000

     crystal axes: (cart. coord. in units of alat)
               a(1) = (   1.000002   0.000000   0.000000 )  
               a(2) = (   0.000000   1.002669   0.000000 )  
               a(3) = (   0.000000   0.000000   0.997336 )  

     reciprocal axes: (cart. coord. in units 2 pi/alat)
               b(1) = (  0.999998  0.000000  0.000000 )  
               b(2) = (  0.000000  0.997338  0.000000 )  
               b(3) = (  0.000000  0.000000  1.002671 )  


     PseudoPot. # 1 for Al read from file:
     /opt/pp/Al.pbe-nl-kjpaw_psl.1.0.0.UPF
     MD5 check sum: 1b67f78b73fe58c7924490f171ce8a1e
     Pseudo is Projector augmented-wave + core cor, Zval =  3.0
     Generated using "atomic" code by A. Dal Corso v.6.3
     Shape of augmentation charge: PSQ
     Using radial grid of 1135 points,  4 beta functions with: 
                l(1) =   0
                l(2) =   0
                l(3) =   1
                l(4) =   1
     Q(r) pseudized with 0 coefficients 


     atomic species   valence    mass     pseudopotential
        Al             3.00    26.98200     Al( 1.00)

      8 Sym. Ops., with inversion, found



   Cartesian axes

     site n.     atom                  positions (alat units)
         1           Al  tau(   1) = (   0.0000000   0.0000000   0.0000000  )
         2           Al  tau(   2) = (   0.5000014   0.5013347   0.0000000  )
         3           Al  tau(   3) = (   0.5000014   0.0000000   0.4986674  )
         4           Al  tau(   4) = (   0.0000000   0.5013347   0.4986674  )

     number of k points=     8  Marzari-Vanderbilt smearing, width (Ry)=  0.0400
                       cart. coord. in units 2pi/alat
        k(    1) = (   0.1666663   0.1662230   0.1671119), wk =   0.5925926
        k(    2) = (   0.1666663   0.1662230  -0.5013357), wk =   0.2962963
        k(    3) = (   0.1666663  -0.4986690   0.1671119), wk =   0.2962963
        k(    4) = (   0.1666663  -0.4986690  -0.5013357), wk =   0.1481481
        k(    5) = (  -0.4999988   0.1662230   0.1671119), wk =   0.2962963
        k(    6) = (  -0.4999988   0.1662230  -0.5013357), wk =   0.1481481
        k(    7) = (  -0.4999988  -0.4986690   0.1671119), wk =   0.1481481
        k(    8) = (  -0.4999988  -0.4986690  -0.5013357), wk =   0.0740741

     Dense  grid:     3431 G-vectors     FFT dimensions: (  20,  20,  20)

     Estimated max dynamical RAM per process >       6.45 MB

     Initial potential from superposition of free atoms

     starting charge   11.99084, renormalised to   12.00000
     Starting wfcs are   16 randomized atomic wfcs
     Checking if some PAW data can be deallocated... 

     total cpu time spent up to now is        0.6 secs

     Self-consistent Calculation

     iteration #  1     ecut=    20.00 Ry     beta= 0.10
     Davidson diagonalization with overlap
     ethr =  1.00E-02,  avg # of iterations =  2.9

     Threshold (ethr) on eigenvalues was too large:
     Diagonalizing with lowered threshold

     Davidson diagonalization with overlap
     ethr =  1.87E-04,  avg # of iterations =  2.4

     total cpu time spent up to now is        0.9 secs

     total energy              =    -158.05038741 Ry
     Harris-Foulkes estimate   =    -158.05104731 Ry
     estimated scf accuracy    <       0.02179481 Ry

     iteration #  2     ecut=    20.00 Ry     beta= 0.10
     Davidson diagonalization with overlap
     ethr =  1.82E-04,  avg # of iterations =  1.0

     total cpu time spent up to now is        1.1 secs

     total energy              =    -158.04519881 Ry
     Harris-Foulkes estimate   =    -158.05050517 Ry
     estimated scf accuracy    <       0.01879706 Ry

     iteration #  3     ecut=    20.00 Ry     beta= 0.10
     Davidson diagonalization with overlap
     ethr =  1.57E-04,  avg # of iterations =  1.0

     total cpu time spent up to now is        1.3 secs

     total energy              =    -158.04538077 Ry
     Harris-Foulkes estimate   =    -158.04542683 Ry
     estimated scf accuracy    <       0.00008519 Ry

     iteration #  4     ecut=    20.00 Ry     beta= 0.10
     Davidson diagonalization with overlap
     ethr =  7.10E-07,  avg # of iterations =  4.1

     total cpu time spent up to now is        1.5 secs

     total energy              =    -158.04550302 Ry
     Harris-Foulkes estimate   =    -158.04543222 Ry
     estimated scf accuracy    <       0.00004901 Ry

     iteration #  5     ecut=    20.00 Ry     beta= 0.10
     Davidson diagonalization with overlap
     ethr =  4.08E-07,  avg # of iterations =  1.0

     total cpu time spent up to now is        1.7 secs

     total energy              =    -158.04547105 Ry
     Harris-Foulkes estimate   =    -158.04550417 Ry
     estimated scf accuracy    <       0.00006493 Ry

     iteration #  6     ecut=    20.00 Ry     beta= 0.10
     Davidson diagonalization with overlap
     ethr =  4.08E-07,  avg # of iterations =  2.0

     total cpu time spent up to now is        1.9 secs

     End of self-consistent calculation

          k = 0.1667 0.1662 0.1671 (   684 PWs)   bands (ev):

    -2.4689   3.3801   3.4101   3.4404   8.9678   8.9775   8.9806   9.4198
     9.4566   9.5000

          k = 0.1667 0.1662-0.5013 (   658 PWs)   bands (ev):

    -0.4642  -0.4636   5.1851   5.1855   5.4651   5.4659  10.9340  10.9343
    10.9391  10.9397

          k = 0.1667-0.4987 0.1671 (   658 PWs)   bands (ev):

    -0.4850  -0.4848   5.1947   5.1949   5.4749   5.4753  10.9762  10.9763
    10.9771  10.9774

          k = 0.1667-0.4987-0.5013 (   664 PWs)   bands (ev):

     1.4926   1.4930   1.4933   1.4934   7.2367   7.2373   7.2377   7.2377
    13.0681  13.0683

          k =-0.5000 0.1662 0.1671 (   658 PWs)   bands (ev):

    -0.4747  -0.4742   5.1876   5.1879   5.4723   5.4730  10.9501  10.9503
    10.9581  10.9587

          k =-0.5000 0.1662-0.5013 (   664 PWs)   bands (ev):

     1.5028   1.5034   1.5034   1.5038   7.2174   7.2181   7.2182   7.2186
    13.0160  13.0164

          k =-0.5000-0.4987 0.1671 (   664 PWs)   bands (ev):

     1.4822   1.4826   1.4829   1.4830   7.2562   7.2568   7.2570   7.2570
    13.1209  13.1212

          k =-0.5000-0.4987-0.5013 (   672 PWs)   bands (ev):

     3.3265   3.3267   3.3267   3.3272   3.5548   3.5559   3.5560   3.5563
    19.3031  19.3045

     the Fermi energy is     8.5707 ev

!    total energy              =    -158.04547501 Ry
     Harris-Foulkes estimate   =    -158.04547601 Ry
     estimated scf accuracy    <       0.00000057 Ry

     total all-electron energy =     -1942.616597 Ry

     The total energy is the sum of the following terms:

     one-electron contribution =      12.64944491 Ry
     hartree contribution      =       0.02533176 Ry
     xc contribution           =     -10.37010620 Ry
     ewald contribution        =     -21.63103990 Ry
     one-center paw contrib.   =    -138.71617803 Ry
     smearing contrib. (-TS)   =      -0.00292754 Ry

     convergence has been achieved in   6 iterations

     Forces acting on atoms (cartesian axes, Ry/au):

     atom    1 type  1   force =     0.00000000    0.00000000    0.00000000
     atom    2 type  1   force =     0.00000000    0.00000000    0.00000000
     atom    3 type  1   force =     0.00000000    0.00000000    0.00000000
     atom    4 type  1   force =     0.00000000    0.00000000    0.00000000

     Total force =     0.000000     Total SCF correction =     0.000000


     Computing stress (Cartesian axis) and pressure

          total   stress  (Ry/bohr**3)                   (kbar)     P=   -0.05
  -0.00000116   0.00000000   0.00000000         -0.17      0.00      0.00
   0.00000000  -0.00003851   0.00000000          0.00     -5.67      0.00
   0.00000000   0.00000000   0.00003857          0.00      0.00      5.67


     Writing output data file SmnjzDMdEQvvuuVN.save/

     init_run     :      0.29s CPU      0.30s WALL (       1 calls)
     electrons    :      1.25s CPU      1.26s WALL (       1 calls)
     forces       :      0.04s CPU      0.04s WALL (       1 calls)
     stress       :      0.08s CPU      0.08s WALL (       1 calls)

     Called by init_run:
     wfcinit      :      0.03s CPU      0.03s WALL (       1 calls)
     potinit      :      0.15s CPU      0.16s WALL (       1 calls)
     hinit0       :      0.11s CPU      0.11s WALL (       1 calls)

     Called by electrons:
     c_bands      :      0.32s CPU      0.32s WALL (       7 calls)
     sum_band     :      0.05s CPU      0.05s WALL (       7 calls)
     v_of_rho     :      0.02s CPU      0.02s WALL (       7 calls)
     newd         :      0.02s CPU      0.02s WALL (       7 calls)
     PAW_pot      :      0.98s CPU      1.00s WALL (       7 calls)
     mix_rho      :      0.00s CPU      0.00s WALL (       7 calls)

     Called by c_bands:
     init_us_2    :      0.02s CPU      0.02s WALL (     136 calls)
     cegterg      :      0.29s CPU      0.29s WALL (      56 calls)

     Called by sum_band:
     sum_band:bec :      0.00s CPU      0.00s WALL (      56 calls)
     addusdens    :      0.01s CPU      0.01s WALL (       7 calls)

     Called by *egterg:
     h_psi        :      0.17s CPU      0.17s WALL (     179 calls)
     s_psi        :      0.04s CPU      0.04s WALL (     179 calls)
     g_psi        :      0.00s CPU      0.00s WALL (     115 calls)
     cdiaghg      :      0.02s CPU      0.02s WALL (     163 calls)

     Called by h_psi:
     h_psi:pot    :      0.17s CPU      0.17s WALL (     179 calls)
     h_psi:calbec :      0.04s CPU      0.04s WALL (     179 calls)
     vloc_psi     :      0.09s CPU      0.09s WALL (     179 calls)
     add_vuspsi   :      0.04s CPU      0.04s WALL (     179 calls)

     General routines
     calbec       :      0.07s CPU      0.07s WALL (     275 calls)
     fft          :      0.00s CPU      0.00s WALL (     103 calls)
     ffts         :      0.00s CPU      0.00s WALL (       7 calls)
     fftw         :      0.08s CPU      0.08s WALL (    3580 calls)

     Parallel routines

     PWSCF        :      1.99s CPU      2.03s WALL


   This run was terminated on:   2: 8:13   9Oct2020            

=------------------------------------------------------------------------------=
   JOB DONE.
=------------------------------------------------------------------------------=
