
     Program PWSCF v.6.4.1 starts on 20Jul2020 at 17:17:21 

     This program is part of the open-source Quantum ESPRESSO suite
     for quantum simulation of materials; please cite
         "P. Giannozzi et al., J. Phys.:Condens. Matter 21 395502 (2009);
         "P. Giannozzi et al., J. Phys.:Condens. Matter 29 465901 (2017);
          URL http://www.quantum-espresso.org", 
     in publications or presentations arising from this work. More details at
     http://www.quantum-espresso.org/quote

     Parallel version (MPI), running on     1 processors

     MPI processes distributed on     1 nodes
     Waiting for input...
     Reading input from standard input
Warning: card &IONS ignored
Warning: card ION_DYNAMICS = 'BFGS', ignored
Warning: card / ignored
Warning: card &CELL ignored
Warning: card CELL_DYNAMICS = 'BFGS', ignored
Warning: card CELL_FACTOR = 2.0, ignored
Warning: card PRESS = 0.0, ignored
Warning: card / ignored

     Current dimensions of program PWSCF are:
     Max number of different atomic species (ntypx) = 10
     Max number of k-points (npk) =  40000
     Max angular momentum in pseudopotentials (lmaxx) =  3
               file Al.pbe-nl-kjpaw_psl.1.0.0.UPF: wavefunction(s)  3S 3P renormalized

     Subspace diagonalization in iterative solution of the eigenvalue problem:
     a serial algorithm will be used

     Found symmetry operation: I + (  0.5000  0.5000  0.0000)
     This is a supercell, fractional translations are disabled
     Message from routine setup:
     DEPRECATED: symmetry with ibrav=0, use correct ibrav instead

     G-vector sticks info
     --------------------
     sticks:   dense  smooth     PW     G-vecs:    dense   smooth      PW
     Sum         473     473    145                 7521     7521    1365



     bravais-lattice index     =            0
     lattice parameter (alat)  =       7.6303  a.u.
     unit-cell volume          =     448.2537 (a.u.)^3
     number of atoms/cell      =            4
     number of atomic types    =            1
     number of electrons       =        12.00
     number of Kohn-Sham states=           10
     kinetic-energy cutoff     =      25.0000  Ry
     charge density cutoff     =     100.0000  Ry
     convergence threshold     =      1.0E-06
     mixing beta               =       0.1000
     number of iterations used =           10  TF        mixing
     Exchange-correlation      = SLA PW PBX PBC ( 1  4  3  4 0 0)

     celldm(1)=   7.630278  celldm(2)=   0.000000  celldm(3)=   0.000000
     celldm(4)=   0.000000  celldm(5)=   0.000000  celldm(6)=   0.000000

     crystal axes: (cart. coord. in units of alat)
               a(1) = (   1.003000   0.000000   0.000000 )  
               a(2) = (   0.000000   1.003000   0.000000 )  
               a(3) = (   0.000000   0.000000   1.003000 )  

     reciprocal axes: (cart. coord. in units 2 pi/alat)
               b(1) = (  0.997009  0.000000  0.000000 )  
               b(2) = (  0.000000  0.997009  0.000000 )  
               b(3) = (  0.000000  0.000000  0.997009 )  


     PseudoPot. # 1 for Al read from file:
     /opt/pp/Al.pbe-nl-kjpaw_psl.1.0.0.UPF
     MD5 check sum: 1b67f78b73fe58c7924490f171ce8a1e
     Pseudo is Projector augmented-wave + core cor, Zval =  3.0
     Generated using "atomic" code by A. Dal Corso v.6.3
     Shape of augmentation charge: PSQ
     Using radial grid of 1135 points,  4 beta functions with: 
                l(1) =   0
                l(2) =   0
                l(3) =   1
                l(4) =   1
     Q(r) pseudized with 0 coefficients 


     atomic species   valence    mass     pseudopotential
        Al             3.00    26.98200     Al( 1.00)

     48 Sym. Ops., with inversion, found



   Cartesian axes

     site n.     atom                  positions (alat units)
         1           Al  tau(   1) = (   0.0000000   0.0000000   0.0000000  )
         2           Al  tau(   2) = (   0.5014999   0.5014999   0.0000000  )
         3           Al  tau(   3) = (   0.5014999   0.0000000   0.5014995  )
         4           Al  tau(   4) = (   0.0000000   0.5014999   0.5014995  )

     number of k points=     4  Marzari-Vanderbilt smearing, width (Ry)=  0.0410
                       cart. coord. in units 2pi/alat
        k(    1) = (   0.1661682   0.1661682   0.1661682), wk =   0.5925926
        k(    2) = (   0.1661682   0.1661682  -0.4985045), wk =   0.8888889
        k(    3) = (   0.1661682  -0.4985045  -0.4985045), wk =   0.4444444
        k(    4) = (  -0.4985045  -0.4985045  -0.4985045), wk =   0.0740741

     Dense  grid:     7521 G-vectors     FFT dimensions: (  25,  25,  25)

     Estimated max dynamical RAM per process >      12.26 MB

     Initial potential from superposition of free atoms

     starting charge   11.99084, renormalised to   12.00000
     Starting wfcs are   16 randomized atomic wfcs
     Checking if some PAW data can be deallocated... 

     total cpu time spent up to now is        0.6 secs

     Self-consistent Calculation

     iteration #  1     ecut=    25.00 Ry     beta= 0.10
     Davidson diagonalization with overlap
     ethr =  1.00E-02,  avg # of iterations =  2.8

     Threshold (ethr) on eigenvalues was too large:
     Diagonalizing with lowered threshold

     Davidson diagonalization with overlap
     ethr =  1.89E-04,  avg # of iterations =  2.5

     total cpu time spent up to now is        0.9 secs

     total energy              =    -158.05268799 Ry
     Harris-Foulkes estimate   =    -158.05333604 Ry
     estimated scf accuracy    <       0.02187239 Ry

     iteration #  2     ecut=    25.00 Ry     beta= 0.10
     Davidson diagonalization with overlap
     ethr =  1.82E-04,  avg # of iterations =  1.0

     total cpu time spent up to now is        1.1 secs

     total energy              =    -158.04756028 Ry
     Harris-Foulkes estimate   =    -158.05281293 Ry
     estimated scf accuracy    <       0.01884807 Ry

     iteration #  3     ecut=    25.00 Ry     beta= 0.10
     Davidson diagonalization with overlap
     ethr =  1.57E-04,  avg # of iterations =  1.0

     total cpu time spent up to now is        1.2 secs

     total energy              =    -158.04774612 Ry
     Harris-Foulkes estimate   =    -158.04780026 Ry
     estimated scf accuracy    <       0.00009084 Ry

     iteration #  4     ecut=    25.00 Ry     beta= 0.10
     Davidson diagonalization with overlap
     ethr =  7.57E-07,  avg # of iterations =  4.2

     total cpu time spent up to now is        1.4 secs

     total energy              =    -158.04788354 Ry
     Harris-Foulkes estimate   =    -158.04779942 Ry
     estimated scf accuracy    <       0.00004650 Ry

     iteration #  5     ecut=    25.00 Ry     beta= 0.10
     Davidson diagonalization with overlap
     ethr =  3.88E-07,  avg # of iterations =  1.0

     total cpu time spent up to now is        1.6 secs

     total energy              =    -158.04783997 Ry
     Harris-Foulkes estimate   =    -158.04788512 Ry
     estimated scf accuracy    <       0.00009870 Ry

     iteration #  6     ecut=    25.00 Ry     beta= 0.10
     Davidson diagonalization with overlap
     ethr =  3.88E-07,  avg # of iterations =  1.2

     total cpu time spent up to now is        1.8 secs

     End of self-consistent calculation

          k = 0.1662 0.1662 0.1662 (   943 PWs)   bands (ev):

    -2.5036   3.3415   3.3415   3.3415   8.8798   8.8798   8.8799   9.3372
     9.3372   9.3372

          k = 0.1662 0.1662-0.4985 (   950 PWs)   bands (ev):

    -0.5213  -0.5212   5.1210   5.1211   5.3778   5.3779  10.8389  10.8390
    10.8469  10.8469

          k = 0.1662-0.4985-0.4985 (   944 PWs)   bands (ev):

     1.4344   1.4345   1.4345   1.4346   7.1436   7.1437   7.1437   7.1439
    12.9316  12.9317

          k =-0.4985-0.4985-0.4985 (   968 PWs)   bands (ev):

     3.2695   3.2696   3.2696   3.2696   3.4719   3.4719   3.4719   3.4722
    19.1736  19.1736

     the Fermi energy is     8.4510 ev

!    total energy              =    -158.04784246 Ry
     Harris-Foulkes estimate   =    -158.04784328 Ry
     estimated scf accuracy    <       0.00000097 Ry

     total all-electron energy =     -1942.618965 Ry

     The total energy is the sum of the following terms:

     one-electron contribution =      12.55821802 Ry
     hartree contribution      =       0.02525810 Ry
     xc contribution           =     -10.35155248 Ry
     ewald contribution        =     -21.56688799 Ry
     one-center paw contrib.   =    -138.71094525 Ry
     smearing contrib. (-TS)   =      -0.00193288 Ry

     convergence has been achieved in   6 iterations

     Forces acting on atoms (cartesian axes, Ry/au):

     atom    1 type  1   force =     0.00000000    0.00000000    0.00000000
     atom    2 type  1   force =     0.00000000    0.00000000    0.00000000
     atom    3 type  1   force =     0.00000000    0.00000000    0.00000000
     atom    4 type  1   force =     0.00000000    0.00000000    0.00000000

     Total force =     0.000000     Total SCF correction =     0.000000


     Computing stress (Cartesian axis) and pressure

          total   stress  (Ry/bohr**3)                   (kbar)     P=   -8.37
  -0.00005692   0.00000000   0.00000000         -8.37      0.00      0.00
   0.00000000  -0.00005692   0.00000000          0.00     -8.37      0.00
   0.00000000   0.00000000  -0.00005692          0.00      0.00     -8.37


     Writing output data file MDxKuSuMiAUKNVLv.save/

     init_run     :      0.27s CPU      0.28s WALL (       1 calls)
     electrons    :      1.16s CPU      1.17s WALL (       1 calls)
     forces       :      0.03s CPU      0.03s WALL (       1 calls)
     stress       :      0.06s CPU      0.06s WALL (       1 calls)

     Called by init_run:
     wfcinit      :      0.02s CPU      0.03s WALL (       1 calls)
     potinit      :      0.13s CPU      0.14s WALL (       1 calls)
     hinit0       :      0.11s CPU      0.11s WALL (       1 calls)

     Called by electrons:
     c_bands      :      0.26s CPU      0.27s WALL (       7 calls)
     sum_band     :      0.07s CPU      0.07s WALL (       7 calls)
     v_of_rho     :      0.04s CPU      0.04s WALL (       7 calls)
     newd         :      0.03s CPU      0.03s WALL (       7 calls)
     PAW_pot      :      0.89s CPU      0.90s WALL (       7 calls)
     mix_rho      :      0.00s CPU      0.00s WALL (       7 calls)

     Called by c_bands:
     init_us_2    :      0.01s CPU      0.01s WALL (      68 calls)
     cegterg      :      0.25s CPU      0.25s WALL (      28 calls)

     Called by sum_band:
     sum_band:bec :      0.00s CPU      0.00s WALL (      28 calls)
     addusdens    :      0.02s CPU      0.02s WALL (       7 calls)

     Called by *egterg:
     h_psi        :      0.18s CPU      0.19s WALL (      87 calls)
     s_psi        :      0.02s CPU      0.02s WALL (      87 calls)
     g_psi        :      0.00s CPU      0.00s WALL (      55 calls)
     cdiaghg      :      0.01s CPU      0.01s WALL (      79 calls)

     Called by h_psi:
     h_psi:pot    :      0.18s CPU      0.19s WALL (      87 calls)
     h_psi:calbec :      0.03s CPU      0.03s WALL (      87 calls)
     vloc_psi     :      0.13s CPU      0.13s WALL (      87 calls)
     add_vuspsi   :      0.02s CPU      0.02s WALL (      87 calls)

     General routines
     calbec       :      0.05s CPU      0.05s WALL (     135 calls)
     fft          :      0.01s CPU      0.01s WALL (     103 calls)
     ffts         :      0.00s CPU      0.00s WALL (       7 calls)
     fftw         :      0.14s CPU      0.14s WALL (    1764 calls)

     Parallel routines

     PWSCF        :      1.84s CPU      1.90s WALL


   This run was terminated on:  17:17:23  20Jul2020            

=------------------------------------------------------------------------------=
   JOB DONE.
=------------------------------------------------------------------------------=
