
     Program PWSCF v.6.4.1 starts on  9Oct2020 at  0:55:43 

     This program is part of the open-source Quantum ESPRESSO suite
     for quantum simulation of materials; please cite
         "P. Giannozzi et al., J. Phys.:Condens. Matter 21 395502 (2009);
         "P. Giannozzi et al., J. Phys.:Condens. Matter 29 465901 (2017);
          URL http://www.quantum-espresso.org", 
     in publications or presentations arising from this work. More details at
     http://www.quantum-espresso.org/quote

     Parallel version (MPI), running on     1 processors

     MPI processes distributed on     1 nodes
     Reading input from wd/relax/relax.in

     Current dimensions of program PWSCF are:
     Max number of different atomic species (ntypx) = 10
     Max number of k-points (npk) =  40000
     Max angular momentum in pseudopotentials (lmaxx) =  3
               file Al.pbe-nl-kjpaw_psl.1.0.0.UPF: wavefunction(s)  3S 3P renormalized

     Subspace diagonalization in iterative solution of the eigenvalue problem:
     a serial algorithm will be used

     Found symmetry operation: I + ( -0.5000 -0.5000  0.0000)
     This is a supercell, fractional translations are disabled
     Message from routine setup:
     DEPRECATED: symmetry with ibrav=0, use correct ibrav instead

     G-vector sticks info
     --------------------
     sticks:   dense  smooth     PW     G-vecs:    dense   smooth      PW
     Sum         277     277    121                 3407     3407    1021



     bravais-lattice index     =            0
     lattice parameter (alat)  =       7.5865  a.u.
     unit-cell volume          =     436.6340 (a.u.)^3
     number of atoms/cell      =            4
     number of atomic types    =            1
     number of electrons       =        12.00
     number of Kohn-Sham states=           10
     kinetic-energy cutoff     =      20.0000  Ry
     charge density cutoff     =      60.0000  Ry
     convergence threshold     =      1.0E-06
     mixing beta               =       0.1000
     number of iterations used =           10  TF        mixing
     Exchange-correlation      = SLA PW PBX PBC ( 1  4  3  4 0 0)
     nstep                     =           40


     celldm(1)=   7.586460  celldm(2)=   0.000000  celldm(3)=   0.000000
     celldm(4)=   0.000000  celldm(5)=   0.000000  celldm(6)=   0.000000

     crystal axes: (cart. coord. in units of alat)
               a(1) = (   1.000000   0.000000   0.000000 )  
               a(2) = (   0.000000   1.000000   0.000000 )  
               a(3) = (   0.000000   0.000000   1.000000 )  

     reciprocal axes: (cart. coord. in units 2 pi/alat)
               b(1) = (  1.000000  0.000000  0.000000 )  
               b(2) = (  0.000000  1.000000  0.000000 )  
               b(3) = (  0.000000  0.000000  1.000000 )  


     PseudoPot. # 1 for Al read from file:
     /opt/pp/Al.pbe-nl-kjpaw_psl.1.0.0.UPF
     MD5 check sum: 1b67f78b73fe58c7924490f171ce8a1e
     Pseudo is Projector augmented-wave + core cor, Zval =  3.0
     Generated using "atomic" code by A. Dal Corso v.6.3
     Shape of augmentation charge: PSQ
     Using radial grid of 1135 points,  4 beta functions with: 
                l(1) =   0
                l(2) =   0
                l(3) =   1
                l(4) =   1
     Q(r) pseudized with 0 coefficients 


     atomic species   valence    mass     pseudopotential
        Al             3.00    26.98200     Al( 1.00)

     48 Sym. Ops., with inversion, found



   Cartesian axes

     site n.     atom                  positions (alat units)
         1           Al  tau(   1) = (   0.0000000   0.0000000   0.0000000  )
         2           Al  tau(   2) = (   0.5000000   0.5000000   0.0000000  )
         3           Al  tau(   3) = (   0.5000000   0.0000000   0.5000000  )
         4           Al  tau(   4) = (   0.0000000   0.5000000   0.5000000  )

     number of k points=     4  Marzari-Vanderbilt smearing, width (Ry)=  0.0400
                       cart. coord. in units 2pi/alat
        k(    1) = (   0.1666667   0.1666667   0.1666667), wk =   0.5925926
        k(    2) = (   0.1666667   0.1666667  -0.5000000), wk =   0.8888889
        k(    3) = (   0.1666667  -0.5000000  -0.5000000), wk =   0.4444444
        k(    4) = (  -0.5000000  -0.5000000  -0.5000000), wk =   0.0740741

     Dense  grid:     3407 G-vectors     FFT dimensions: (  20,  20,  20)

     Estimated max dynamical RAM per process >       6.21 MB

     Initial potential from superposition of free atoms

     starting charge   11.99084, renormalised to   12.00000
     Starting wfcs are   16 randomized atomic wfcs
     Checking if some PAW data can be deallocated... 

     total cpu time spent up to now is        0.8 secs

     Self-consistent Calculation

     iteration #  1     ecut=    20.00 Ry     beta= 0.10
     Davidson diagonalization with overlap
     ethr =  1.00E-02,  avg # of iterations =  2.8

     Threshold (ethr) on eigenvalues was too large:
     Diagonalizing with lowered threshold

     Davidson diagonalization with overlap
     ethr =  1.86E-04,  avg # of iterations =  2.2

     total cpu time spent up to now is        0.9 secs

     total energy              =    -158.04973537 Ry
     Harris-Foulkes estimate   =    -158.05038887 Ry
     estimated scf accuracy    <       0.02168025 Ry

     iteration #  2     ecut=    20.00 Ry     beta= 0.10
     Davidson diagonalization with overlap
     ethr =  1.81E-04,  avg # of iterations =  1.0

     total cpu time spent up to now is        1.1 secs

     total energy              =    -158.04460167 Ry
     Harris-Foulkes estimate   =    -158.04984791 Ry
     estimated scf accuracy    <       0.01868903 Ry

     iteration #  3     ecut=    20.00 Ry     beta= 0.10
     Davidson diagonalization with overlap
     ethr =  1.56E-04,  avg # of iterations =  1.0

     total cpu time spent up to now is        1.3 secs

     total energy              =    -158.04477103 Ry
     Harris-Foulkes estimate   =    -158.04481730 Ry
     estimated scf accuracy    <       0.00008432 Ry

     iteration #  4     ecut=    20.00 Ry     beta= 0.10
     Davidson diagonalization with overlap
     ethr =  7.03E-07,  avg # of iterations =  4.0

     total cpu time spent up to now is        1.4 secs

     total energy              =    -158.04490484 Ry
     Harris-Foulkes estimate   =    -158.04481719 Ry
     estimated scf accuracy    <       0.00004692 Ry

     iteration #  5     ecut=    20.00 Ry     beta= 0.10
     Davidson diagonalization with overlap
     ethr =  3.91E-07,  avg # of iterations =  1.0

     total cpu time spent up to now is        1.6 secs

     total energy              =    -158.04486550 Ry
     Harris-Foulkes estimate   =    -158.04490625 Ry
     estimated scf accuracy    <       0.00008884 Ry

     iteration #  6     ecut=    20.00 Ry     beta= 0.10
     Davidson diagonalization with overlap
     ethr =  3.91E-07,  avg # of iterations =  1.2

     total cpu time spent up to now is        1.7 secs

     End of self-consistent calculation

          k = 0.1667 0.1667 0.1667 (   669 PWs)   bands (ev):

    -2.4001   3.5414   3.5414   3.5415   9.1487   9.1487   9.1488   9.6785
     9.6785   9.6786

          k = 0.1667 0.1667-0.5000 (   658 PWs)   bands (ev):

    -0.3834  -0.3833   5.3218   5.3219   5.6419   5.6420  11.1458  11.1458
    11.1683  11.1684

          k = 0.1667-0.5000-0.5000 (   644 PWs)   bands (ev):

     1.6051   1.6052   1.6052   1.6054   7.4125   7.4125   7.4125   7.4127
    13.3147  13.3148

          k =-0.5000-0.5000-0.5000 (   672 PWs)   bands (ev):

     3.4377   3.4379   3.4379   3.4379   3.7132   3.7132   3.7132   3.7135
    19.7283  19.7283

     the Fermi energy is     8.7464 ev

!    total energy              =    -158.04486822 Ry
     Harris-Foulkes estimate   =    -158.04486893 Ry
     estimated scf accuracy    <       0.00000099 Ry

     total all-electron energy =     -1942.615990 Ry

     The total energy is the sum of the following terms:

     one-electron contribution =      12.81895337 Ry
     hartree contribution      =       0.02584902 Ry
     xc contribution           =     -10.40754929 Ry
     ewald contribution        =     -21.75652871 Ry
     one-center paw contrib.   =    -138.72269514 Ry
     smearing contrib. (-TS)   =      -0.00289746 Ry

     convergence has been achieved in   6 iterations

     Forces acting on atoms (cartesian axes, Ry/au):

     atom    1 type  1   force =     0.00000000    0.00000000    0.00000000
     atom    2 type  1   force =     0.00000000    0.00000000    0.00000000
     atom    3 type  1   force =     0.00000000    0.00000000    0.00000000
     atom    4 type  1   force =     0.00000000    0.00000000    0.00000000

     Total force =     0.000000     Total SCF correction =     0.000000


     Computing stress (Cartesian axis) and pressure

          total   stress  (Ry/bohr**3)                   (kbar)     P=   14.89
   0.00010124   0.00000000   0.00000000         14.89      0.00      0.00
   0.00000000   0.00010124   0.00000000          0.00     14.89      0.00
   0.00000000   0.00000000   0.00010124          0.00      0.00     14.89


     BFGS Geometry Optimization

     number of scf cycles    =   1
     number of bfgs steps    =   0

     enthalpy new            =    -158.0448682222 Ry

     new trust radius        =       0.0105772865 bohr
     new conv_thr            =       0.0000010000 Ry

     new unit-cell volume =    439.95768 a.u.^3 (    65.19500 Ang^3 )
     density =      2.74896 g/cm^3

CELL_PARAMETERS (alat=  7.58646000)
   1.002530961   0.000000000   0.000000000
   0.000000000   1.002530961   0.000000000
   0.000000000   0.000000000   1.002530961

ATOMIC_POSITIONS (crystal)
Al       0.000000000   0.000000000   0.000000000
Al       0.500000000   0.500000000   0.000000000
Al       0.500000000   0.000000000   0.500000000
Al       0.000000000   0.500000000   0.500000000



     Writing output data file KYcBbGQpEJuVAKOU.save/
     NEW-OLD atomic charge density approx. for the potential
     extrapolated charge   12.09059, renormalised to   12.00000

     total cpu time spent up to now is        2.5 secs

     Self-consistent Calculation

     iteration #  1     ecut=    20.00 Ry     beta= 0.10
     Davidson diagonalization with overlap
     ethr =  1.00E-06,  avg # of iterations =  3.0

     Threshold (ethr) on eigenvalues was too large:
     Diagonalizing with lowered threshold

     Davidson diagonalization with overlap
     ethr =  1.22E-08,  avg # of iterations =  2.2

     total cpu time spent up to now is        2.7 secs

     total energy              =    -158.04514204 Ry
     Harris-Foulkes estimate   =    -158.11954836 Ry
     estimated scf accuracy    <       0.00000145 Ry

     iteration #  2     ecut=    20.00 Ry     beta= 0.10
     Davidson diagonalization with overlap
     ethr =  1.21E-08,  avg # of iterations =  2.0

     total cpu time spent up to now is        2.8 secs

     total energy              =    -158.04514095 Ry
     Harris-Foulkes estimate   =    -158.04514223 Ry
     estimated scf accuracy    <       0.00000109 Ry

     iteration #  3     ecut=    20.00 Ry     beta= 0.10
     Davidson diagonalization with overlap
     ethr =  9.11E-09,  avg # of iterations =  1.0

     total cpu time spent up to now is        3.0 secs

     End of self-consistent calculation

          k = 0.1662 0.1662 0.1662 (   669 PWs)   bands (ev):

    -2.4308   3.4834   3.4834   3.4834   9.0733   9.0733   9.0733   9.5808
     9.5808   9.5808

          k = 0.1662 0.1662-0.4987 (   658 PWs)   bands (ev):

    -0.4239  -0.4239   5.2639   5.2639   5.5658   5.5658  11.0626  11.0626
    11.0758  11.0759

          k = 0.1662-0.4987-0.4987 (   644 PWs)   bands (ev):

     1.5554   1.5555   1.5555   1.5556   7.3359   7.3360   7.3360   7.3361
    13.2067  13.2067

          k =-0.4987-0.4987-0.4987 (   672 PWs)   bands (ev):

     3.3885   3.3886   3.3886   3.3886   3.6436   3.6436   3.6436   3.6437
    19.5663  19.5663

     the Fermi energy is     8.6703 ev

!    total energy              =    -158.04514009 Ry
     Harris-Foulkes estimate   =    -158.04514095 Ry
     estimated scf accuracy    <       0.00000060 Ry

     total all-electron energy =     -1942.616262 Ry

     The total energy is the sum of the following terms:

     one-electron contribution =      12.74506931 Ry
     hartree contribution      =       0.02559016 Ry
     xc contribution           =     -10.39115689 Ry
     ewald contribution        =     -21.70160279 Ry
     one-center paw contrib.   =    -138.72011501 Ry
     smearing contrib. (-TS)   =      -0.00292485 Ry

     convergence has been achieved in   3 iterations

     Forces acting on atoms (cartesian axes, Ry/au):

     atom    1 type  1   force =     0.00000000    0.00000000    0.00000000
     atom    2 type  1   force =     0.00000000    0.00000000    0.00000000
     atom    3 type  1   force =     0.00000000    0.00000000    0.00000000
     atom    4 type  1   force =     0.00000000    0.00000000    0.00000000

     Total force =     0.000000     Total SCF correction =     0.000000


     Computing stress (Cartesian axis) and pressure

          total   stress  (Ry/bohr**3)                   (kbar)     P=    8.61
   0.00005854   0.00000000   0.00000000          8.61      0.00      0.00
   0.00000000   0.00005854   0.00000000          0.00      8.61      0.00
   0.00000000   0.00000000   0.00005854          0.00      0.00      8.61


     number of scf cycles    =   2
     number of bfgs steps    =   1

     enthalpy old            =    -158.0448682222 Ry
     enthalpy new            =    -158.0451400868 Ry

     CASE: enthalpy_new < enthalpy_old

     new trust radius        =       0.0116497298 bohr
     new conv_thr            =       0.0000000100 Ry

     new unit-cell volume =    443.63319 a.u.^3 (    65.73966 Ang^3 )
     density =      2.72619 g/cm^3

CELL_PARAMETERS (alat=  7.58646000)
   1.005315019   0.000000000   0.000000000
   0.000000000   1.005315019   0.000000000
   0.000000000   0.000000000   1.005315019

ATOMIC_POSITIONS (crystal)
Al       0.000000000   0.000000000   0.000000000
Al       0.500000000   0.500000000   0.000000000
Al       0.500000000   0.000000000   0.500000000
Al       0.000000000   0.500000000   0.500000000



     Writing output data file KYcBbGQpEJuVAKOU.save/
     NEW-OLD atomic charge density approx. for the potential
     extrapolated charge   12.09934, renormalised to   12.00000

     total cpu time spent up to now is        3.7 secs

     Self-consistent Calculation

     iteration #  1     ecut=    20.00 Ry     beta= 0.10
     Davidson diagonalization with overlap
     ethr =  1.00E-06,  avg # of iterations =  3.2

     Threshold (ethr) on eigenvalues was too large:
     Diagonalizing with lowered threshold

     Davidson diagonalization with overlap
     ethr =  2.19E-08,  avg # of iterations =  2.0

     total cpu time spent up to now is        3.9 secs

     total energy              =    -158.04526629 Ry
     Harris-Foulkes estimate   =    -158.12665698 Ry
     estimated scf accuracy    <       0.00000264 Ry

     iteration #  2     ecut=    20.00 Ry     beta= 0.10
     Davidson diagonalization with overlap
     ethr =  2.20E-08,  avg # of iterations =  1.0

     total cpu time spent up to now is        4.1 secs

     total energy              =    -158.04526479 Ry
     Harris-Foulkes estimate   =    -158.04526651 Ry
     estimated scf accuracy    <       0.00000209 Ry

     iteration #  3     ecut=    20.00 Ry     beta= 0.10
     Davidson diagonalization with overlap
     ethr =  1.75E-08,  avg # of iterations =  1.0

     total cpu time spent up to now is        4.2 secs

     total energy              =    -158.04526423 Ry
     Harris-Foulkes estimate   =    -158.04526480 Ry
     estimated scf accuracy    <       0.00000094 Ry

     iteration #  4     ecut=    20.00 Ry     beta= 0.10
     Davidson diagonalization with overlap
     ethr =  7.82E-09,  avg # of iterations =  1.0

     total cpu time spent up to now is        4.4 secs

     total energy              =    -158.04526431 Ry
     Harris-Foulkes estimate   =    -158.04526425 Ry
     estimated scf accuracy    <       0.00000002 Ry

     iteration #  5     ecut=    20.00 Ry     beta= 0.10
     Davidson diagonalization with overlap
     ethr =  1.32E-10,  avg # of iterations =  3.0

     total cpu time spent up to now is        4.5 secs

     End of self-consistent calculation

          k = 0.1658 0.1658 0.1658 (   669 PWs)   bands (ev):

    -2.4631   3.4212   3.4212   3.4212   8.9919   8.9919   8.9919   9.4754
     9.4754   9.4754

          k = 0.1658 0.1658-0.4974 (   658 PWs)   bands (ev):

    -0.4668  -0.4668   5.2018   5.2018   5.4839   5.4839  10.9727  10.9727
    10.9759  10.9759

          k = 0.1658-0.4974-0.4974 (   644 PWs)   bands (ev):

     1.5025   1.5025   1.5025   1.5025   7.2536   7.2536   7.2536   7.2536
    13.0898  13.0898

          k =-0.4974-0.4974-0.4974 (   672 PWs)   bands (ev):

     3.3361   3.3361   3.3361   3.3361   3.5688   3.5688   3.5688   3.5689
    19.3914  19.3914

     the Fermi energy is     8.5878 ev

!    total energy              =    -158.04526393 Ry
     Harris-Foulkes estimate   =    -158.04526432 Ry
     estimated scf accuracy    <          5.6E-09 Ry

     total all-electron energy =     -1942.616386 Ry

     The total energy is the sum of the following terms:

     one-electron contribution =      12.66375619 Ry
     hartree contribution      =       0.02536157 Ry
     xc contribution           =     -10.37306898 Ry
     ewald contribution        =     -21.64150371 Ry
     one-center paw contrib.   =    -138.71686017 Ry
     smearing contrib. (-TS)   =      -0.00294884 Ry

     convergence has been achieved in   5 iterations

     Forces acting on atoms (cartesian axes, Ry/au):

     atom    1 type  1   force =     0.00000000    0.00000000    0.00000000
     atom    2 type  1   force =     0.00000000    0.00000000    0.00000000
     atom    3 type  1   force =     0.00000000    0.00000000    0.00000000
     atom    4 type  1   force =     0.00000000    0.00000000    0.00000000

     Total force =     0.000000     Total SCF correction =     0.000000


     Computing stress (Cartesian axis) and pressure

          total   stress  (Ry/bohr**3)                   (kbar)     P=    1.27
   0.00000866   0.00000000   0.00000000          1.27      0.00      0.00
   0.00000000   0.00000866   0.00000000          0.00      1.27      0.00
   0.00000000   0.00000000   0.00000866          0.00      0.00      1.27


     number of scf cycles    =   3
     number of bfgs steps    =   2

     enthalpy old            =    -158.0451400868 Ry
     enthalpy new            =    -158.0452639348 Ry

     CASE: enthalpy_new < enthalpy_old

     new trust radius        =       0.0020378016 bohr
     new conv_thr            =       0.0000000100 Ry

     new unit-cell volume =    444.27732 a.u.^3 (    65.83511 Ang^3 )
     density =      2.72224 g/cm^3

CELL_PARAMETERS (alat=  7.58646000)
   1.005801339   0.000000000   0.000000000
   0.000000000   1.005801339   0.000000000
   0.000000000   0.000000000   1.005801339

ATOMIC_POSITIONS (crystal)
Al       0.000000000   0.000000000   0.000000000
Al       0.500000000   0.500000000   0.000000000
Al       0.500000000   0.000000000   0.500000000
Al       0.000000000   0.500000000   0.500000000



     Writing output data file KYcBbGQpEJuVAKOU.save/
     NEW-OLD atomic charge density approx. for the potential
     extrapolated charge   12.01738, renormalised to   12.00000

     total cpu time spent up to now is        5.3 secs

     Self-consistent Calculation

     iteration #  1     ecut=    20.00 Ry     beta= 0.10
     Davidson diagonalization with overlap
     ethr =  1.00E-06,  avg # of iterations =  2.0

     Threshold (ethr) on eigenvalues was too large:
     Diagonalizing with lowered threshold

     Davidson diagonalization with overlap
     ethr =  5.13E-10,  avg # of iterations =  3.5

     total cpu time spent up to now is        5.5 secs

     total energy              =    -158.04526730 Ry
     Harris-Foulkes estimate   =    -158.05948424 Ry
     estimated scf accuracy    <       0.00000005 Ry

     iteration #  2     ecut=    20.00 Ry     beta= 0.10
     Davidson diagonalization with overlap
     ethr =  4.53E-10,  avg # of iterations =  2.0

     total cpu time spent up to now is        5.6 secs

     total energy              =    -158.04526726 Ry
     Harris-Foulkes estimate   =    -158.04526731 Ry
     estimated scf accuracy    <       0.00000004 Ry

     iteration #  3     ecut=    20.00 Ry     beta= 0.10
     Davidson diagonalization with overlap
     ethr =  3.28E-10,  avg # of iterations =  1.0

     total cpu time spent up to now is        5.8 secs

     total energy              =    -158.04526725 Ry
     Harris-Foulkes estimate   =    -158.04526726 Ry
     estimated scf accuracy    <       0.00000002 Ry

     iteration #  4     ecut=    20.00 Ry     beta= 0.10
     Davidson diagonalization with overlap
     ethr =  1.80E-10,  avg # of iterations =  1.0

     total cpu time spent up to now is        5.9 secs

     End of self-consistent calculation

          k = 0.1657 0.1657 0.1657 (   669 PWs)   bands (ev):

    -2.4690   3.4100   3.4100   3.4100   8.9774   8.9774   8.9774   9.4566
     9.4566   9.4566

          k = 0.1657 0.1657-0.4971 (   658 PWs)   bands (ev):

    -0.4746  -0.4746   5.1907   5.1907   5.4692   5.4692  10.9568  10.9568
    10.9581  10.9581

          k = 0.1657-0.4971-0.4971 (   644 PWs)   bands (ev):

     1.4929   1.4929   1.4929   1.4929   7.2389   7.2389   7.2389   7.2389
    13.0691  13.0691

          k =-0.4971-0.4971-0.4971 (   672 PWs)   bands (ev):

     3.3266   3.3266   3.3266   3.3266   3.5554   3.5554   3.5554   3.5554
    19.3602  19.3602

     the Fermi energy is     8.5731 ev

!    total energy              =    -158.04526723 Ry
     Harris-Foulkes estimate   =    -158.04526725 Ry
     estimated scf accuracy    <          2.9E-10 Ry

     total all-electron energy =     -1942.616389 Ry

     The total energy is the sum of the following terms:

     one-electron contribution =      12.64978624 Ry
     hartree contribution      =       0.02532083 Ry
     xc contribution           =     -10.36998363 Ry
     ewald contribution        =     -21.63103972 Ry
     one-center paw contrib.   =    -138.71639650 Ry
     smearing contrib. (-TS)   =      -0.00295446 Ry

     convergence has been achieved in   4 iterations

     Forces acting on atoms (cartesian axes, Ry/au):

     atom    1 type  1   force =     0.00000000    0.00000000    0.00000000
     atom    2 type  1   force =     0.00000000    0.00000000    0.00000000
     atom    3 type  1   force =     0.00000000    0.00000000    0.00000000
     atom    4 type  1   force =     0.00000000    0.00000000    0.00000000

     Total force =     0.000000     Total SCF correction =     0.000000


     Computing stress (Cartesian axis) and pressure

          total   stress  (Ry/bohr**3)                   (kbar)     P=    0.12
   0.00000084   0.00000000   0.00000000          0.12      0.00      0.00
   0.00000000   0.00000084   0.00000000          0.00      0.12      0.00
   0.00000000   0.00000000   0.00000084          0.00      0.00      0.12


     bfgs converged in   4 scf cycles and   3 bfgs steps
     (criteria: energy <  1.0E-04 Ry, force <  1.0E-03Ry/Bohr, cell <  5.0E-01kbar)

     End of BFGS Geometry Optimization

     Final enthalpy =    -158.0452672308 Ry
Begin final coordinates
     new unit-cell volume =    444.27732 a.u.^3 (    65.83511 Ang^3 )
     density =      2.72224 g/cm^3

CELL_PARAMETERS (alat=  7.58646000)
   1.005801339   0.000000000   0.000000000
   0.000000000   1.005801339   0.000000000
   0.000000000   0.000000000   1.005801339

ATOMIC_POSITIONS (crystal)
Al       0.000000000   0.000000000   0.000000000
Al       0.500000000   0.500000000   0.000000000
Al       0.500000000   0.000000000   0.500000000
Al       0.000000000   0.500000000   0.500000000
End final coordinates



     Writing output data file KYcBbGQpEJuVAKOU.save/

     A final scf calculation at the relaxed structure.
     The G-vectors are recalculated for the final unit cell
     Results may differ from those at the preceding step.

     G-vector sticks info
     --------------------
     sticks:   dense  smooth     PW     G-vecs:    dense   smooth      PW
     Sum         277     277    121                 3431     3431    1021



     bravais-lattice index     =            0
     lattice parameter (alat)  =       7.5865  a.u.
     unit-cell volume          =     444.2773 (a.u.)^3
     number of atoms/cell      =            4
     number of atomic types    =            1
     number of electrons       =        12.00
     number of Kohn-Sham states=           10
     kinetic-energy cutoff     =      20.0000  Ry
     charge density cutoff     =      60.0000  Ry
     convergence threshold     =      1.0E-08
     mixing beta               =       0.1000
     number of iterations used =           10  TF        mixing
     Exchange-correlation      = SLA PW PBX PBC ( 1  4  3  4 0 0)

     celldm(1)=   7.586460  celldm(2)=   0.000000  celldm(3)=   0.000000
     celldm(4)=   0.000000  celldm(5)=   0.000000  celldm(6)=   0.000000

     crystal axes: (cart. coord. in units of alat)
               a(1) = (   1.005801   0.000000   0.000000 )  
               a(2) = (   0.000000   1.005801   0.000000 )  
               a(3) = (   0.000000   0.000000   1.005801 )  

     reciprocal axes: (cart. coord. in units 2 pi/alat)
               b(1) = (  0.994232  0.000000  0.000000 )  
               b(2) = (  0.000000  0.994232  0.000000 )  
               b(3) = (  0.000000  0.000000  0.994232 )  


     PseudoPot. # 1 for Al read from file:
     /opt/pp/Al.pbe-nl-kjpaw_psl.1.0.0.UPF
     MD5 check sum: 1b67f78b73fe58c7924490f171ce8a1e
     Pseudo is Projector augmented-wave + core cor, Zval =  3.0
     Generated using "atomic" code by A. Dal Corso v.6.3
     Shape of augmentation charge: PSQ
     Using radial grid of 1135 points,  4 beta functions with: 
                l(1) =   0
                l(2) =   0
                l(3) =   1
                l(4) =   1
     Q(r) pseudized with 0 coefficients 


     atomic species   valence    mass     pseudopotential
        Al             3.00    26.98200     Al( 1.00)

     48 Sym. Ops., with inversion, found



   Cartesian axes

     site n.     atom                  positions (alat units)
         1           Al  tau(   1) = (   0.0000000   0.0000000   0.0000000  )
         2           Al  tau(   2) = (   0.5029007   0.5029007   0.0000000  )
         3           Al  tau(   3) = (   0.5029007   0.0000000   0.5029007  )
         4           Al  tau(   4) = (   0.0000000   0.5029007   0.5029007  )

     number of k points=     4  Marzari-Vanderbilt smearing, width (Ry)=  0.0400
                       cart. coord. in units 2pi/alat
        k(    1) = (   0.1657054   0.1657054   0.1657054), wk =   0.5925926
        k(    2) = (   0.1657054   0.1657054  -0.4971161), wk =   0.8888889
        k(    3) = (   0.1657054  -0.4971161  -0.4971161), wk =   0.4444444
        k(    4) = (  -0.4971161  -0.4971161  -0.4971161), wk =   0.0740741

     Dense  grid:     3431 G-vectors     FFT dimensions: (  20,  20,  20)

     Estimated max dynamical RAM per process >       6.28 MB

     Initial potential from superposition of free atoms

     starting charge   11.99084, renormalised to   12.00000
     Starting wfcs are   16 randomized atomic wfcs
     Checking if some PAW data can be deallocated... 

     total cpu time spent up to now is        6.6 secs

     Self-consistent Calculation

     iteration #  1     ecut=    20.00 Ry     beta= 0.10
     Davidson diagonalization with overlap
     ethr =  1.00E-06,  avg # of iterations =  8.0

     total cpu time spent up to now is        6.8 secs

     total energy              =    -158.05057007 Ry
     Harris-Foulkes estimate   =    -158.05122477 Ry
     estimated scf accuracy    <       0.02179538 Ry

     iteration #  2     ecut=    20.00 Ry     beta= 0.10
     Davidson diagonalization with overlap
     ethr =  1.82E-04,  avg # of iterations =  1.0

     total cpu time spent up to now is        6.9 secs

     total energy              =    -158.04512425 Ry
     Harris-Foulkes estimate   =    -158.05057163 Ry
     estimated scf accuracy    <       0.01887812 Ry

     iteration #  3     ecut=    20.00 Ry     beta= 0.10
     Davidson diagonalization with overlap
     ethr =  1.57E-04,  avg # of iterations =  1.0

     total cpu time spent up to now is        7.0 secs

     total energy              =    -158.04542755 Ry
     Harris-Foulkes estimate   =    -158.04537225 Ry
     estimated scf accuracy    <       0.00005532 Ry

     iteration #  4     ecut=    20.00 Ry     beta= 0.10
     Davidson diagonalization with overlap
     ethr =  4.61E-07,  avg # of iterations =  3.2

     total cpu time spent up to now is        7.2 secs

     total energy              =    -158.04552470 Ry
     Harris-Foulkes estimate   =    -158.04549263 Ry
     estimated scf accuracy    <       0.00001983 Ry

     iteration #  5     ecut=    20.00 Ry     beta= 0.10
     Davidson diagonalization with overlap
     ethr =  1.65E-07,  avg # of iterations =  2.0

     total cpu time spent up to now is        7.4 secs

     total energy              =    -158.04552426 Ry
     Harris-Foulkes estimate   =    -158.04552760 Ry
     estimated scf accuracy    <       0.00000719 Ry

     iteration #  6     ecut=    20.00 Ry     beta= 0.10
     Davidson diagonalization with overlap
     ethr =  5.99E-08,  avg # of iterations =  1.0

     total cpu time spent up to now is        7.5 secs

     total energy              =    -158.04552370 Ry
     Harris-Foulkes estimate   =    -158.04552453 Ry
     estimated scf accuracy    <       0.00000020 Ry

     iteration #  7     ecut=    20.00 Ry     beta= 0.10
     Davidson diagonalization with overlap
     ethr =  1.64E-09,  avg # of iterations =  3.2

     total cpu time spent up to now is        7.7 secs

     total energy              =    -158.04552383 Ry
     Harris-Foulkes estimate   =    -158.04552380 Ry
     estimated scf accuracy    <       0.00000001 Ry

     iteration #  8     ecut=    20.00 Ry     beta= 0.10
     Davidson diagonalization with overlap
     ethr =  1.07E-10,  avg # of iterations =  1.0

     total cpu time spent up to now is        7.8 secs

     total energy              =    -158.04552382 Ry
     Harris-Foulkes estimate   =    -158.04552383 Ry
     estimated scf accuracy    <       0.00000003 Ry

     iteration #  9     ecut=    20.00 Ry     beta= 0.10
     Davidson diagonalization with overlap
     ethr =  1.07E-10,  avg # of iterations =  1.0

     total cpu time spent up to now is        8.0 secs

     total energy              =    -158.04552381 Ry
     Harris-Foulkes estimate   =    -158.04552382 Ry
     estimated scf accuracy    <       0.00000002 Ry

     iteration # 10     ecut=    20.00 Ry     beta= 0.10
     Davidson diagonalization with overlap
     ethr =  1.07E-10,  avg # of iterations =  1.0

     total cpu time spent up to now is        8.1 secs

     End of self-consistent calculation

          k = 0.1657 0.1657 0.1657 (   687 PWs)   bands (ev):

    -2.4693   3.4099   3.4099   3.4099   8.9772   8.9772   8.9772   9.4561
     9.4561   9.4561

          k = 0.1657 0.1657-0.4971 (   658 PWs)   bands (ev):

    -0.4747  -0.4747   5.1906   5.1906   5.4691   5.4691  10.9567  10.9567
    10.9580  10.9580

          k = 0.1657-0.4971-0.4971 (   664 PWs)   bands (ev):

     1.4927   1.4927   1.4927   1.4927   7.2370   7.2370   7.2370   7.2370
    13.0681  13.0681

          k =-0.4971-0.4971-0.4971 (   672 PWs)   bands (ev):

     3.3265   3.3265   3.3265   3.3265   3.5553   3.5553   3.5553   3.5553
    19.3600  19.3600

     the Fermi energy is     8.5732 ev

!    total energy              =    -158.04552381 Ry
     Harris-Foulkes estimate   =    -158.04552381 Ry
     estimated scf accuracy    <          7.4E-10 Ry

     total all-electron energy =     -1942.616646 Ry

     The total energy is the sum of the following terms:

     one-electron contribution =      12.64961539 Ry
     hartree contribution      =       0.02533530 Ry
     xc contribution           =     -10.37015480 Ry
     ewald contribution        =     -21.63103972 Ry
     one-center paw contrib.   =    -138.71629284 Ry
     smearing contrib. (-TS)   =      -0.00298714 Ry

     convergence has been achieved in  10 iterations

     Forces acting on atoms (cartesian axes, Ry/au):

     atom    1 type  1   force =     0.00000000    0.00000000    0.00000000
     atom    2 type  1   force =     0.00000000    0.00000000    0.00000000
     atom    3 type  1   force =     0.00000000    0.00000000    0.00000000
     atom    4 type  1   force =     0.00000000    0.00000000    0.00000000

     Total force =     0.000000     Total SCF correction =     0.000000


     Computing stress (Cartesian axis) and pressure

          total   stress  (Ry/bohr**3)                   (kbar)     P=    0.16
   0.00000112   0.00000000   0.00000000          0.16      0.00      0.00
   0.00000000   0.00000112   0.00000000          0.00      0.16      0.00
   0.00000000   0.00000000   0.00000112          0.00      0.00      0.16


     Writing output data file KYcBbGQpEJuVAKOU.save/

     init_run     :      0.77s CPU      0.77s WALL (       2 calls)
     electrons    :      4.43s CPU      4.43s WALL (       5 calls)
     update_pot   :      0.89s CPU      0.91s WALL (       3 calls)
     forces       :      0.44s CPU      0.44s WALL (       5 calls)
     stress       :      0.89s CPU      0.89s WALL (       5 calls)

     Called by init_run:
     wfcinit      :      0.03s CPU      0.03s WALL (       2 calls)
     potinit      :      0.31s CPU      0.31s WALL (       2 calls)
     hinit0       :      0.43s CPU      0.43s WALL (       2 calls)

     Called by electrons:
     c_bands      :      0.62s CPU      0.63s WALL (      32 calls)
     sum_band     :      0.14s CPU      0.14s WALL (      32 calls)
     v_of_rho     :      0.09s CPU      0.09s WALL (      33 calls)
     newd         :      0.06s CPU      0.06s WALL (      33 calls)
     PAW_pot      :      4.51s CPU      4.55s WALL (      36 calls)
     mix_rho      :      0.01s CPU      0.01s WALL (      32 calls)

     Called by c_bands:
     init_us_2    :      0.03s CPU      0.03s WALL (     316 calls)
     cegterg      :      0.57s CPU      0.58s WALL (     128 calls)

     Called by sum_band:
     sum_band:bec :      0.00s CPU      0.00s WALL (     140 calls)
     addusdens    :      0.05s CPU      0.05s WALL (      32 calls)

     Called by *egterg:
     h_psi        :      0.32s CPU      0.32s WALL (     395 calls)
     s_psi        :      0.07s CPU      0.07s WALL (     395 calls)
     g_psi        :      0.00s CPU      0.00s WALL (     259 calls)
     cdiaghg      :      0.04s CPU      0.04s WALL (     359 calls)

     Called by h_psi:
     h_psi:pot    :      0.32s CPU      0.32s WALL (     395 calls)
     h_psi:calbec :      0.08s CPU      0.08s WALL (     395 calls)
     vloc_psi     :      0.17s CPU      0.17s WALL (     395 calls)
     add_vuspsi   :      0.07s CPU      0.07s WALL (     395 calls)

     General routines
     calbec       :      0.14s CPU      0.14s WALL (     635 calls)
     fft          :      0.01s CPU      0.01s WALL (     495 calls)
     ffts         :      0.00s CPU      0.00s WALL (      32 calls)
     fftw         :      0.16s CPU      0.16s WALL (    8030 calls)

     Parallel routines

     PWSCF        :      8.13s CPU      8.19s WALL


   This run was terminated on:   0:55:51   9Oct2020            

=------------------------------------------------------------------------------=
   JOB DONE.
=------------------------------------------------------------------------------=
