
     Program PWSCF v.6.4.1 starts on  3Jul2020 at  1:44:13 

     This program is part of the open-source Quantum ESPRESSO suite
     for quantum simulation of materials; please cite
         "P. Giannozzi et al., J. Phys.:Condens. Matter 21 395502 (2009);
         "P. Giannozzi et al., J. Phys.:Condens. Matter 29 465901 (2017);
          URL http://www.quantum-espresso.org", 
     in publications or presentations arising from this work. More details at
     http://www.quantum-espresso.org/quote

     Parallel version (MPI), running on     1 processors

     MPI processes distributed on     1 nodes
     Waiting for input...
     Reading input from standard input
Warning: card &IONS ignored
Warning: card ION_DYNAMICS = 'BFGS', ignored
Warning: card / ignored
Warning: card &CELL ignored
Warning: card CELL_DYNAMICS = 'BFGS', ignored
Warning: card CELL_FACTOR = 2.0, ignored
Warning: card PRESS = 0.0, ignored
Warning: card / ignored

     Current dimensions of program PWSCF are:
     Max number of different atomic species (ntypx) = 10
     Max number of k-points (npk) =  40000
     Max angular momentum in pseudopotentials (lmaxx) =  3
               file Al.pbe-nl-kjpaw_psl.1.0.0.UPF: wavefunction(s)  3S 3P renormalized

     Subspace diagonalization in iterative solution of the eigenvalue problem:
     a serial algorithm will be used

     Found symmetry operation: I + ( -0.5000 -0.5000  0.0000)
     This is a supercell, fractional translations are disabled
     Message from routine setup:
     DEPRECATED: symmetry with ibrav=0, use correct ibrav instead

     G-vector sticks info
     --------------------
     sticks:   dense  smooth     PW     G-vecs:    dense   smooth      PW
     Sum         885     885    277                20005    20005    3407



     bravais-lattice index     =            0
     lattice parameter (alat)  =       7.5000  a.u.
     unit-cell volume          =     421.8750 (a.u.)^3
     number of atoms/cell      =            4
     number of atomic types    =            1
     number of electrons       =        12.00
     number of Kohn-Sham states=           10
     kinetic-energy cutoff     =      50.0000  Ry
     charge density cutoff     =     200.0000  Ry
     convergence threshold     =      1.0E-06
     mixing beta               =       0.1000
     number of iterations used =           10  TF        mixing
     Exchange-correlation      = SLA PW PBX PBC ( 1  4  3  4 0 0)

     celldm(1)=   7.500000  celldm(2)=   0.000000  celldm(3)=   0.000000
     celldm(4)=   0.000000  celldm(5)=   0.000000  celldm(6)=   0.000000

     crystal axes: (cart. coord. in units of alat)
               a(1) = (   1.000000   0.000000   0.000000 )  
               a(2) = (   0.000000   1.000000   0.000000 )  
               a(3) = (   0.000000   0.000000   1.000000 )  

     reciprocal axes: (cart. coord. in units 2 pi/alat)
               b(1) = (  1.000000  0.000000  0.000000 )  
               b(2) = (  0.000000  1.000000  0.000000 )  
               b(3) = (  0.000000  0.000000  1.000000 )  


     PseudoPot. # 1 for Al read from file:
     /opt/pp/Al.pbe-nl-kjpaw_psl.1.0.0.UPF
     MD5 check sum: 1b67f78b73fe58c7924490f171ce8a1e
     Pseudo is Projector augmented-wave + core cor, Zval =  3.0
     Generated using "atomic" code by A. Dal Corso v.6.3
     Shape of augmentation charge: PSQ
     Using radial grid of 1135 points,  4 beta functions with: 
                l(1) =   0
                l(2) =   0
                l(3) =   1
                l(4) =   1
     Q(r) pseudized with 0 coefficients 


     atomic species   valence    mass     pseudopotential
        Al             3.00    26.98200     Al( 1.00)

     48 Sym. Ops., with inversion, found



   Cartesian axes

     site n.     atom                  positions (alat units)
         1           Al  tau(   1) = (   0.0000000   0.0000000   0.0000000  )
         2           Al  tau(   2) = (   0.5000000   0.5000000   0.0000000  )
         3           Al  tau(   3) = (   0.5000000   0.0000000   0.5000000  )
         4           Al  tau(   4) = (   0.0000000   0.5000000   0.5000000  )

     number of k points=    10  Marzari-Vanderbilt smearing, width (Ry)=  0.0200
                       cart. coord. in units 2pi/alat
        k(    1) = (   0.1000000   0.1000000   0.1000000), wk =   0.1280000
        k(    2) = (   0.1000000   0.1000000   0.3000000), wk =   0.3840000
        k(    3) = (   0.1000000   0.1000000  -0.5000000), wk =   0.1920000
        k(    4) = (   0.1000000   0.3000000   0.3000000), wk =   0.3840000
        k(    5) = (   0.1000000   0.3000000  -0.5000000), wk =   0.3840000
        k(    6) = (   0.1000000  -0.5000000  -0.5000000), wk =   0.0960000
        k(    7) = (   0.3000000   0.3000000   0.3000000), wk =   0.1280000
        k(    8) = (   0.3000000   0.3000000  -0.5000000), wk =   0.1920000
        k(    9) = (   0.3000000  -0.5000000  -0.5000000), wk =   0.0960000
        k(   10) = (  -0.5000000  -0.5000000  -0.5000000), wk =   0.0160000

     Dense  grid:    20005 G-vectors     FFT dimensions: (  36,  36,  36)

     Estimated max dynamical RAM per process >      34.92 MB

     Initial potential from superposition of free atoms

     starting charge   11.99084, renormalised to   12.00000
     Starting wfcs are   16 randomized atomic wfcs
     Checking if some PAW data can be deallocated... 

     total cpu time spent up to now is        0.8 secs

     Self-consistent Calculation

     iteration #  1     ecut=    50.00 Ry     beta= 0.10
     Davidson diagonalization with overlap
     ethr =  1.00E-02,  avg # of iterations =  3.1

     Threshold (ethr) on eigenvalues was too large:
     Diagonalizing with lowered threshold

     Davidson diagonalization with overlap
     ethr =  1.92E-04,  avg # of iterations =  3.4

     total cpu time spent up to now is        1.8 secs

     total energy              =    -158.00166138 Ry
     Harris-Foulkes estimate   =    -158.00238622 Ry
     estimated scf accuracy    <       0.02245323 Ry

     iteration #  2     ecut=    50.00 Ry     beta= 0.10
     Davidson diagonalization with overlap
     ethr =  1.87E-04,  avg # of iterations =  1.0

     total cpu time spent up to now is        2.2 secs

     total energy              =    -157.99605448 Ry
     Harris-Foulkes estimate   =    -158.00175595 Ry
     estimated scf accuracy    <       0.01934660 Ry

     iteration #  3     ecut=    50.00 Ry     beta= 0.10
     Davidson diagonalization with overlap
     ethr =  1.61E-04,  avg # of iterations =  1.0

     total cpu time spent up to now is        2.7 secs

     total energy              =    -157.99628496 Ry
     Harris-Foulkes estimate   =    -157.99631824 Ry
     estimated scf accuracy    <       0.00007265 Ry

     iteration #  4     ecut=    50.00 Ry     beta= 0.10
     Davidson diagonalization with overlap
     ethr =  6.05E-07,  avg # of iterations =  4.2

     total cpu time spent up to now is        3.3 secs

     total energy              =    -157.99640572 Ry
     Harris-Foulkes estimate   =    -157.99634769 Ry
     estimated scf accuracy    <       0.00004429 Ry

     iteration #  5     ecut=    50.00 Ry     beta= 0.10
     Davidson diagonalization with overlap
     ethr =  3.69E-07,  avg # of iterations =  1.0

     total cpu time spent up to now is        3.7 secs

     total energy              =    -157.99639510 Ry
     Harris-Foulkes estimate   =    -157.99640616 Ry
     estimated scf accuracy    <       0.00004516 Ry

     iteration #  6     ecut=    50.00 Ry     beta= 0.10
     Davidson diagonalization with overlap
     ethr =  3.69E-07,  avg # of iterations =  2.0

     total cpu time spent up to now is        4.2 secs

     End of self-consistent calculation

          k = 0.1000 0.1000 0.1000 (  2532 PWs)   bands (ev):

    -2.7624   4.4722   4.4722   4.4722   8.3141   8.3141   8.3142  11.4129
    11.4129  11.4130

          k = 0.1000 0.1000 0.3000 (  2523 PWs)   bands (ev):

    -2.0142   1.6622   5.1737   5.1738   8.5406   8.5407   9.1932   9.1933
    11.9805  12.5267

          k = 0.1000 0.1000-0.5000 (  2512 PWs)   bands (ev):

    -0.5302  -0.5300   6.4104   6.4106   6.7516   6.7519  10.0538  10.0539
    11.0132  11.0135

          k = 0.1000 0.3000 0.3000 (  2520 PWs)   bands (ev):

    -1.2700   2.3858   2.3859   5.7281   6.1108   9.3773   9.3774   9.7990
    12.8274  12.8276

          k = 0.1000 0.3000-0.5000 (  2534 PWs)   bands (ev):

     0.2059   0.2061   3.8188   3.8190   7.3029   7.3032  10.7712  10.7715
    11.1700  11.1703

          k = 0.1000-0.5000-0.5000 (  2512 PWs)   bands (ev):

     1.6657   1.6659   1.6659   1.6661   8.6966   8.6968   8.6968   8.6971
    12.5667  12.5668

          k = 0.3000 0.3000 0.3000 (  2503 PWs)   bands (ev):

    -0.5298   3.1039   3.1039   3.1039   6.6814   6.6814   6.6815  10.1712
    13.8234  13.8234

          k = 0.3000 0.3000-0.5000 (  2516 PWs)   bands (ev):

     0.9381   0.9383   4.3542   4.3544   4.7448   4.7450   8.0864   8.0866
    14.8817  14.8819

          k = 0.3000-0.5000-0.5000 (  2484 PWs)   bands (ev):

     2.3886   2.3888   2.3888   2.3891   5.9838   5.9840   5.9840   5.9843
    16.4703  16.4705

          k =-0.5000-0.5000-0.5000 (  2512 PWs)   bands (ev):

     3.6608   3.6611   3.6611   3.6611   4.0213   4.0213   4.0213   4.0219
    20.4638  20.4641

     the Fermi energy is     8.5801 ev

!    total energy              =    -157.99640194 Ry
     Harris-Foulkes estimate   =    -157.99640250 Ry
     estimated scf accuracy    <       0.00000061 Ry

     total all-electron energy =     -1942.567524 Ry

     The total energy is the sum of the following terms:

     one-electron contribution =      13.19497832 Ry
     hartree contribution      =       0.02552400 Ry
     xc contribution           =     -10.47984882 Ry
     ewald contribution        =     -22.00733797 Ry
     one-center paw contrib.   =    -138.72801146 Ry
     smearing contrib. (-TS)   =      -0.00170601 Ry

     convergence has been achieved in   6 iterations

     Forces acting on atoms (cartesian axes, Ry/au):

     atom    1 type  1   force =     0.00000000    0.00000000    0.00000000
     atom    2 type  1   force =     0.00000000    0.00000000    0.00000000
     atom    3 type  1   force =     0.00000000    0.00000000    0.00000000
     atom    4 type  1   force =     0.00000000    0.00000000    0.00000000

     Total force =     0.000000     Total SCF correction =     0.000000


     Computing stress (Cartesian axis) and pressure

          total   stress  (Ry/bohr**3)                   (kbar)     P=   47.21
   0.00032093   0.00000000   0.00000000         47.21      0.00      0.00
   0.00000000   0.00032093   0.00000000          0.00     47.21      0.00
   0.00000000   0.00000000   0.00032093          0.00      0.00     47.21


     Writing output data file fe_scf_fcc_2.save/

     init_run     :      0.50s CPU      0.51s WALL (       1 calls)
     electrons    :      3.37s CPU      3.40s WALL (       1 calls)
     forces       :      0.15s CPU      0.15s WALL (       1 calls)
     stress       :      0.20s CPU      0.20s WALL (       1 calls)

     Called by init_run:
     wfcinit      :      0.19s CPU      0.19s WALL (       1 calls)
     potinit      :      0.14s CPU      0.14s WALL (       1 calls)
     hinit0       :      0.16s CPU      0.16s WALL (       1 calls)

     Called by electrons:
     c_bands      :      2.09s CPU      2.10s WALL (       7 calls)
     sum_band     :      0.41s CPU      0.42s WALL (       7 calls)
     v_of_rho     :      0.13s CPU      0.13s WALL (       7 calls)
     newd         :      0.07s CPU      0.08s WALL (       7 calls)
     PAW_pot      :      0.80s CPU      0.81s WALL (       7 calls)
     mix_rho      :      0.01s CPU      0.01s WALL (       7 calls)

     Called by c_bands:
     init_us_2    :      0.06s CPU      0.06s WALL (     170 calls)
     cegterg      :      2.00s CPU      2.02s WALL (      70 calls)

     Called by sum_band:
     sum_band:bec :      0.00s CPU      0.00s WALL (      70 calls)
     addusdens    :      0.05s CPU      0.05s WALL (       7 calls)

     Called by *egterg:
     h_psi        :      1.70s CPU      1.71s WALL (     237 calls)
     s_psi        :      0.13s CPU      0.13s WALL (     237 calls)
     g_psi        :      0.01s CPU      0.01s WALL (     157 calls)
     cdiaghg      :      0.02s CPU      0.02s WALL (     217 calls)

     Called by h_psi:
     h_psi:pot    :      1.70s CPU      1.71s WALL (     237 calls)
     h_psi:calbec :      0.16s CPU      0.16s WALL (     237 calls)
     vloc_psi     :      1.41s CPU      1.42s WALL (     237 calls)
     add_vuspsi   :      0.13s CPU      0.13s WALL (     237 calls)

     General routines
     calbec       :      0.26s CPU      0.26s WALL (     357 calls)
     fft          :      0.06s CPU      0.06s WALL (     103 calls)
     ffts         :      0.00s CPU      0.00s WALL (       7 calls)
     fftw         :      1.55s CPU      1.56s WALL (    4610 calls)

     Parallel routines

     PWSCF        :      4.50s CPU      4.59s WALL


   This run was terminated on:   1:44:18   3Jul2020            

=------------------------------------------------------------------------------=
   JOB DONE.
=------------------------------------------------------------------------------=
