
     Program PWSCF v.6.4.1 starts on 15May2022 at 20:46:21 

     This program is part of the open-source Quantum ESPRESSO suite
     for quantum simulation of materials; please cite
         "P. Giannozzi et al., J. Phys.:Condens. Matter 21 395502 (2009);
         "P. Giannozzi et al., J. Phys.:Condens. Matter 29 465901 (2017);
          URL http://www.quantum-espresso.org", 
     in publications or presentations arising from this work. More details at
     http://www.quantum-espresso.org/quote

     Parallel version (MPI), running on     4 processors

     MPI processes distributed on     1 nodes
     K-points division:     npool     =       2
     R & G space division:  proc/nbgrp/npool/nimage =       2
     Reading input from /DATA/disk3/cloud/Code/python/qeeos/examples/al_005/out/ec_mskp/ec_mskp_c11_c12_0005.in
Warning: card &IONS ignored
Warning: card ION_DYNAMICS = 'BFGS', ignored
Warning: card / ignored
Warning: card &CELL ignored
Warning: card CELL_DYNAMICS = 'BFGS', ignored
Warning: card CELL_FACTOR = 2.0, ignored
Warning: card PRESS = 0.0, ignored
Warning: card / ignored

     Current dimensions of program PWSCF are:
     Max number of different atomic species (ntypx) = 10
     Max number of k-points (npk) =  40000
     Max angular momentum in pseudopotentials (lmaxx) =  3
               file Al.pbe-nl-kjpaw_psl.1.0.0.UPF: wavefunction(s)  3S 3P renormalized

     Subspace diagonalization in iterative solution of the eigenvalue problem:
     a serial algorithm will be used

     Found symmetry operation: I + (  0.5000  0.5000 -0.5000)
     This is a supercell, fractional translations are disabled
     Message from routine setup:
     DEPRECATED: symmetry with ibrav=0, use correct ibrav instead

     Parallelization info
     --------------------
     sticks:   dense  smooth     PW     G-vecs:    dense   smooth      PW
     Min         296     296     88                 5452     5452     898
     Max         297     297     89                 5455     5455     901
     Sum         593     593    177                10907    10907    1799



     bravais-lattice index     =            0
     lattice parameter (alat)  =       6.1031  a.u.
     unit-cell volume          =     227.3291 (a.u.)^3
     number of atoms/cell      =            2
     number of atomic types    =            1
     number of electrons       =         6.00
     number of Kohn-Sham states=            7
     kinetic-energy cutoff     =      50.0000  Ry
     charge density cutoff     =     200.0000  Ry
     convergence threshold     =      1.0E-08
     mixing beta               =       0.3000
     number of iterations used =           10  plain     mixing
     Exchange-correlation      = SLA PW PBX PBC ( 1  4  3  4 0 0)

     celldm(1)=   6.103117  celldm(2)=   0.000000  celldm(3)=   0.000000
     celldm(4)=   0.000000  celldm(5)=   0.000000  celldm(6)=   0.000000

     crystal axes: (cart. coord. in units of alat)
               a(1) = (   1.005714   0.000000   0.000000 )  
               a(2) = (   0.000000   0.994286   0.000000 )  
               a(3) = (   0.000000   0.000000   1.000033 )  

     reciprocal axes: (cart. coord. in units 2 pi/alat)
               b(1) = (  0.994318  0.000000  0.000000 )  
               b(2) = (  0.000000  1.005747  0.000000 )  
               b(3) = (  0.000000  0.000000  0.999967 )  


     PseudoPot. # 1 for Al read from file:
     /opt/pp/Al.pbe-nl-kjpaw_psl.1.0.0.UPF
     MD5 check sum: 1b67f78b73fe58c7924490f171ce8a1e
     Pseudo is Projector augmented-wave + core cor, Zval =  3.0
     Generated using "atomic" code by A. Dal Corso v.6.3
     Shape of augmentation charge: PSQ
     Using radial grid of 1135 points,  4 beta functions with: 
                l(1) =   0
                l(2) =   0
                l(3) =   1
                l(4) =   1
     Q(r) pseudized with 0 coefficients 


     atomic species   valence    mass     pseudopotential
        Al             3.00    26.98200     Al( 1.00)

      8 Sym. Ops., with inversion, found



   Cartesian axes

     site n.     atom                  positions (alat units)
         1           Al  tau(   1) = (   0.0000000   0.0000000   0.0000000  )
         2           Al  tau(   2) = (   0.5028571   0.4971429   0.5000163  )

     number of k points=     8  Marzari-Vanderbilt smearing, width (Ry)=  0.0100
                       cart. coord. in units 2pi/alat
        k(    1) = (   0.1242898   0.1257184   0.1249959), wk =   0.2500000
        k(    2) = (   0.1242898   0.1257184   0.3749878), wk =   0.2500000
        k(    3) = (   0.1242898   0.3771552   0.1249959), wk =   0.2500000
        k(    4) = (   0.1242898   0.3771552   0.3749878), wk =   0.2500000
        k(    5) = (   0.3728693   0.1257184   0.1249959), wk =   0.2500000
        k(    6) = (   0.3728693   0.1257184   0.3749878), wk =   0.2500000
        k(    7) = (   0.3728693   0.3771552   0.1249959), wk =   0.2500000
        k(    8) = (   0.3728693   0.3771552   0.3749878), wk =   0.2500000

     Dense  grid:    10907 G-vectors     FFT dimensions: (  27,  27,  27)

     Estimated max dynamical RAM per process >       6.25 MB

     Estimated total dynamical RAM >      24.98 MB

     Initial potential from superposition of free atoms

     starting charge    5.99542, renormalised to    6.00000
     Starting wfcs are    8 randomized atomic wfcs
     Checking if some PAW data can be deallocated... 

     total cpu time spent up to now is        0.5 secs

     Self-consistent Calculation

     iteration #  1     ecut=    50.00 Ry     beta= 0.30
     Davidson diagonalization with overlap
     ethr =  1.00E-02,  avg # of iterations =  4.5

     Threshold (ethr) on eigenvalues was too large:
     Diagonalizing with lowered threshold

     Davidson diagonalization with overlap
     ethr =  1.88E-04,  avg # of iterations =  2.2

     total cpu time spent up to now is        0.5 secs

     total energy              =     -78.97707128 Ry
     Harris-Foulkes estimate   =     -78.97899034 Ry
     estimated scf accuracy    <       0.01111033 Ry

     iteration #  2     ecut=    50.00 Ry     beta= 0.30
     Davidson diagonalization with overlap
     ethr =  1.85E-04,  avg # of iterations =  1.0

     total cpu time spent up to now is        0.6 secs

     total energy              =     -78.97543038 Ry
     Harris-Foulkes estimate   =     -78.97715666 Ry
     estimated scf accuracy    <       0.00513733 Ry

     iteration #  3     ecut=    50.00 Ry     beta= 0.30
     Davidson diagonalization with overlap
     ethr =  8.56E-05,  avg # of iterations =  1.0

     total cpu time spent up to now is        0.6 secs

     total energy              =     -78.97559967 Ry
     Harris-Foulkes estimate   =     -78.97559881 Ry
     estimated scf accuracy    <       0.00000844 Ry

     iteration #  4     ecut=    50.00 Ry     beta= 0.30
     Davidson diagonalization with overlap
     ethr =  1.41E-07,  avg # of iterations =  3.4

     total cpu time spent up to now is        0.7 secs

     total energy              =     -78.97563150 Ry
     Harris-Foulkes estimate   =     -78.97563192 Ry
     estimated scf accuracy    <       0.00000162 Ry

     iteration #  5     ecut=    50.00 Ry     beta= 0.30
     Davidson diagonalization with overlap
     ethr =  2.69E-08,  avg # of iterations =  2.0

     total cpu time spent up to now is        0.7 secs

     total energy              =     -78.97563113 Ry
     Harris-Foulkes estimate   =     -78.97563178 Ry
     estimated scf accuracy    <       0.00000177 Ry

     iteration #  6     ecut=    50.00 Ry     beta= 0.30
     Davidson diagonalization with overlap
     ethr =  2.69E-08,  avg # of iterations =  1.0

     total cpu time spent up to now is        0.8 secs

     total energy              =     -78.97563119 Ry
     Harris-Foulkes estimate   =     -78.97563118 Ry
     estimated scf accuracy    <       0.00000001 Ry

     iteration #  7     ecut=    50.00 Ry     beta= 0.30
     Davidson diagonalization with overlap
     ethr =  2.25E-10,  avg # of iterations =  2.9

     total cpu time spent up to now is        0.8 secs

     End of self-consistent calculation

          k = 0.1243 0.1257 0.1250 (  1351 PWs)   bands (ev):

    -2.6356   7.2971   7.4079   8.0908  14.0369  14.2156  15.5142

          k = 0.1243 0.1257 0.3750 (  1355 PWs)   bands (ev):

    -0.8783   2.5733   8.9802   9.5451  12.2596  12.7565  15.7771

          k = 0.1243 0.3772 0.1250 (  1355 PWs)   bands (ev):

    -0.8580   2.6326   8.9696   9.4778  12.2899  12.7249  15.7508

          k = 0.1243 0.3772 0.3750 (  1354 PWs)   bands (ev):

     0.8780   4.0962   4.5553   7.7079  10.8215  13.8566  14.2736

          k = 0.3729 0.1257 0.1250 (  1356 PWs)   bands (ev):

    -0.8980   2.5157   9.0280   9.5732  12.2723  12.7452  15.8652

          k = 0.3729 0.1257 0.3750 (  1357 PWs)   bands (ev):

     0.8386   4.0392   4.4532   7.5890  11.0181  14.0311  14.4105

          k = 0.3729 0.3772 0.1250 (  1356 PWs)   bands (ev):

     0.8586   4.0653   4.5077   7.6493  10.9184  13.9398  14.3439

          k = 0.3729 0.3772 0.3750 (  1362 PWs)   bands (ev):

     2.5732   5.7094   5.7303   6.5210   8.9936   9.0626   9.9928

     the Fermi energy is     7.6982 ev

!    total energy              =     -78.97563120 Ry
     Harris-Foulkes estimate   =     -78.97563120 Ry
     estimated scf accuracy    <          2.3E-09 Ry

     total all-electron energy =      -971.261192 Ry

     The total energy is the sum of the following terms:

     one-electron contribution =       6.26094291 Ry
     hartree contribution      =       0.00679855 Ry
     xc contribution           =      -5.15723746 Ry
     ewald contribution        =     -10.73321877 Ry
     one-center paw contrib.   =     -69.35248135 Ry
     smearing contrib. (-TS)   =      -0.00043509 Ry

     convergence has been achieved in   7 iterations

     Forces acting on atoms (cartesian axes, Ry/au):

     atom    1 type  1   force =     0.00000000    0.00000000    0.00000000
     atom    2 type  1   force =     0.00000000    0.00000000    0.00000000

     Total force =     0.000000     Total SCF correction =     0.000000


     Computing stress (Cartesian axis) and pressure

          total   stress  (Ry/bohr**3)                   (kbar)     P=    0.39
   0.00034806   0.00000000   0.00000000         51.20      0.00      0.00
   0.00000000  -0.00037070   0.00000000          0.00    -54.53      0.00
   0.00000000   0.00000000   0.00003055          0.00      0.00      4.49


     Writing output data file gyEWUdXLmCMxOoAI.save/

     init_run     :      0.16s CPU      0.16s WALL (       1 calls)
     electrons    :      0.34s CPU      0.35s WALL (       1 calls)
     forces       :      0.05s CPU      0.05s WALL (       1 calls)
     stress       :      0.11s CPU      0.11s WALL (       1 calls)

     Called by init_run:
     wfcinit      :      0.01s CPU      0.01s WALL (       1 calls)
     potinit      :      0.04s CPU      0.04s WALL (       1 calls)
     hinit0       :      0.10s CPU      0.10s WALL (       1 calls)

     Called by electrons:
     c_bands      :      0.15s CPU      0.15s WALL (       8 calls)
     sum_band     :      0.04s CPU      0.04s WALL (       8 calls)
     v_of_rho     :      0.03s CPU      0.03s WALL (       8 calls)
     newd         :      0.01s CPU      0.01s WALL (       8 calls)
     PAW_pot      :      0.13s CPU      0.14s WALL (       8 calls)
     mix_rho      :      0.00s CPU      0.00s WALL (       8 calls)

     Called by c_bands:
     init_us_2    :      0.01s CPU      0.01s WALL (      76 calls)
     cegterg      :      0.14s CPU      0.14s WALL (      32 calls)

     Called by sum_band:
     sum_band:bec :      0.00s CPU      0.00s WALL (      32 calls)
     addusdens    :      0.01s CPU      0.01s WALL (       8 calls)

     Called by *egterg:
     h_psi        :      0.11s CPU      0.11s WALL (     108 calls)
     s_psi        :      0.01s CPU      0.01s WALL (     108 calls)
     g_psi        :      0.00s CPU      0.00s WALL (      72 calls)
     cdiaghg      :      0.01s CPU      0.01s WALL (     100 calls)

     Called by h_psi:
     h_psi:pot    :      0.11s CPU      0.11s WALL (     108 calls)
     h_psi:calbec :      0.01s CPU      0.01s WALL (     108 calls)
     vloc_psi     :      0.10s CPU      0.10s WALL (     108 calls)
     add_vuspsi   :      0.01s CPU      0.01s WALL (     108 calls)

     General routines
     calbec       :      0.01s CPU      0.01s WALL (     160 calls)
     fft          :      0.02s CPU      0.02s WALL (     114 calls)
     ffts         :      0.00s CPU      0.00s WALL (       8 calls)
     fftw         :      0.11s CPU      0.11s WALL (    1384 calls)

     Parallel routines
     fft_scatt_xy :      0.02s CPU      0.02s WALL (    1506 calls)
     fft_scatt_yz :      0.02s CPU      0.02s WALL (    1506 calls)

     PWSCF        :      0.96s CPU      0.98s WALL


   This run was terminated on:  20:46:22  15May2022            

=------------------------------------------------------------------------------=
   JOB DONE.
=------------------------------------------------------------------------------=
