
     Program PWSCF v.6.6 starts on 15May2022 at 18: 5: 7 

     This program is part of the open-source Quantum ESPRESSO suite
     for quantum simulation of materials; please cite
         "P. Giannozzi et al., J. Phys.:Condens. Matter 21 395502 (2009);
         "P. Giannozzi et al., J. Phys.:Condens. Matter 29 465901 (2017);
          URL http://www.quantum-espresso.org", 
     in publications or presentations arising from this work. More details at
     http://www.quantum-espresso.org/quote

     Parallel version (MPI & OpenMP), running on      18 processor cores
     Number of MPI processes:                18
     Threads/MPI process:                     1

     MPI processes distributed on     1 nodes
     K-points division:     npool     =      18
     Fft bands division:     nmany     =       1
     Reading input from /rds/homes/b/bxp912/jobs/20220515_al_eos/out/relax/relax.in

     Current dimensions of program PWSCF are:
     Max number of different atomic species (ntypx) = 10
     Max number of k-points (npk) =  40000
     Max angular momentum in pseudopotentials (lmaxx) =  3
     Message from routine emend_upf/check:
     BEWARE !!! Possible out of bounds while fixing pseudo
     Message from routine emend_upf/check:
     BEWARE !!! Possible out of bounds while fixing pseudo
     Message from routine read_upf:
     Pseudo file Al.pbe-nl-kjpaw_psl.1.0.0.UPF has been fixed on the fly.
     To avoid this message in the future, permanently fix 
     your pseudo files following these instructions: 
     https://gitlab.com/QEF/q-e/blob/master/upftools/how_to_fix_upf.md
     file Al.pbe-nl-kjpaw_psl.1.0.0.UPF: wavefunction(s)  3S 3P renormalized

     Subspace diagonalization in iterative solution of the eigenvalue problem:
     a serial algorithm will be used

     Found symmetry operation: I + ( -0.5000 -0.5000  0.0000)
     This is a supercell, fractional translations are disabled
     Message from routine setup:
     using ibrav=0 with symmetry is DISCOURAGED, use correct ibrav instead

     G-vector sticks info
     --------------------
     sticks:   dense  smooth     PW     G-vecs:    dense   smooth      PW
     Sum         885     885    277                20005    20005    3287



     bravais-lattice index     =            0
     lattice parameter (alat)  =       7.4844  a.u.
     unit-cell volume          =     419.2480 (a.u.)^3
     number of atoms/cell      =            4
     number of atomic types    =            1
     number of electrons       =        12.00
     number of Kohn-Sham states=           10
     kinetic-energy cutoff     =      50.0000  Ry
     charge density cutoff     =     200.0000  Ry
     convergence threshold     =      1.0E-06
     mixing beta               =       0.1000
     number of iterations used =           10  plain     mixing
     Exchange-correlation= SLA PW PBX PBC
                           (   1   4   3   4   0   0   0)
     nstep                     =           50


     celldm(1)=   7.484400  celldm(2)=   0.000000  celldm(3)=   0.000000
     celldm(4)=   0.000000  celldm(5)=   0.000000  celldm(6)=   0.000000

     crystal axes: (cart. coord. in units of alat)
               a(1) = (   1.000000   0.000000   0.000000 )  
               a(2) = (   0.000000   1.000000   0.000000 )  
               a(3) = (   0.000000   0.000000   1.000000 )  

     reciprocal axes: (cart. coord. in units 2 pi/alat)
               b(1) = (  1.000000  0.000000  0.000000 )  
               b(2) = (  0.000000  1.000000  0.000000 )  
               b(3) = (  0.000000  0.000000  1.000000 )  


     PseudoPot. # 1 for Al read from file:
     /rds/homes/b/bxp912/pp/Al.pbe-nl-kjpaw_psl.1.0.0.UPF
     MD5 check sum: 339dbea23cf3ab9a065ad45c0f9085d7
     Pseudo is Projector augmented-wave + core cor, Zval =  3.0
     Generated using "atomic" code by A. Dal Corso v.5.1
     Shape of augmentation charge: PSQ
     Using radial grid of 1135 points,  4 beta functions with: 
                l(1) =   0
                l(2) =   0
                l(3) =   1
                l(4) =   1
     Q(r) pseudized with 0 coefficients 


     atomic species   valence    mass     pseudopotential
        Al             3.00    26.98200     Al( 1.00)

     48 Sym. Ops., with inversion, found



   Cartesian axes

     site n.     atom                  positions (alat units)
         1           Al  tau(   1) = (   0.0000000   0.0000000   0.0000000  )
         2           Al  tau(   2) = (   0.5000000   0.5000000   0.0000000  )
         3           Al  tau(   3) = (   0.5000000   0.0000000   0.5000000  )
         4           Al  tau(   4) = (   0.0000000   0.5000000   0.5000000  )

     number of k points=  1140  Marzari-Vanderbilt smearing, width (Ry)=  0.0200

     Number of k-points >= 100: set verbosity='high' to print them.

     Dense  grid:    20005 G-vectors     FFT dimensions: (  36,  36,  36)

     Estimated max dynamical RAM per process >      41.75 MB

     Estimated total dynamical RAM >     751.57 MB

     Initial potential from superposition of free atoms

     starting charge   11.99084, renormalised to   12.00000
     Starting wfcs are   16 randomized atomic wfcs
     Checking if some PAW data can be deallocated... 

     total cpu time spent up to now is        4.4 secs

     Self-consistent Calculation

     iteration #  1     ecut=    50.00 Ry     beta= 0.10
     Davidson diagonalization with overlap
     ethr =  1.00E-02,  avg # of iterations =  3.7

     Threshold (ethr) on eigenvalues was too large:
     Diagonalizing with lowered threshold

     Davidson diagonalization with overlap
     ethr =  1.78E-04,  avg # of iterations =  5.0

     total cpu time spent up to now is       17.3 secs

     total energy              =    -158.01098073 Ry
     estimated scf accuracy    <       0.02227945 Ry

     iteration #  2     ecut=    50.00 Ry     beta= 0.10
     Davidson diagonalization with overlap
     ethr =  1.86E-04,  avg # of iterations =  1.1

     total cpu time spent up to now is       20.9 secs

     total energy              =    -158.00601375 Ry
     estimated scf accuracy    <       0.01791460 Ry

     iteration #  3     ecut=    50.00 Ry     beta= 0.10
     Davidson diagonalization with overlap
     ethr =  1.49E-04,  avg # of iterations =  1.2

     total cpu time spent up to now is       24.8 secs

     total energy              =    -158.00638807 Ry
     estimated scf accuracy    <       0.00003499 Ry

     iteration #  4     ecut=    50.00 Ry     beta= 0.10
     Davidson diagonalization with overlap
     c_bands:  1 eigenvalues not converged
     c_bands:  1 eigenvalues not converged
     ethr =  2.92E-07,  avg # of iterations =  7.0

     total cpu time spent up to now is       34.6 secs

     total energy              =    -158.00646015 Ry
     estimated scf accuracy    <       0.00002331 Ry

     iteration #  5     ecut=    50.00 Ry     beta= 0.10
     Davidson diagonalization with overlap
     ethr =  1.94E-07,  avg # of iterations =  1.1

     total cpu time spent up to now is       38.3 secs

     total energy              =    -158.00645760 Ry
     estimated scf accuracy    <       0.00001996 Ry

     iteration #  6     ecut=    50.00 Ry     beta= 0.10
     Davidson diagonalization with overlap
     ethr =  1.66E-07,  avg # of iterations =  1.0

     total cpu time spent up to now is       41.9 secs

     total energy              =    -158.00646012 Ry
     estimated scf accuracy    <       0.00000361 Ry

     iteration #  7     ecut=    50.00 Ry     beta= 0.10
     Davidson diagonalization with overlap
     ethr =  3.01E-08,  avg # of iterations =  2.3

     total cpu time spent up to now is       46.9 secs

     total energy              =    -158.00645631 Ry
     estimated scf accuracy    <       0.00001311 Ry

     iteration #  8     ecut=    50.00 Ry     beta= 0.10
     Davidson diagonalization with overlap
     ethr =  3.01E-08,  avg # of iterations =  1.3

     total cpu time spent up to now is       50.7 secs

     End of self-consistent calculation

     Number of k-points >= 100: set verbosity='high' to print the bands.

     the Fermi energy is     8.5587 ev

!    total energy              =    -158.00645658 Ry

     total all-electron energy =     -1942.577584 Ry
     estimated scf accuracy    <       0.00000011 Ry
     smearing contrib. (-TS)   =      -0.00017285 Ry
     internal energy E=F+TS    =    -158.00628373 Ry

     The total energy is F=E-TS. E is the sum of the following terms:
     one-electron contribution =      13.24726125 Ry
     hartree contribution      =       0.02676244 Ry
     xc contribution           =     -10.49501202 Ry
     ewald contribution        =     -22.05320864 Ry
     one-center paw contrib.   =    -138.73208675 Ry

     convergence has been achieved in   8 iterations

     Forces acting on atoms (cartesian axes, Ry/au):

     atom    1 type  1   force =     0.00000000    0.00000000    0.00000000
     atom    2 type  1   force =     0.00000000    0.00000000    0.00000000
     atom    3 type  1   force =     0.00000000    0.00000000    0.00000000
     atom    4 type  1   force =     0.00000000    0.00000000    0.00000000

     Total force =     0.000000     Total SCF correction =     0.000000


     Computing stress (Cartesian axis) and pressure

          total   stress  (Ry/bohr**3)                   (kbar)     P=       52.68
   0.00035811   0.00000000   0.00000000           52.68        0.00        0.00
   0.00000000   0.00035811   0.00000000            0.00       52.68        0.00
   0.00000000   0.00000000   0.00035811            0.00        0.00       52.68


     BFGS Geometry Optimization

     number of scf cycles    =   1
     number of bfgs steps    =   0

     enthalpy new            =    -158.0064565771 Ry

     new trust radius        =       0.0366625381 bohr
     new conv_thr            =       0.0000010000 Ry

     new unit-cell volume =    430.60937 a.u.^3 (    63.80972 Ang^3 )
     density =      2.80864 g/cm^3

CELL_PARAMETERS (alat=  7.48440000)
   1.008952762   0.000000000   0.000000000
   0.000000000   1.008952762   0.000000000
   0.000000000   0.000000000   1.008952762

ATOMIC_POSITIONS (crystal)
Al            0.0000000000        0.0000000000        0.0000000000
Al            0.5000000000        0.5000000000        0.0000000000
Al            0.5000000000        0.0000000000        0.5000000000
Al            0.0000000000        0.5000000000        0.5000000000



     Writing output data file /scratch/FmRfOkeMGJhFkJWp.save/
     NEW-OLD atomic charge density approx. for the potential
     extrapolated charge   12.31637, renormalised to   12.00000

     total cpu time spent up to now is       55.4 secs

     Self-consistent Calculation

     iteration #  1     ecut=    50.00 Ry     beta= 0.10
     Davidson diagonalization with overlap
     ethr =  1.00E-06,  avg # of iterations =  6.5

     total cpu time spent up to now is       64.9 secs

     total energy              =    -158.00953407 Ry
     estimated scf accuracy    <       0.00001754 Ry

     iteration #  2     ecut=    50.00 Ry     beta= 0.10
     Davidson diagonalization with overlap
     ethr =  1.46E-07,  avg # of iterations =  2.5

     total cpu time spent up to now is       69.9 secs

     total energy              =    -158.00952393 Ry
     estimated scf accuracy    <       0.00001201 Ry

     iteration #  3     ecut=    50.00 Ry     beta= 0.10
     Davidson diagonalization with overlap
     ethr =  1.00E-07,  avg # of iterations =  1.0

     total cpu time spent up to now is       73.4 secs

     total energy              =    -158.00951351 Ry
     estimated scf accuracy    <       0.00000514 Ry

     iteration #  4     ecut=    50.00 Ry     beta= 0.10
     Davidson diagonalization with overlap
     ethr =  4.28E-08,  avg # of iterations =  1.0

     total cpu time spent up to now is       76.9 secs

     End of self-consistent calculation

     Number of k-points >= 100: set verbosity='high' to print the bands.

     the Fermi energy is     8.2710 ev

!    total energy              =    -158.00951359 Ry

     total all-electron energy =     -1942.580641 Ry
     estimated scf accuracy    <       0.00000001 Ry
     smearing contrib. (-TS)   =      -0.00014979 Ry
     internal energy E=F+TS    =    -158.00936380 Ry

     The total energy is F=E-TS. E is the sum of the following terms:
     one-electron contribution =      12.98039078 Ry
     hartree contribution      =       0.02561116 Ry
     xc contribution           =     -10.43608723 Ry
     ewald contribution        =     -21.85752344 Ry
     one-center paw contrib.   =    -138.72175508 Ry

     convergence has been achieved in   4 iterations

     Forces acting on atoms (cartesian axes, Ry/au):

     atom    1 type  1   force =     0.00000000    0.00000000    0.00000000
     atom    2 type  1   force =     0.00000000    0.00000000    0.00000000
     atom    3 type  1   force =     0.00000000    0.00000000    0.00000000
     atom    4 type  1   force =     0.00000000    0.00000000    0.00000000

     Total force =     0.000000     Total SCF correction =     0.000000


     Computing stress (Cartesian axis) and pressure

          total   stress  (Ry/bohr**3)                   (kbar)     P=       27.07
   0.00018403   0.00000000   0.00000000           27.07        0.00        0.00
   0.00000000   0.00018403   0.00000000            0.00       27.07        0.00
   0.00000000   0.00000000   0.00018403            0.00        0.00       27.07


     number of scf cycles    =   2
     number of bfgs steps    =   1

     enthalpy old            =    -158.0064565771 Ry
     enthalpy new            =    -158.0095135939 Ry

     CASE: enthalpy_new < enthalpy_old

     new trust radius        =       0.0403996779 bohr
     new conv_thr            =       0.0000000100 Ry

     new unit-cell volume =    443.30726 a.u.^3 (    65.69136 Ang^3 )
     density =      2.72819 g/cm^3

CELL_PARAMETERS (alat=  7.48440000)
   1.018774244   0.000000000   0.000000000
   0.000000000   1.018774244   0.000000000
   0.000000000   0.000000000   1.018774244

ATOMIC_POSITIONS (crystal)
Al            0.0000000000        0.0000000000        0.0000000000
Al            0.5000000000        0.5000000000        0.0000000000
Al            0.5000000000        0.0000000000        0.5000000000
Al            0.0000000000        0.5000000000        0.5000000000



     Writing output data file /scratch/FmRfOkeMGJhFkJWp.save/
     NEW-OLD atomic charge density approx. for the potential
     extrapolated charge   12.34346, renormalised to   12.00000

     total cpu time spent up to now is       81.6 secs

     Self-consistent Calculation

     iteration #  1     ecut=    50.00 Ry     beta= 0.10
     Davidson diagonalization with overlap
     ethr =  1.00E-06,  avg # of iterations =  7.1

     total cpu time spent up to now is       91.7 secs

     total energy              =    -158.01078700 Ry
     estimated scf accuracy    <       0.00002028 Ry

     iteration #  2     ecut=    50.00 Ry     beta= 0.10
     Davidson diagonalization with overlap
     ethr =  1.69E-07,  avg # of iterations =  2.4

     total cpu time spent up to now is       96.7 secs

     total energy              =    -158.01077474 Ry
     estimated scf accuracy    <       0.00001328 Ry

     iteration #  3     ecut=    50.00 Ry     beta= 0.10
     Davidson diagonalization with overlap
     ethr =  1.11E-07,  avg # of iterations =  1.0

     total cpu time spent up to now is      100.1 secs

     total energy              =    -158.01076150 Ry
     estimated scf accuracy    <       0.00000594 Ry

     iteration #  4     ecut=    50.00 Ry     beta= 0.10
     Davidson diagonalization with overlap
     ethr =  4.95E-08,  avg # of iterations =  1.0

     total cpu time spent up to now is      103.6 secs

     total energy              =    -158.01076161 Ry
     estimated scf accuracy    <       0.00000001 Ry

     iteration #  5     ecut=    50.00 Ry     beta= 0.10
     Davidson diagonalization with overlap
     ethr =  1.08E-10,  avg # of iterations =  5.3

     total cpu time spent up to now is      111.5 secs

     total energy              =    -158.01076165 Ry
     estimated scf accuracy    <       0.00000001 Ry

     iteration #  6     ecut=    50.00 Ry     beta= 0.10
     Davidson diagonalization with overlap
     ethr =  8.58E-11,  avg # of iterations =  1.0

     total cpu time spent up to now is      115.0 secs

     End of self-consistent calculation

     Number of k-points >= 100: set verbosity='high' to print the bands.

     the Fermi energy is     7.9639 ev

!    total energy              =    -158.01076164 Ry

     total all-electron energy =     -1942.581889 Ry
     estimated scf accuracy    <          3.2E-09 Ry
     smearing contrib. (-TS)   =      -0.00012032 Ry
     internal energy E=F+TS    =    -158.01064132 Ry

     The total energy is F=E-TS. E is the sum of the following terms:
     one-electron contribution =      12.69606888 Ry
     hartree contribution      =       0.02470997 Ry
     xc contribution           =     -10.37328235 Ry
     ewald contribution        =     -21.64680624 Ry
     one-center paw contrib.   =    -138.71133158 Ry

     convergence has been achieved in   6 iterations

     Forces acting on atoms (cartesian axes, Ry/au):

     atom    1 type  1   force =     0.00000000    0.00000000    0.00000000
     atom    2 type  1   force =     0.00000000    0.00000000    0.00000000
     atom    3 type  1   force =     0.00000000    0.00000000    0.00000000
     atom    4 type  1   force =     0.00000000    0.00000000    0.00000000

     Total force =     0.000000     Total SCF correction =     0.000000


     Computing stress (Cartesian axis) and pressure

          total   stress  (Ry/bohr**3)                   (kbar)     P=        2.49
   0.00001693   0.00000000   0.00000000            2.49        0.00        0.00
   0.00000000   0.00001693   0.00000000            0.00        2.49        0.00
   0.00000000   0.00000000   0.00001693            0.00        0.00        2.49


     number of scf cycles    =   3
     number of bfgs steps    =   2

     enthalpy old            =    -158.0095135939 Ry
     enthalpy new            =    -158.0107616381 Ry

     CASE: enthalpy_new < enthalpy_old

     new trust radius        =       0.0042009957 bohr
     new conv_thr            =       0.0000000100 Ry

     new unit-cell volume =    444.63535 a.u.^3 (    65.88816 Ang^3 )
     density =      2.72004 g/cm^3

CELL_PARAMETERS (alat=  7.48440000)
   1.019790604   0.000000000   0.000000000
   0.000000000   1.019790604   0.000000000
   0.000000000   0.000000000   1.019790604

ATOMIC_POSITIONS (crystal)
Al            0.0000000000        0.0000000000        0.0000000000
Al            0.5000000000        0.5000000000        0.0000000000
Al            0.5000000000        0.0000000000        0.5000000000
Al            0.0000000000        0.5000000000        0.5000000000



     Writing output data file /scratch/FmRfOkeMGJhFkJWp.save/
     NEW-OLD atomic charge density approx. for the potential
     extrapolated charge   12.03582, renormalised to   12.00000

     total cpu time spent up to now is      119.6 secs

     Self-consistent Calculation

     iteration #  1     ecut=    50.00 Ry     beta= 0.10
     Davidson diagonalization with overlap
     ethr =  1.00E-06,  avg # of iterations =  2.0

     Threshold (ethr) on eigenvalues was too large:
     Diagonalizing with lowered threshold

     Davidson diagonalization with overlap
     ethr =  4.19E-09,  avg # of iterations =  4.8

     total cpu time spent up to now is      131.5 secs

     total energy              =    -158.01077377 Ry
     estimated scf accuracy    <       0.00000026 Ry

     iteration #  2     ecut=    50.00 Ry     beta= 0.10
     Davidson diagonalization with overlap
     ethr =  2.20E-09,  avg # of iterations =  2.0

     total cpu time spent up to now is      136.0 secs

     total energy              =    -158.01077361 Ry
     estimated scf accuracy    <       0.00000018 Ry

     iteration #  3     ecut=    50.00 Ry     beta= 0.10
     Davidson diagonalization with overlap
     ethr =  1.50E-09,  avg # of iterations =  1.0

     total cpu time spent up to now is      139.5 secs

     total energy              =    -158.01077349 Ry
     estimated scf accuracy    <       0.00000007 Ry

     iteration #  4     ecut=    50.00 Ry     beta= 0.10
     Davidson diagonalization with overlap
     ethr =  5.72E-10,  avg # of iterations =  1.0

     total cpu time spent up to now is      143.0 secs

     End of self-consistent calculation

     Number of k-points >= 100: set verbosity='high' to print the bands.

     the Fermi energy is     7.9326 ev

!    total energy              =    -158.01077350 Ry

     total all-electron energy =     -1942.581901 Ry
     estimated scf accuracy    <          1.6E-10 Ry
     smearing contrib. (-TS)   =      -0.00011727 Ry
     internal energy E=F+TS    =    -158.01065622 Ry

     The total energy is F=E-TS. E is the sum of the following terms:
     one-electron contribution =      12.66714159 Ry
     hartree contribution      =       0.02463787 Ry
     xc contribution           =     -10.36689261 Ry
     ewald contribution        =     -21.62523225 Ry
     one-center paw contrib.   =    -138.71031083 Ry

     convergence has been achieved in   4 iterations

     Forces acting on atoms (cartesian axes, Ry/au):

     atom    1 type  1   force =     0.00000000    0.00000000    0.00000000
     atom    2 type  1   force =     0.00000000    0.00000000    0.00000000
     atom    3 type  1   force =     0.00000000    0.00000000    0.00000000
     atom    4 type  1   force =     0.00000000    0.00000000    0.00000000

     Total force =     0.000000     Total SCF correction =     0.000000


     Computing stress (Cartesian axis) and pressure

          total   stress  (Ry/bohr**3)                   (kbar)     P=        0.14
   0.00000098   0.00000000   0.00000000            0.14        0.00        0.00
   0.00000000   0.00000098   0.00000000            0.00        0.14        0.00
   0.00000000   0.00000000   0.00000098            0.00        0.00        0.14


     bfgs converged in   4 scf cycles and   3 bfgs steps
     (criteria: energy <  1.0E-04 Ry, force <  1.0E-03Ry/Bohr, cell <  5.0E-01kbar)

     End of BFGS Geometry Optimization

     Final enthalpy =    -158.0107734951 Ry

     File /scratch/FmRfOkeMGJhFkJWp.bfgs deleted, as requested
Begin final coordinates
     new unit-cell volume =    444.63535 a.u.^3 (    65.88816 Ang^3 )
     density =      2.72004 g/cm^3

CELL_PARAMETERS (alat=  7.48440000)
   1.019790604   0.000000000   0.000000000
   0.000000000   1.019790604   0.000000000
   0.000000000   0.000000000   1.019790604

ATOMIC_POSITIONS (crystal)
Al            0.0000000000        0.0000000000        0.0000000000
Al            0.5000000000        0.5000000000        0.0000000000
Al            0.5000000000        0.0000000000        0.5000000000
Al            0.0000000000        0.5000000000        0.5000000000
End final coordinates



     Writing output data file /scratch/FmRfOkeMGJhFkJWp.save/

     Final scf calculation at the relaxed structure.
     The G-vectors are recalculated for the final unit cell
     Results may differ from those at the preceding step.

     G-vector sticks info
     --------------------
     sticks:   dense  smooth     PW     G-vecs:    dense   smooth      PW
     Sum         933     933    277                21247    21247    3431



     bravais-lattice index     =            0
     lattice parameter (alat)  =       7.4844  a.u.
     unit-cell volume          =     444.6354 (a.u.)^3
     number of atoms/cell      =            4
     number of atomic types    =            1
     number of electrons       =        12.00
     number of Kohn-Sham states=           10
     kinetic-energy cutoff     =      50.0000  Ry
     charge density cutoff     =     200.0000  Ry
     convergence threshold     =      1.0E-08
     mixing beta               =       0.1000
     number of iterations used =           10  plain     mixing
     Exchange-correlation= SLA PW PBX PBC
                           (   1   4   3   4   0   0   0)

     celldm(1)=   7.484400  celldm(2)=   0.000000  celldm(3)=   0.000000
     celldm(4)=   0.000000  celldm(5)=   0.000000  celldm(6)=   0.000000

     crystal axes: (cart. coord. in units of alat)
               a(1) = (   1.019791   0.000000   0.000000 )  
               a(2) = (   0.000000   1.019791   0.000000 )  
               a(3) = (   0.000000   0.000000   1.019791 )  

     reciprocal axes: (cart. coord. in units 2 pi/alat)
               b(1) = (  0.980593  0.000000  0.000000 )  
               b(2) = (  0.000000  0.980593  0.000000 )  
               b(3) = (  0.000000  0.000000  0.980593 )  


     PseudoPot. # 1 for Al read from file:
     /rds/homes/b/bxp912/pp/Al.pbe-nl-kjpaw_psl.1.0.0.UPF
     MD5 check sum: 339dbea23cf3ab9a065ad45c0f9085d7
     Pseudo is Projector augmented-wave + core cor, Zval =  3.0
     Generated using "atomic" code by A. Dal Corso v.5.1
     Shape of augmentation charge: PSQ
     Using radial grid of 1135 points,  4 beta functions with: 
                l(1) =   0
                l(2) =   0
                l(3) =   1
                l(4) =   1
     Q(r) pseudized with 0 coefficients 


     atomic species   valence    mass     pseudopotential
        Al             3.00    26.98200     Al( 1.00)

     48 Sym. Ops., with inversion, found



   Cartesian axes

     site n.     atom                  positions (alat units)
         1           Al  tau(   1) = (   0.0000000   0.0000000   0.0000000  )
         2           Al  tau(   2) = (   0.5098953   0.5098953   0.0000000  )
         3           Al  tau(   3) = (   0.5098953   0.0000000   0.5098953  )
         4           Al  tau(   4) = (   0.0000000   0.5098953   0.5098953  )

     number of k points=  1140  Marzari-Vanderbilt smearing, width (Ry)=  0.0200

     Number of k-points >= 100: set verbosity='high' to print them.

     Dense  grid:    21247 G-vectors     FFT dimensions: (  36,  36,  36)

     Estimated max dynamical RAM per process >      44.22 MB

     Estimated total dynamical RAM >     795.96 MB

     Initial potential from superposition of free atoms

     starting charge   11.99084, renormalised to   12.00000
     Starting wfcs are   16 randomized atomic wfcs
     Checking if some PAW data can be deallocated... 

     total cpu time spent up to now is      149.9 secs

     Self-consistent Calculation

     iteration #  1     ecut=    50.00 Ry     beta= 0.10
     Davidson diagonalization with overlap
     c_bands:  3 eigenvalues not converged
     c_bands:  3 eigenvalues not converged
     c_bands:  3 eigenvalues not converged
     c_bands:  1 eigenvalues not converged
     c_bands:  2 eigenvalues not converged
     c_bands:  1 eigenvalues not converged
     c_bands:  2 eigenvalues not converged
     c_bands:  2 eigenvalues not converged
     c_bands:  3 eigenvalues not converged
     c_bands:  1 eigenvalues not converged
     c_bands:  1 eigenvalues not converged
     c_bands:  1 eigenvalues not converged
     c_bands:  1 eigenvalues not converged
     c_bands:  1 eigenvalues not converged
     c_bands:  2 eigenvalues not converged
     c_bands:  2 eigenvalues not converged
     c_bands:  1 eigenvalues not converged
     c_bands:  2 eigenvalues not converged
     c_bands:  2 eigenvalues not converged
     c_bands:  2 eigenvalues not converged
     c_bands:  1 eigenvalues not converged
     c_bands:  1 eigenvalues not converged
     c_bands:  1 eigenvalues not converged
     ethr =  1.00E-06,  avg # of iterations = 18.3

     total cpu time spent up to now is      172.2 secs

     total energy              =    -158.01551323 Ry
     estimated scf accuracy    <       0.02257522 Ry

     iteration #  2     ecut=    50.00 Ry     beta= 0.10
     Davidson diagonalization with overlap
     ethr =  1.88E-04,  avg # of iterations =  1.1

     total cpu time spent up to now is      175.9 secs

     total energy              =    -158.01032825 Ry
     estimated scf accuracy    <       0.01810932 Ry

     iteration #  3     ecut=    50.00 Ry     beta= 0.10
     Davidson diagonalization with overlap
     ethr =  1.51E-04,  avg # of iterations =  1.0

     total cpu time spent up to now is      179.5 secs

     total energy              =    -158.01070170 Ry
     estimated scf accuracy    <       0.00003703 Ry

     iteration #  4     ecut=    50.00 Ry     beta= 0.10
     Davidson diagonalization with overlap
     c_bands:  1 eigenvalues not converged
     ethr =  3.09E-07,  avg # of iterations =  5.3

     total cpu time spent up to now is      188.2 secs

     total energy              =    -158.01078000 Ry
     estimated scf accuracy    <       0.00000688 Ry

     iteration #  5     ecut=    50.00 Ry     beta= 0.10
     Davidson diagonalization with overlap
     ethr =  5.73E-08,  avg # of iterations =  1.4

     total cpu time spent up to now is      192.2 secs

     total energy              =    -158.01077991 Ry
     estimated scf accuracy    <       0.00000263 Ry

     iteration #  6     ecut=    50.00 Ry     beta= 0.10
     Davidson diagonalization with overlap
     ethr =  2.19E-08,  avg # of iterations =  1.6

     total cpu time spent up to now is      196.5 secs

     total energy              =    -158.01077935 Ry
     estimated scf accuracy    <       0.00000290 Ry

     iteration #  7     ecut=    50.00 Ry     beta= 0.10
     Davidson diagonalization with overlap
     ethr =  2.19E-08,  avg # of iterations =  1.0

     total cpu time spent up to now is      200.0 secs

     total energy              =    -158.01077943 Ry
     estimated scf accuracy    <       0.00000045 Ry

     iteration #  8     ecut=    50.00 Ry     beta= 0.10
     Davidson diagonalization with overlap
     ethr =  3.77E-09,  avg # of iterations =  1.0

     total cpu time spent up to now is      203.6 secs

     total energy              =    -158.01077945 Ry
     estimated scf accuracy    <       0.00000050 Ry

     iteration #  9     ecut=    50.00 Ry     beta= 0.10
     Davidson diagonalization with overlap
     ethr =  3.77E-09,  avg # of iterations =  1.0

     total cpu time spent up to now is      207.1 secs

     total energy              =    -158.01077936 Ry
     estimated scf accuracy    <       0.00000040 Ry

     iteration # 10     ecut=    50.00 Ry     beta= 0.10
     Davidson diagonalization with overlap
     ethr =  3.35E-09,  avg # of iterations =  1.0

     total cpu time spent up to now is      210.6 secs

     total energy              =    -158.01077939 Ry
     estimated scf accuracy    <       0.00000003 Ry

     iteration # 11     ecut=    50.00 Ry     beta= 0.10
     Davidson diagonalization with overlap
     ethr =  2.16E-10,  avg # of iterations =  2.2

     total cpu time spent up to now is      215.6 secs

     total energy              =    -158.01077939 Ry
     estimated scf accuracy    <       0.00000001 Ry

     iteration # 12     ecut=    50.00 Ry     beta= 0.10
     Davidson diagonalization with overlap
     ethr =  9.57E-11,  avg # of iterations =  1.0

     total cpu time spent up to now is      219.1 secs

     End of self-consistent calculation

     Number of k-points >= 100: set verbosity='high' to print the bands.

     the Fermi energy is     7.9326 ev

!    total energy              =    -158.01077938 Ry

     total all-electron energy =     -1942.581907 Ry
     estimated scf accuracy    <          9.0E-09 Ry
     smearing contrib. (-TS)   =      -0.00011729 Ry
     internal energy E=F+TS    =    -158.01066209 Ry

     The total energy is F=E-TS. E is the sum of the following terms:
     one-electron contribution =      12.66711676 Ry
     hartree contribution      =       0.02463775 Ry
     xc contribution           =     -10.36688318 Ry
     ewald contribution        =     -21.62523223 Ry
     one-center paw contrib.   =    -138.71030118 Ry

     convergence has been achieved in  12 iterations

     Forces acting on atoms (cartesian axes, Ry/au):

     atom    1 type  1   force =     0.00000000    0.00000000    0.00000000
     atom    2 type  1   force =     0.00000000    0.00000000    0.00000000
     atom    3 type  1   force =     0.00000000    0.00000000    0.00000000
     atom    4 type  1   force =     0.00000000    0.00000000    0.00000000

     Total force =     0.000000     Total SCF correction =     0.000000


     Computing stress (Cartesian axis) and pressure

          total   stress  (Ry/bohr**3)                   (kbar)     P=        0.13
   0.00000086   0.00000000   0.00000000            0.13        0.00        0.00
   0.00000000   0.00000086   0.00000000            0.00        0.13        0.00
   0.00000000   0.00000000   0.00000086            0.00        0.00        0.13


     Writing output data file /scratch/FmRfOkeMGJhFkJWp.save/

     init_run     :      7.22s CPU      7.30s WALL (       2 calls)
     electrons    :    191.88s CPU    193.72s WALL (       5 calls)
     update_pot   :      3.90s CPU      3.92s WALL (       3 calls)
     forces       :      4.77s CPU      4.82s WALL (       5 calls)
     stress       :     11.13s CPU     11.19s WALL (       5 calls)

     Called by init_run:
     wfcinit      :      4.36s CPU      4.42s WALL (       2 calls)
     potinit      :      0.86s CPU      0.86s WALL (       2 calls)
     hinit0       :      1.90s CPU      1.91s WALL (       2 calls)

     Called by electrons:
     c_bands      :    166.54s CPU    168.07s WALL (      36 calls)
     sum_band     :     23.05s CPU     23.26s WALL (      36 calls)
     v_of_rho     :      1.35s CPU      1.37s WALL (      39 calls)
     newd         :      0.10s CPU      0.10s WALL (      39 calls)
     PAW_pot      :      0.84s CPU      0.86s WALL (      42 calls)
     mix_rho      :      0.18s CPU      0.22s WALL (      36 calls)

     Called by c_bands:
     init_us_2    :      3.35s CPU      3.44s WALL (    5568 calls)
     cegterg      :    139.15s CPU    140.43s WALL (    2304 calls)

     Called by *egterg:
     cdiaghg      :      1.08s CPU      1.10s WALL (    8225 calls)
     h_psi        :    125.33s CPU    126.33s WALL (    8673 calls)
     s_psi        :      2.95s CPU      3.02s WALL (    8673 calls)
     g_psi        :      1.00s CPU      1.02s WALL (    6241 calls)

     Called by h_psi:
     h_psi:calbec :      5.24s CPU      5.28s WALL (    8673 calls)
     vloc_psi     :    116.18s CPU    117.08s WALL (    8673 calls)
     add_vuspsi   :      3.30s CPU      3.33s WALL (    8673 calls)

     General routines
     calbec       :      7.95s CPU      8.02s WALL (   12769 calls)
     fft          :      0.63s CPU      0.63s WALL (     559 calls)
     ffts         :      0.04s CPU      0.04s WALL (      36 calls)
     fftw         :    123.79s CPU    124.74s WALL (  159122 calls)

     Parallel routines

     PWSCF        :   3m40.40s CPU   3m42.65s WALL


   This run was terminated on:  18: 8:49  15May2022            

=------------------------------------------------------------------------------=
   JOB DONE.
=------------------------------------------------------------------------------=
