
     Program PWSCF v.6.4.1 starts on 15May2022 at 20:46:11 

     This program is part of the open-source Quantum ESPRESSO suite
     for quantum simulation of materials; please cite
         "P. Giannozzi et al., J. Phys.:Condens. Matter 21 395502 (2009);
         "P. Giannozzi et al., J. Phys.:Condens. Matter 29 465901 (2017);
          URL http://www.quantum-espresso.org", 
     in publications or presentations arising from this work. More details at
     http://www.quantum-espresso.org/quote

     Parallel version (MPI), running on     4 processors

     MPI processes distributed on     1 nodes
     K-points division:     npool     =       2
     R & G space division:  proc/nbgrp/npool/nimage =       2
     Reading input from /DATA/disk3/cloud/Code/python/qeeos/examples/al_005/out/eos_bm/eos_bm_0003.in
Warning: card &CELL ignored
Warning: card CELL_DYNAMICS = 'BFGS', ignored
Warning: card CELL_FACTOR = 2.0, ignored
Warning: card PRESS = 0.0, ignored
Warning: card / ignored

     Current dimensions of program PWSCF are:
     Max number of different atomic species (ntypx) = 10
     Max number of k-points (npk) =  40000
     Max angular momentum in pseudopotentials (lmaxx) =  3
               file Al.pbe-nl-kjpaw_psl.1.0.0.UPF: wavefunction(s)  3S 3P renormalized

     Subspace diagonalization in iterative solution of the eigenvalue problem:
     a serial algorithm will be used

     Found symmetry operation: I + ( -0.5000 -0.5000 -0.5000)
     This is a supercell, fractional translations are disabled
     Message from routine setup:
     DEPRECATED: symmetry with ibrav=0, use correct ibrav instead

     Parallelization info
     --------------------
     sticks:   dense  smooth     PW     G-vecs:    dense   smooth      PW
     Min         296     296     88                 5388     5388     894
     Max         297     297     89                 5391     5391     897
     Sum         593     593    177                10779    10779    1791



     bravais-lattice index     =            0
     lattice parameter (alat)  =       6.1031  a.u.
     unit-cell volume          =     223.9362 (a.u.)^3
     number of atoms/cell      =            2
     number of atomic types    =            1
     number of electrons       =         6.00
     number of Kohn-Sham states=            7
     kinetic-energy cutoff     =      50.0000  Ry
     charge density cutoff     =     200.0000  Ry
     convergence threshold     =      1.0E-08
     mixing beta               =       0.3000
     number of iterations used =           10  plain     mixing
     Exchange-correlation      = SLA PW PBX PBC ( 1  4  3  4 0 0)
     nstep                     =           50


     celldm(1)=   6.103117  celldm(2)=   0.000000  celldm(3)=   0.000000
     celldm(4)=   0.000000  celldm(5)=   0.000000  celldm(6)=   0.000000

     crystal axes: (cart. coord. in units of alat)
               a(1) = (   0.995000   0.000000   0.000000 )  
               a(2) = (   0.000000   0.995000   0.000000 )  
               a(3) = (   0.000000   0.000000   0.995000 )  

     reciprocal axes: (cart. coord. in units 2 pi/alat)
               b(1) = (  1.005025  0.000000  0.000000 )  
               b(2) = (  0.000000  1.005025  0.000000 )  
               b(3) = (  0.000000  0.000000  1.005025 )  


     PseudoPot. # 1 for Al read from file:
     /opt/pp/Al.pbe-nl-kjpaw_psl.1.0.0.UPF
     MD5 check sum: 1b67f78b73fe58c7924490f171ce8a1e
     Pseudo is Projector augmented-wave + core cor, Zval =  3.0
     Generated using "atomic" code by A. Dal Corso v.6.3
     Shape of augmentation charge: PSQ
     Using radial grid of 1135 points,  4 beta functions with: 
                l(1) =   0
                l(2) =   0
                l(3) =   1
                l(4) =   1
     Q(r) pseudized with 0 coefficients 


     atomic species   valence    mass     pseudopotential
        Al             3.00    26.98200     Al( 1.00)

     48 Sym. Ops., with inversion, found



   Cartesian axes

     site n.     atom                  positions (alat units)
         1           Al  tau(   1) = (   0.0000000   0.0000000   0.0000000  )
         2           Al  tau(   2) = (   0.4975000   0.4975000   0.4975000  )

     number of k points=     4  Marzari-Vanderbilt smearing, width (Ry)=  0.0100
                       cart. coord. in units 2pi/alat
        k(    1) = (   0.1256281   0.1256281   0.1256281), wk =   0.2500000
        k(    2) = (   0.1256281   0.1256281   0.3768844), wk =   0.7500000
        k(    3) = (   0.1256281   0.3768844   0.3768844), wk =   0.7500000
        k(    4) = (   0.3768844   0.3768844   0.3768844), wk =   0.2500000

     Dense  grid:    10779 G-vectors     FFT dimensions: (  27,  27,  27)

     Estimated max dynamical RAM per process >       6.04 MB

     Estimated total dynamical RAM >      24.16 MB

     Initial potential from superposition of free atoms

     starting charge    5.99542, renormalised to    6.00000
     Starting wfcs are    8 randomized atomic wfcs
     Checking if some PAW data can be deallocated... 

     total cpu time spent up to now is        0.4 secs

     Self-consistent Calculation

     iteration #  1     ecut=    50.00 Ry     beta= 0.30
     Davidson diagonalization with overlap
     ethr =  1.00E-02,  avg # of iterations =  3.5

     Threshold (ethr) on eigenvalues was too large:
     Diagonalizing with lowered threshold

     Davidson diagonalization with overlap
     ethr =  1.87E-04,  avg # of iterations =  2.5

     total cpu time spent up to now is        0.5 secs

     total energy              =     -78.97643445 Ry
     Harris-Foulkes estimate   =     -78.97835936 Ry
     estimated scf accuracy    <       0.01108794 Ry

     iteration #  2     ecut=    50.00 Ry     beta= 0.30
     Davidson diagonalization with overlap
     ethr =  1.85E-04,  avg # of iterations =  1.0

     total cpu time spent up to now is        0.5 secs

     total energy              =     -78.97480769 Ry
     Harris-Foulkes estimate   =     -78.97652925 Ry
     estimated scf accuracy    <       0.00511249 Ry

     iteration #  3     ecut=    50.00 Ry     beta= 0.30
     Davidson diagonalization with overlap
     ethr =  8.52E-05,  avg # of iterations =  1.0

     total cpu time spent up to now is        0.6 secs

     total energy              =     -78.97497473 Ry
     Harris-Foulkes estimate   =     -78.97497353 Ry
     estimated scf accuracy    <       0.00000832 Ry

     iteration #  4     ecut=    50.00 Ry     beta= 0.30
     Davidson diagonalization with overlap
     ethr =  1.39E-07,  avg # of iterations =  5.8

     total cpu time spent up to now is        0.6 secs

     total energy              =     -78.97500452 Ry
     Harris-Foulkes estimate   =     -78.97500494 Ry
     estimated scf accuracy    <       0.00000173 Ry

     iteration #  5     ecut=    50.00 Ry     beta= 0.30
     Davidson diagonalization with overlap
     ethr =  2.88E-08,  avg # of iterations =  2.0

     total cpu time spent up to now is        0.6 secs

     total energy              =     -78.97500407 Ry
     Harris-Foulkes estimate   =     -78.97500481 Ry
     estimated scf accuracy    <       0.00000199 Ry

     iteration #  6     ecut=    50.00 Ry     beta= 0.30
     Davidson diagonalization with overlap
     ethr =  2.88E-08,  avg # of iterations =  1.0

     total cpu time spent up to now is        0.7 secs

     total energy              =     -78.97500413 Ry
     Harris-Foulkes estimate   =     -78.97500412 Ry
     estimated scf accuracy    <       0.00000001 Ry

     iteration #  7     ecut=    50.00 Ry     beta= 0.30
     Davidson diagonalization with overlap
     ethr =  1.99E-10,  avg # of iterations =  3.0

     total cpu time spent up to now is        0.7 secs

     End of self-consistent calculation

          k = 0.1256 0.1256 0.1256 (  1328 PWs)   bands (ev):

    -2.5785   7.4951   7.4951   8.2698  14.3227  14.3227  15.8167

          k = 0.1256 0.1256 0.3769 (  1344 PWs)   bands (ev):

    -0.8039   2.6799   9.1558   9.7132  12.4694  12.9484  16.0215

          k = 0.1256 0.3769 0.3769 (  1336 PWs)   bands (ev):

     0.9488   4.1718   4.6470   7.8037  11.1094  14.1340  14.5940

          k = 0.3769 0.3769 0.3769 (  1355 PWs)   bands (ev):

     2.6787   5.8385   5.8385   6.7050   9.1753   9.1753  10.2284

     the Fermi energy is     7.8520 ev

!    total energy              =     -78.97500415 Ry
     Harris-Foulkes estimate   =     -78.97500415 Ry
     estimated scf accuracy    <          3.8E-09 Ry

     total all-electron energy =      -971.260565 Ry

     The total energy is the sum of the following terms:

     one-electron contribution =       6.33408649 Ry
     hartree contribution      =       0.00685927 Ry
     xc contribution           =      -5.17304909 Ry
     ewald contribution        =     -10.78717382 Ry
     one-center paw contrib.   =     -69.35489476 Ry
     smearing contrib. (-TS)   =      -0.00083224 Ry

     convergence has been achieved in   7 iterations

     Forces acting on atoms (cartesian axes, Ry/au):

     atom    1 type  1   force =     0.00000000    0.00000000    0.00000000
     atom    2 type  1   force =     0.00000000    0.00000000    0.00000000

     Total force =     0.000000     Total SCF correction =     0.000000


     Computing stress (Cartesian axis) and pressure

          total   stress  (Ry/bohr**3)                   (kbar)     P=   12.45
   0.00008460   0.00000000   0.00000000         12.45      0.00      0.00
   0.00000000   0.00008460   0.00000000          0.00     12.45      0.00
   0.00000000   0.00000000   0.00008460          0.00      0.00     12.45


     BFGS Geometry Optimization

     bfgs converged in   1 scf cycles and   0 bfgs steps
     (criteria: energy <  1.0E-05 Ry, force <  1.0E-04 Ry/Bohr)

     End of BFGS Geometry Optimization

     Final energy   =     -78.9750041480 Ry
Begin final coordinates

ATOMIC_POSITIONS (crystal)
Al       0.000000000   0.000000000   0.000000000
Al       0.500000000   0.500000000   0.500000000
End final coordinates



     Writing output data file uwndhYneusqbkmZv.save/

     init_run     :      0.11s CPU      0.11s WALL (       1 calls)
     electrons    :      0.27s CPU      0.28s WALL (       1 calls)
     forces       :      0.02s CPU      0.02s WALL (       1 calls)
     stress       :      0.03s CPU      0.03s WALL (       1 calls)

     Called by init_run:
     wfcinit      :      0.00s CPU      0.00s WALL (       1 calls)
     potinit      :      0.03s CPU      0.03s WALL (       1 calls)
     hinit0       :      0.07s CPU      0.07s WALL (       1 calls)

     Called by electrons:
     c_bands      :      0.08s CPU      0.08s WALL (       8 calls)
     sum_band     :      0.03s CPU      0.03s WALL (       8 calls)
     v_of_rho     :      0.04s CPU      0.04s WALL (       8 calls)
     newd         :      0.01s CPU      0.01s WALL (       8 calls)
     PAW_pot      :      0.13s CPU      0.14s WALL (       8 calls)
     mix_rho      :      0.00s CPU      0.00s WALL (       8 calls)

     Called by c_bands:
     init_us_2    :      0.00s CPU      0.00s WALL (      38 calls)
     cegterg      :      0.07s CPU      0.08s WALL (      16 calls)

     Called by sum_band:
     sum_band:bec :      0.00s CPU      0.00s WALL (      16 calls)
     addusdens    :      0.01s CPU      0.01s WALL (       8 calls)

     Called by *egterg:
     h_psi        :      0.06s CPU      0.06s WALL (      60 calls)
     s_psi        :      0.00s CPU      0.00s WALL (      60 calls)
     g_psi        :      0.00s CPU      0.00s WALL (      42 calls)
     cdiaghg      :      0.00s CPU      0.00s WALL (      56 calls)

     Called by h_psi:
     h_psi:pot    :      0.06s CPU      0.06s WALL (      60 calls)
     h_psi:calbec :      0.00s CPU      0.00s WALL (      60 calls)
     vloc_psi     :      0.05s CPU      0.06s WALL (      60 calls)
     add_vuspsi   :      0.00s CPU      0.00s WALL (      60 calls)

     General routines
     calbec       :      0.01s CPU      0.01s WALL (      86 calls)
     fft          :      0.02s CPU      0.02s WALL (     114 calls)
     ffts         :      0.00s CPU      0.00s WALL (       8 calls)
     fftw         :      0.06s CPU      0.06s WALL (     704 calls)

     Parallel routines
     fft_scatt_xy :      0.01s CPU      0.01s WALL (     826 calls)
     fft_scatt_yz :      0.02s CPU      0.02s WALL (     826 calls)

     PWSCF        :      0.74s CPU      0.76s WALL


   This run was terminated on:  20:46:12  15May2022            

=------------------------------------------------------------------------------=
   JOB DONE.
=------------------------------------------------------------------------------=
