
     Program PWSCF v.6.4.1 starts on 15May2022 at 20:46:15 

     This program is part of the open-source Quantum ESPRESSO suite
     for quantum simulation of materials; please cite
         "P. Giannozzi et al., J. Phys.:Condens. Matter 21 395502 (2009);
         "P. Giannozzi et al., J. Phys.:Condens. Matter 29 465901 (2017);
          URL http://www.quantum-espresso.org", 
     in publications or presentations arising from this work. More details at
     http://www.quantum-espresso.org/quote

     Parallel version (MPI), running on     4 processors

     MPI processes distributed on     1 nodes
     K-points division:     npool     =       2
     R & G space division:  proc/nbgrp/npool/nimage =       2
     Reading input from /DATA/disk3/cloud/Code/python/qeeos/examples/al_005/out/eos_bm/eos_bm_0008.in
Warning: card &CELL ignored
Warning: card CELL_DYNAMICS = 'BFGS', ignored
Warning: card CELL_FACTOR = 2.0, ignored
Warning: card PRESS = 0.0, ignored
Warning: card / ignored

     Current dimensions of program PWSCF are:
     Max number of different atomic species (ntypx) = 10
     Max number of k-points (npk) =  40000
     Max angular momentum in pseudopotentials (lmaxx) =  3
               file Al.pbe-nl-kjpaw_psl.1.0.0.UPF: wavefunction(s)  3S 3P renormalized

     Subspace diagonalization in iterative solution of the eigenvalue problem:
     a serial algorithm will be used

     Found symmetry operation: I + ( -0.5000 -0.5000 -0.5000)
     This is a supercell, fractional translations are disabled
     Message from routine setup:
     DEPRECATED: symmetry with ibrav=0, use correct ibrav instead

     Parallelization info
     --------------------
     sticks:   dense  smooth     PW     G-vecs:    dense   smooth      PW
     Min         296     296     88                 5532     5532     918
     Max         297     297     89                 5535     5535     921
     Sum         593     593    177                11067    11067    1839



     bravais-lattice index     =            0
     lattice parameter (alat)  =       6.1031  a.u.
     unit-cell volume          =     232.4824 (a.u.)^3
     number of atoms/cell      =            2
     number of atomic types    =            1
     number of electrons       =         6.00
     number of Kohn-Sham states=            7
     kinetic-energy cutoff     =      50.0000  Ry
     charge density cutoff     =     200.0000  Ry
     convergence threshold     =      1.0E-08
     mixing beta               =       0.3000
     number of iterations used =           10  plain     mixing
     Exchange-correlation      = SLA PW PBX PBC ( 1  4  3  4 0 0)
     nstep                     =           50


     celldm(1)=   6.103117  celldm(2)=   0.000000  celldm(3)=   0.000000
     celldm(4)=   0.000000  celldm(5)=   0.000000  celldm(6)=   0.000000

     crystal axes: (cart. coord. in units of alat)
               a(1) = (   1.007500   0.000000   0.000000 )  
               a(2) = (   0.000000   1.007500   0.000000 )  
               a(3) = (   0.000000   0.000000   1.007500 )  

     reciprocal axes: (cart. coord. in units 2 pi/alat)
               b(1) = (  0.992556  0.000000  0.000000 )  
               b(2) = (  0.000000  0.992556  0.000000 )  
               b(3) = (  0.000000  0.000000  0.992556 )  


     PseudoPot. # 1 for Al read from file:
     /opt/pp/Al.pbe-nl-kjpaw_psl.1.0.0.UPF
     MD5 check sum: 1b67f78b73fe58c7924490f171ce8a1e
     Pseudo is Projector augmented-wave + core cor, Zval =  3.0
     Generated using "atomic" code by A. Dal Corso v.6.3
     Shape of augmentation charge: PSQ
     Using radial grid of 1135 points,  4 beta functions with: 
                l(1) =   0
                l(2) =   0
                l(3) =   1
                l(4) =   1
     Q(r) pseudized with 0 coefficients 


     atomic species   valence    mass     pseudopotential
        Al             3.00    26.98200     Al( 1.00)

     48 Sym. Ops., with inversion, found



   Cartesian axes

     site n.     atom                  positions (alat units)
         1           Al  tau(   1) = (   0.0000000   0.0000000   0.0000000  )
         2           Al  tau(   2) = (   0.5037500   0.5037500   0.5037500  )

     number of k points=     4  Marzari-Vanderbilt smearing, width (Ry)=  0.0100
                       cart. coord. in units 2pi/alat
        k(    1) = (   0.1240695   0.1240695   0.1240695), wk =   0.2500000
        k(    2) = (   0.1240695   0.1240695   0.3722084), wk =   0.7500000
        k(    3) = (   0.1240695   0.3722084   0.3722084), wk =   0.7500000
        k(    4) = (   0.3722084   0.3722084   0.3722084), wk =   0.2500000

     Dense  grid:    11067 G-vectors     FFT dimensions: (  27,  27,  27)

     Estimated max dynamical RAM per process >       6.18 MB

     Estimated total dynamical RAM >      24.71 MB

     Initial potential from superposition of free atoms

     starting charge    5.99542, renormalised to    6.00000
     Starting wfcs are    8 randomized atomic wfcs
     Checking if some PAW data can be deallocated... 

     total cpu time spent up to now is        0.4 secs

     Self-consistent Calculation

     iteration #  1     ecut=    50.00 Ry     beta= 0.30
     Davidson diagonalization with overlap
     ethr =  1.00E-02,  avg # of iterations =  3.8

     Threshold (ethr) on eigenvalues was too large:
     Diagonalizing with lowered threshold

     Davidson diagonalization with overlap
     ethr =  1.92E-04,  avg # of iterations =  2.5

     total cpu time spent up to now is        0.5 secs

     total energy              =     -78.97630197 Ry
     Harris-Foulkes estimate   =     -78.97823636 Ry
     estimated scf accuracy    <       0.01126780 Ry

     iteration #  2     ecut=    50.00 Ry     beta= 0.30
     Davidson diagonalization with overlap
     ethr =  1.88E-04,  avg # of iterations =  1.0

     total cpu time spent up to now is        0.5 secs

     total energy              =     -78.97463488 Ry
     Harris-Foulkes estimate   =     -78.97638146 Ry
     estimated scf accuracy    <       0.00520739 Ry

     iteration #  3     ecut=    50.00 Ry     beta= 0.30
     Davidson diagonalization with overlap
     ethr =  8.68E-05,  avg # of iterations =  1.0

     total cpu time spent up to now is        0.6 secs

     total energy              =     -78.97480634 Ry
     Harris-Foulkes estimate   =     -78.97480550 Ry
     estimated scf accuracy    <       0.00000855 Ry

     iteration #  4     ecut=    50.00 Ry     beta= 0.30
     Davidson diagonalization with overlap
     ethr =  1.43E-07,  avg # of iterations =  5.2

     total cpu time spent up to now is        0.6 secs

     total energy              =     -78.97483974 Ry
     Harris-Foulkes estimate   =     -78.97484026 Ry
     estimated scf accuracy    <       0.00000129 Ry

     iteration #  5     ecut=    50.00 Ry     beta= 0.30
     Davidson diagonalization with overlap
     ethr =  2.15E-08,  avg # of iterations =  1.8

     total cpu time spent up to now is        0.6 secs

     total energy              =     -78.97483957 Ry
     Harris-Foulkes estimate   =     -78.97483994 Ry
     estimated scf accuracy    <       0.00000110 Ry

     iteration #  6     ecut=    50.00 Ry     beta= 0.30
     Davidson diagonalization with overlap
     ethr =  1.83E-08,  avg # of iterations =  1.0

     total cpu time spent up to now is        0.7 secs

     End of self-consistent calculation

          k = 0.1241 0.1241 0.1241 (  1379 PWs)   bands (ev):

    -2.7194   7.1597   7.1597   7.7893  13.8596  13.8596  15.0213

          k = 0.1241 0.1241 0.3722 (  1387 PWs)   bands (ev):

    -0.9873   2.4173   8.7829   9.2318  12.0204  12.3999  15.5201

          k = 0.1241 0.3722 0.3722 (  1396 PWs)   bands (ev):

     0.7250   3.9167   4.2911   7.4193  10.6381  13.6625  13.9674

          k = 0.3722 0.3722 0.3722 (  1397 PWs)   bands (ev):

     2.4172   5.5474   5.5474   6.2426   8.8110   8.8110   9.6441

     the Fermi energy is     7.4658 ev

!    total energy              =     -78.97483961 Ry
     Harris-Foulkes estimate   =     -78.97483960 Ry
     estimated scf accuracy    <          9.1E-09 Ry

     total all-electron energy =      -971.260401 Ry

     The total energy is the sum of the following terms:

     one-electron contribution =       6.15462454 Ry
     hartree contribution      =       0.00667590 Ry
     xc contribution           =      -5.13360984 Ry
     ewald contribution        =     -10.65333793 Ry
     one-center paw contrib.   =     -69.34852036 Ry
     smearing contrib. (-TS)   =      -0.00067192 Ry

     convergence has been achieved in   6 iterations

     Forces acting on atoms (cartesian axes, Ry/au):

     atom    1 type  1   force =     0.00000000    0.00000000    0.00000000
     atom    2 type  1   force =     0.00000000    0.00000000    0.00000000

     Total force =     0.000000     Total SCF correction =     0.000000


     Computing stress (Cartesian axis) and pressure

          total   stress  (Ry/bohr**3)                   (kbar)     P=  -17.33
  -0.00011778   0.00000000   0.00000000        -17.33      0.00      0.00
   0.00000000  -0.00011778   0.00000000          0.00    -17.33      0.00
   0.00000000   0.00000000  -0.00011778          0.00      0.00    -17.33


     BFGS Geometry Optimization

     bfgs converged in   1 scf cycles and   0 bfgs steps
     (criteria: energy <  1.0E-05 Ry, force <  1.0E-04 Ry/Bohr)

     End of BFGS Geometry Optimization

     Final energy   =     -78.9748396106 Ry
Begin final coordinates

ATOMIC_POSITIONS (crystal)
Al       0.000000000   0.000000000   0.000000000
Al       0.500000000   0.500000000   0.500000000
End final coordinates



     Writing output data file WMqQhLhZkRTXeman.save/

     init_run     :      0.11s CPU      0.11s WALL (       1 calls)
     electrons    :      0.23s CPU      0.23s WALL (       1 calls)
     forces       :      0.02s CPU      0.02s WALL (       1 calls)
     stress       :      0.03s CPU      0.03s WALL (       1 calls)

     Called by init_run:
     wfcinit      :      0.00s CPU      0.00s WALL (       1 calls)
     potinit      :      0.02s CPU      0.03s WALL (       1 calls)
     hinit0       :      0.07s CPU      0.07s WALL (       1 calls)

     Called by electrons:
     c_bands      :      0.07s CPU      0.07s WALL (       7 calls)
     sum_band     :      0.02s CPU      0.02s WALL (       7 calls)
     v_of_rho     :      0.03s CPU      0.03s WALL (       7 calls)
     newd         :      0.01s CPU      0.01s WALL (       7 calls)
     PAW_pot      :      0.12s CPU      0.12s WALL (       7 calls)
     mix_rho      :      0.00s CPU      0.00s WALL (       7 calls)

     Called by c_bands:
     init_us_2    :      0.00s CPU      0.00s WALL (      34 calls)
     cegterg      :      0.06s CPU      0.06s WALL (      14 calls)

     Called by sum_band:
     sum_band:bec :      0.00s CPU      0.00s WALL (      14 calls)
     addusdens    :      0.01s CPU      0.01s WALL (       7 calls)

     Called by *egterg:
     h_psi        :      0.05s CPU      0.05s WALL (      51 calls)
     s_psi        :      0.00s CPU      0.00s WALL (      51 calls)
     g_psi        :      0.00s CPU      0.00s WALL (      35 calls)
     cdiaghg      :      0.00s CPU      0.00s WALL (      47 calls)

     Called by h_psi:
     h_psi:pot    :      0.05s CPU      0.05s WALL (      51 calls)
     h_psi:calbec :      0.00s CPU      0.00s WALL (      51 calls)
     vloc_psi     :      0.05s CPU      0.05s WALL (      51 calls)
     add_vuspsi   :      0.00s CPU      0.00s WALL (      51 calls)

     General routines
     calbec       :      0.01s CPU      0.01s WALL (      75 calls)
     fft          :      0.01s CPU      0.01s WALL (     103 calls)
     ffts         :      0.00s CPU      0.00s WALL (       7 calls)
     fftw         :      0.05s CPU      0.05s WALL (     614 calls)

     Parallel routines
     fft_scatt_xy :      0.01s CPU      0.01s WALL (     724 calls)
     fft_scatt_yz :      0.01s CPU      0.01s WALL (     724 calls)

     PWSCF        :      0.71s CPU      0.72s WALL


   This run was terminated on:  20:46:16  15May2022            

=------------------------------------------------------------------------------=
   JOB DONE.
=------------------------------------------------------------------------------=
